Title
81371
    1CHL1    C3    1   5.032   6.132  10.156 -0.6013 -0.3673 -0.8683
    1CHL1    H3    2   4.974   6.216  10.112 -0.5641  1.4395  2.2383
    1CHL1    O3    3   5.023   6.142  10.299 -0.0583 -0.3656  0.3884
    1CHL1   H3'    4   5.090   6.078  10.326  2.3480  1.6978 -0.3127
    1CHL1    C4    5   4.969   6.004  10.105  0.3286 -0.3089 -0.1610
    1CHL1   H4A    6   5.029   5.918  10.142 -1.4656 -1.3884  0.3446
    1CHL1   H4B    7   4.866   5.999  10.144 -0.0574  2.1650 -0.6493
    1CHL1    C5    8   4.980   5.995   9.955 -0.4531 -0.1703  0.2523
    1CHL1    C6    9   4.873   5.984   9.876 -0.0704 -0.2817  0.3279
    1CHL1    H6   10   4.775   5.990   9.925 -0.1318  2.6399  0.0225
    1CHL1    C7   11   4.889   5.969   9.723  0.0254 -0.8263  0.2281
    1CHL1   H7A   12   4.816   5.894   9.687 -0.1944 -0.3751 -0.2937
    1CHL1   H7B   13   4.865   6.062   9.667 -0.5524 -0.3095  1.2942
    1CHL1    C8   14   5.034   5.939   9.667 -0.4035  0.1183  0.5052
    1CHL1    H8   15   5.057   5.831   9.680  1.8550  0.7197  2.2770
    1CHL1   C14   16   5.037   5.963   9.519 -1.0429 -0.4484  0.0730
    1CHL1   H14   17   5.003   6.067   9.503 -2.9232 -1.0545 -0.1555
    1CHL1   C15   18   4.944   5.878   9.432 -0.3301  0.3766  0.0798
    1CHL1  H15A   19   4.935   5.774   9.469 -1.0577  0.0017 -1.1235
    1CHL1  H15B   20   4.846   5.930   9.427 -1.0397 -0.3503  3.5100
    1CHL1   C16   21   5.013   5.878   9.295  0.3030 -0.1079  0.0762
    1CHL1  H16A   22   5.040   5.773   9.271  2.0581  0.6485 -1.5392
    1CHL1  H16B   23   4.944   5.919   9.219 -0.2564  1.4250  1.3525
    1CHL1   C17   24   5.140   5.953   9.315 -1.0424 -0.4073 -0.1797
    1CHL1   H17   25   5.107   6.059   9.317  0.2887  0.0193  0.8367
    1CHL1   C13   26   5.177   5.948   9.469  0.2965  0.3221  0.0585
    1CHL1   C18   27   5.233   5.810   9.503 -0.4175 -0.1433 -0.5006
    1CHL1  H18A   28   5.324   5.777   9.447  0.9309 -1.9260  2.4776
    1CHL1  H18B   29   5.267   5.785   9.606 -0.4345 -1.7450 -0.8509
    1CHL1  H18C   30   5.158   5.732   9.479  0.5667 -1.3083  0.0743
    1CHL1   C12   31   5.268   6.055   9.525 -0.5610 -0.9573  0.5162
    1CHL1  H12A   32   5.367   6.046   9.476 -0.6247 -1.1903  0.4294
    1CHL1  H12B   33   5.225   6.154   9.497  0.5243 -0.7426 -0.4899
    1CHL1   C11   34   5.267   6.048   9.677  0.0026  0.3322  0.5152
    1CHL1  H11A   35   5.326   5.970   9.730 -2.0033 -0.7017  1.3431
    1CHL1  H11B   36   5.315   6.144   9.707 -0.3561  0.6764  0.0045
    1CHL1    C9   37   5.128   6.029   9.743 -0.1661  0.1959  0.3637
    1CHL1    H9   38   5.072   6.124   9.734  0.2513  0.4268  0.1725
    1CHL1   C10   39   5.119   6.008   9.896 -0.1939  0.3030 -0.5099
    1CHL1   C19   40   5.195   5.876   9.930 -0.7543 -0.2966 -0.6393
    1CHL1  H19A   41   5.160   5.791   9.868  0.4147 -1.0001 -0.3459
    1CHL1  H19B   42   5.304   5.884   9.911 -0.5262  1.9046  1.1563
    1CHL1  H19C   43   5.197   5.859  10.039  1.8158 -0.5701 -0.6659
    1CHL1    C1   44   5.187   6.139   9.957 -0.0629  0.4017 -0.7044
    1CHL1   H1A   45   5.291   6.146   9.918 -0.2351 -0.1235 -1.2781
    1CHL1   H1B   46   5.132   6.229   9.922  1.8278  1.7490 -0.3353
    1CHL1    C2   47   5.179   6.154  10.113  0.4967  0.3144 -0.4180
    1CHL1   H2A   48   5.199   6.261  10.136  1.1399 -0.1657  1.3552
    1CHL1   H2B   49   5.251   6.085  10.162 -0.2947  0.2332  0.6686
    1CHL1   C20   50   5.253   5.931   9.214 -0.1813  0.1440  0.3278
    1CHL1   H20   51   5.347   5.929   9.274 -0.5685  1.2693  1.0075
    1CHL1   C21   52   5.261   6.051   9.119 -0.3562  0.5572 -0.2394
    1CHL1  H21A   53   5.271   6.143   9.180  0.4839 -0.7286  1.6612
    1CHL1  H21B   54   5.164   6.051   9.065  0.6909 -3.2185 -2.4752
    1CHL1  H21C   55   5.341   6.042   9.042 -0.0764 -1.9421  0.2419
    1CHL1   C22   56   5.265   5.790   9.138 -0.5620 -0.3873 -0.6974
    1CHL1  H22A   57   5.280   5.713   9.217  0.8942  3.4049  3.1082
    1CHL1  H22B   58   5.175   5.767   9.077 -2.2203 -0.2502  1.5673
    1CHL1   C23   59   5.390   5.787   9.048 -0.1232  0.2779  0.6205
    1CHL1  H23A   60   5.359   5.848   8.960 -2.2140 -2.6484 -0.8670
    1CHL1  H23B   61   5.479   5.833   9.096 -0.7945  2.1409  0.1952
    1CHL1   C24   62   5.414   5.642   9.007  0.4786  0.0742  0.2790
    1CHL1  H24A   63   5.461   5.594   9.095  2.0766  1.0251 -0.0198
    1CHL1  H24B   64   5.320   5.584   8.991  1.2947 -2.2116  3.0214
    1CHL1   C25   65   5.514   5.616   8.898  0.2015 -0.1923 -0.3190
    1CHL1   H25   66   5.604   5.675   8.923 -0.4573 -0.3776  2.8910
    1CHL1   C26   67   5.542   5.461   8.903 -0.6050 -0.2098  0.2271
    1CHL1  H26A   68   5.613   5.444   8.820 -1.6068 -2.9248 -0.1910
    1CHL1  H26B   69   5.591   5.434   8.999  2.6560 -1.7915 -1.7094
    1CHL1  H26C   70   5.449   5.399   8.897 -0.3560 -0.9123  2.6492
    1CHL1   C27   71   5.457   5.649   8.765  0.1583 -0.3435 -0.0879
    1CHL1  H27A   72   5.527   5.623   8.683 -0.1539 -0.2013 -0.4005
    1CHL1  H27B   73   5.366   5.589   8.744 -0.3784  0.0895  0.9443
    1CHL1  H27C   74   5.434   5.758   8.765 -1.2463 -0.5254  3.3197
    2CHL1    C3   75   4.955   4.233  10.114  0.4558 -0.8015  0.5678
    2CHL1    H3   76   5.046   4.297  10.121  0.6154 -1.1665  2.2142
    2CHL1    O3   77   4.919   4.194  10.243 -0.3229 -0.0956 -0.1275
    2CHL1   H3'   78   4.827   4.218  10.255 -0.1687 -0.1778  1.5439
    2CHL1    C4   79   4.844   4.322  10.063 -0.0903  0.5233  0.5320
    2CHL1   H4A   80   4.748   4.268  10.081  0.0727  0.4000  1.0424
    2CHL1   H4B   81   4.832   4.414  10.123 -1.7697  1.7381 -1.5362
    2CHL1    C5   82   4.852   4.360   9.914  0.0882  0.4175  0.0414
    2CHL1    C6   83   4.848   4.484   9.876 -0.7776 -0.6038 -0.4052
    2CHL1    H6   84   4.831   4.561   9.952  1.0090 -0.8701  0.3101
    2CHL1    C7   85   4.876   4.536   9.735 -0.2808  0.0468 -0.2563
    2CHL1   H7A   86   4.814   4.623   9.706 -1.4146 -1.4039 -2.4394
    2CHL1   H7B   87   4.985   4.558   9.730 -0.2726  0.0459 -0.0897
    2CHL1    C8   88   4.871   4.422   9.626  0.2765 -0.8693  0.2423
    2CHL1    H8   89   4.765   4.398   9.603  0.6831  0.7733 -4.3037
    2CHL1   C14   90   4.930   4.468   9.493 -0.2042  0.0733  0.0437
    2CHL1   H14   91   5.038   4.481   9.514 -0.3022  0.9146  0.0507
    2CHL1   C15   92   4.876   4.601   9.442  0.1150  0.5204  0.3788
    2CHL1  H15A   93   4.766   4.611   9.442  0.1347  0.8285  1.4158
    2CHL1  H15B   94   4.917   4.680   9.509 -0.3030  1.0114  0.0648
    2CHL1   C16   95   4.925   4.598   9.299 -0.6670 -0.2965  0.5840
    2CHL1  H16A   96   4.850   4.636   9.226 -1.3658  1.0477  1.9554
    2CHL1  H16B   97   5.009   4.668   9.281  0.1826 -1.1029  1.3238
    2CHL1   C17   98   4.974   4.454   9.269  0.4014  0.9634  0.0707
    2CHL1   H17   99   5.081   4.480   9.278  0.4825  1.4382 -1.9429
    2CHL1   C13  100   4.921   4.366   9.386  0.0398 -0.1927  0.6876
    2CHL1   C18  101   4.772   4.324   9.369 -0.0405  0.4974 -0.4101
    2CHL1  H18A  102   4.711   4.414   9.346 -0.3920  0.2274 -0.5526
    2CHL1  H18B  103   4.759   4.259   9.280 -1.8014 -2.1846  1.6166
    2CHL1  H18C  104   4.723   4.279   9.459 -1.4413  1.6258 -0.5677
    2CHL1   C12  105   5.012   4.248   9.428  0.3161  0.4154 -0.6923
    2CHL1  H12A  106   5.002   4.168   9.351 -1.6538  0.3522 -0.4347
    2CHL1  H12B  107   5.117   4.276   9.449  0.1109  1.0678 -0.5231
    2CHL1   C11  108   4.954   4.196   9.566  0.1596 -0.5294 -0.6075
    2CHL1  H11A  109   4.863   4.134   9.555 -0.9463  0.9299 -0.0380
    2CHL1  H11B  110   5.033   4.125   9.598  0.5124 -0.3881 -1.1417
    2CHL1    C9  111   4.941   4.298   9.680  0.5140 -0.4665 -0.0609
    2CHL1    H9  112   5.040   4.337   9.711  0.1242 -1.2231  2.3519
    2CHL1   C10  113   4.885   4.248   9.814  0.4847 -0.3369  0.4016
    2CHL1   C19  114   4.746   4.179   9.792 -0.7741 -0.2550 -0.3253
    2CHL1  H19A  115   4.765   4.076   9.754 -1.6881  0.0457 -1.6539
    2CHL1  H19B  116   4.684   4.165   9.884 -1.2862  0.2386 -0.5906
    2CHL1  H19C  117   4.690   4.234   9.714  0.3023  2.0382  0.4505
    2CHL1    C1  118   4.987   4.151   9.870 -0.7500  0.5323 -0.2335
    2CHL1   H1A  119   5.007   4.056   9.817  1.8979  0.7366  0.2408
    2CHL1   H1B  120   5.088   4.197   9.871 -0.7790  0.6051 -0.7589
    2CHL1    C2  121   4.956   4.113  10.021 -0.8628  0.7697  0.6913
    2CHL1   H2A  122   5.040   4.056  10.066 -0.4215  1.3705  0.6578
    2CHL1   H2B  123   4.861   4.056  10.023  0.2667 -1.1844  0.7975
    2CHL1   C20  124   4.947   4.407   9.125  0.1818 -0.5575 -0.3161
    2CHL1   H20  125   4.841   4.382   9.104  0.1247  0.1652 -0.9118
    2CHL1   C21  126   5.021   4.268   9.104 -0.4834 -1.2585 -0.3802
    2CHL1  H21A  127   4.963   4.192   9.161 -0.1673 -1.5409 -0.4336
    2CHL1  H21B  128   5.127   4.282   9.132 -0.2323 -1.5668 -1.1355
    2CHL1  H21C  129   5.021   4.234   8.998  1.1155  0.3176 -0.9212
    2CHL1   C22  130   5.002   4.515   9.025  0.4160 -0.4927  0.3352
    2CHL1  H22A  131   5.064   4.582   9.087  0.0763 -1.9866  2.3972
    2CHL1  H22B  132   5.057   4.465   8.942  0.4117  1.7205 -1.0846
    2CHL1   C23  133   4.896   4.598   8.953  0.3034  0.2004  0.1631
    2CHL1  H23A  134   4.806   4.620   9.014  0.1507  0.3105 -0.1011
    2CHL1  H23B  135   4.943   4.692   8.917  1.2933 -0.3669 -0.0590
    2CHL1   C24  136   4.856   4.513   8.828  0.3060 -0.0584 -0.3583
    2CHL1  H24A  137   4.935   4.500   8.752 -0.1894  2.7934 -1.4862
    2CHL1  H24B  138   4.819   4.417   8.871 -1.0814  0.9618  0.8783
    2CHL1   C25  139   4.727   4.567   8.760 -0.2728 -0.9388 -0.9507
    2CHL1   H25  140   4.680   4.619   8.847  0.5887 -0.7236 -0.6006
    2CHL1   C26  141   4.761   4.659   8.644 -0.2573 -0.6744 -0.6108
    2CHL1  H26A  142   4.814   4.752   8.673 -2.0441  0.0625  0.4431
    2CHL1  H26B  143   4.824   4.603   8.572  3.2260  0.9020  1.0204
    2CHL1  H26C  144   4.673   4.691   8.583  0.6802  0.8026 -1.2360
    2CHL1   C27  145   4.637   4.455   8.704  0.2744  0.4502  0.4125
    2CHL1  H27A  146   4.678   4.404   8.614 -1.8424  0.6869 -0.7662
    2CHL1  H27B  147   4.630   4.371   8.775  0.6681 -0.2639 -0.3736
    2CHL1  H27C  148   4.540   4.501   8.675  0.6040  1.8806  1.4855
    3CHL1    C3  149   5.948   3.629  10.268 -0.4498 -0.3295 -0.4194
    3CHL1    H3  150   5.890   3.534  10.268  0.9689 -1.2308 -1.3738
    3CHL1    O3  151   5.998   3.664  10.404  0.1179  0.4515  0.6118
    3CHL1   H3'  152   6.058   3.736  10.386  0.5099  0.6169  2.4246
    3CHL1    C4  153   6.062   3.625  10.169  0.7470  0.0135 -0.8767
    3CHL1   H4A  154   6.114   3.724  10.167  0.7748  0.0235 -0.0658
    3CHL1   H4B  155   6.151   3.572  10.209  0.5234  0.4383  0.2342
    3CHL1    C5  156   6.015   3.591  10.025 -0.2548  0.6130  0.1131
    3CHL1    C6  157   6.066   3.480   9.958  0.1708 -0.3168  0.0279
    3CHL1    H6  158   6.132   3.407  10.007  0.1032 -0.5371 -0.2090
    3CHL1    C7  159   6.028   3.441   9.817  0.3243 -0.2733 -0.4999
    3CHL1   H7A  160   6.121   3.408   9.766  1.0052 -0.0253  0.5543
    3CHL1   H7B  161   5.956   3.356   9.819  0.5087 -0.5230 -2.2373
    3CHL1    C8  162   5.958   3.561   9.749  0.3326  0.3258 -0.1445
    3CHL1    H8  163   6.026   3.644   9.719 -0.3798  0.7726 -0.5532
    3CHL1   C14  164   5.894   3.505   9.624  0.1792 -0.8249 -0.0150
    3CHL1   H14  165   5.815   3.435   9.656 -1.7192  1.6939  1.1549
    3CHL1   C15  166   5.990   3.435   9.523 -0.4314  0.2093  0.0736
    3CHL1  H15A  167   6.081   3.495   9.504  0.1923 -0.4513  0.9407
    3CHL1  H15B  168   6.023   3.337   9.564  2.0154  0.6794 -0.6581
    3CHL1   C16  169   5.900   3.431   9.397  0.4132  0.2769 -0.3491
    3CHL1  H16A  170   5.954   3.450   9.302 -0.8963 -0.3386 -1.2422
    3CHL1  H16B  171   5.858   3.328   9.394 -0.0186  0.4058  0.7335
    3CHL1   C17  172   5.774   3.522   9.420 -0.1192 -1.0278 -0.0875
    3CHL1   H17  173   5.704   3.441   9.450  1.3492 -2.5812 -0.6843
    3CHL1   C13  174   5.815   3.608   9.541 -0.3992  0.0637 -0.0437
    3CHL1   C18  175   5.904   3.717   9.490  0.4650 -0.0429 -0.4514
    3CHL1  H18A  176   5.990   3.690   9.424  2.0424  0.5646  1.2787
    3CHL1  H18B  177   5.846   3.788   9.427 -0.4896  0.6275  1.1380
    3CHL1  H18C  178   5.957   3.774   9.569 -0.6922  1.1317 -0.4806
    3CHL1   C12  179   5.700   3.649   9.633 -0.1982  0.7878 -0.1493
    3CHL1  H12A  180   5.636   3.730   9.592  0.3841  0.9138 -0.8367
    3CHL1  H12B  181   5.630   3.568   9.661 -1.6460  2.1433  0.2961
    3CHL1   C11  182   5.756   3.710   9.764  0.7133  0.1307 -0.3537
    3CHL1  H11A  183   5.802   3.807   9.735  0.7059  0.3444  0.3281
    3CHL1  H11B  184   5.679   3.742   9.838 -0.5379  2.1077 -2.3885
    3CHL1    C9  185   5.855   3.622   9.845  0.3210 -0.0780 -0.1018
    3CHL1    H9  186   5.789   3.546   9.893 -1.7735 -0.1365 -2.8541
    3CHL1   C10  187   5.923   3.685   9.967  0.6235 -0.4606 -1.0721
    3CHL1   C19  188   6.004   3.809   9.932 -0.0673  0.6680  0.3109
    3CHL1  H19A  189   5.946   3.888   9.880 -0.0395  1.7004  1.7839
    3CHL1  H19B  190   6.042   3.868  10.018 -0.5215  1.5964 -0.1127
    3CHL1  H19C  191   6.093   3.782   9.872  0.9904  0.2390  2.0132
    3CHL1    C1  192   5.811   3.722  10.072 -0.3370 -0.1834 -0.9706
    3CHL1   H1A  193   5.757   3.817  10.050  0.9972  1.4700  2.1654
    3CHL1   H1B  194   5.734   3.643  10.077  0.3735 -0.8535 -0.5084
    3CHL1    C2  195   5.859   3.741  10.223  0.7042  0.1241  0.2695
    3CHL1   H2A  196   5.774   3.755  10.293  2.1511  3.5166  1.5913
    3CHL1   H2B  197   5.909   3.837  10.249 -2.3203  1.6054  1.0797
    3CHL1   C20  198   5.726   3.587   9.294 -0.0714  0.1509  0.4899
    3CHL1   H20  199   5.804   3.650   9.245  1.0850  0.1225  2.1988
    3CHL1   C21  200   5.603   3.673   9.331  0.1262 -0.2607 -0.0449
    3CHL1  H21A  201   5.641   3.758   9.392  0.3660  0.2503 -0.8854
    3CHL1  H21B  202   5.538   3.604   9.389  0.2015 -0.5985 -0.3613
    3CHL1  H21C  203   5.560   3.714   9.237  1.4335  1.0270 -0.1269
    3CHL1   C22  204   5.676   3.484   9.183 -0.4698  0.1450 -0.3204
    3CHL1  H22A  205   5.762   3.420   9.152 -0.9374 -1.6233  1.8263
    3CHL1  H22B  206   5.602   3.413   9.226  1.7857 -1.2762  1.4595
    3CHL1   C23  207   5.625   3.548   9.049 -0.3431 -0.0766 -0.0967
    3CHL1  H23A  208   5.522   3.582   9.072 -0.3828 -0.1301 -0.1942
    3CHL1  H23B  209   5.697   3.631   9.034  1.4567 -1.7111 -0.8141
    3CHL1   C24  210   5.631   3.456   8.924 -0.2067 -0.3026  0.4217
    3CHL1  H24A  211   5.727   3.402   8.926 -0.5633 -0.9321  1.2932
    3CHL1  H24B  212   5.556   3.377   8.948  1.6484 -2.1916  0.3041
    3CHL1   C25  213   5.606   3.516   8.779  0.4017 -1.3608 -0.0094
    3CHL1   H25  214   5.697   3.578   8.761 -0.2673 -0.3865 -0.0864
    3CHL1   C26  215   5.600   3.402   8.678  0.4854  0.9532 -0.1277
    3CHL1  H26A  216   5.538   3.429   8.590 -1.5650 -0.7842  0.6946
    3CHL1  H26B  217   5.702   3.365   8.654 -0.3134 -1.0169 -0.6746
    3CHL1  H26C  218   5.534   3.325   8.723 -1.5898  2.8204  0.1794
    3CHL1   C27  219   5.482   3.610   8.772 -0.0386 -1.0208  0.0523
    3CHL1  H27A  220   5.386   3.557   8.787 -0.0647 -0.2703  3.2484
    3CHL1  H27B  221   5.480   3.681   8.857 -3.1097 -2.3756  1.2416
    3CHL1  H27C  222   5.488   3.662   8.673  0.3738 -0.8916  0.1438
    4CHL1    C3  223   5.714   5.309  10.413 -0.2145 -0.1171 -0.1800
    4CHL1    H3  224   5.626   5.376  10.409  0.8860  1.3719 -0.5889
    4CHL1    O3  225   5.729   5.229  10.528  0.0533 -0.4545  0.1142
    4CHL1   H3'  226   5.795   5.168  10.495  1.2132  1.1408 -0.6591
    4CHL1    C4  227   5.710   5.221  10.284 -0.8666 -0.3404 -0.2351
    4CHL1   H4A  228   5.792   5.147  10.274 -1.0742 -0.8831  1.5860
    4CHL1   H4B  229   5.619   5.160  10.304 -1.3414  0.1918 -0.7585
    4CHL1    C5  230   5.702   5.301  10.152 -0.2826  0.2248  0.3829
    4CHL1    C6  231   5.609   5.276  10.059 -0.4442  0.5689 -0.5243
    4CHL1    H6  232   5.540   5.195  10.088  0.4517  1.0300  3.5332
    4CHL1    C7  233   5.601   5.353   9.930 -0.1729 -0.4209 -0.4024
    4CHL1   H7A  234   5.577   5.285   9.846 -0.4094  0.5724 -1.1578
    4CHL1   H7B  235   5.518   5.427   9.942  2.4983  3.1872 -2.3415
    4CHL1    C8  236   5.723   5.430   9.892  0.7699 -0.4156 -0.0212
    4CHL1    H8  237   5.800   5.367   9.844  0.5498  0.5048 -1.6569
    4CHL1   C14  238   5.674   5.533   9.797  0.4721 -0.0148 -0.0580
    4CHL1   H14  239   5.590   5.587   9.846 -0.6743 -0.4815 -1.4354
    4CHL1   C15  240   5.598   5.486   9.667  0.1705 -0.2305 -0.1428
    4CHL1  H15A  241   5.662   5.412   9.616  2.1465  0.4693  1.1850
    4CHL1  H15B  242   5.495   5.447   9.680  0.0196 -0.8291 -2.6802
    4CHL1   C16  243   5.591   5.613   9.580 -0.0306 -0.3136 -0.4385
    4CHL1  H16A  244   5.632   5.587   9.480  2.2976  0.4285  0.2481
    4CHL1  H16B  245   5.487   5.650   9.568  0.1702 -0.3133 -2.3990
    4CHL1   C17  246   5.683   5.716   9.654  0.0991  0.1184  0.3056
    4CHL1   H17  247   5.614   5.775   9.718  2.2569  0.4356  2.4978
    4CHL1   C13  248   5.769   5.633   9.755  0.5242  0.1847 -0.0754
    4CHL1   C18  249   5.885   5.567   9.679  0.8913  0.2736  0.4907
    4CHL1  H18A  250   5.959   5.638   9.637 -0.7086  1.5021 -0.3433
    4CHL1  H18B  251   5.942   5.498   9.745 -0.6898 -0.6790  0.9132
    4CHL1  H18C  252   5.854   5.510   9.589 -0.5960  1.2150  0.3817
    4CHL1   C12  253   5.832   5.705   9.875 -0.2759 -0.4034 -0.0773
    4CHL1  H12A  254   5.915   5.773   9.844 -0.9887 -0.7975 -3.0734
    4CHL1  H12B  255   5.762   5.780   9.919  0.6915  0.0313  0.7746
    4CHL1   C11  256   5.884   5.608   9.984 -0.4840 -0.1442 -0.1652
    4CHL1  H11A  257   5.965   5.543   9.945 -1.5132 -2.0709  0.7620
    4CHL1  H11B  258   5.912   5.672  10.070  0.6759  2.3078 -2.2370
    4CHL1    C9  259   5.773   5.507  10.018 -0.4396  0.0112 -0.5269
    4CHL1    H9  260   5.696   5.575  10.061  1.1756  0.9415  0.9855
    4CHL1   C10  261   5.809   5.406  10.139 -0.5602 -0.4410 -0.0038
    4CHL1   C19  262   5.947   5.337  10.107  0.3292  0.1654 -0.1997
    4CHL1  H19A  263   6.029   5.411  10.103  1.8387 -1.3593  0.9383
    4CHL1  H19B  264   5.972   5.259  10.182  1.8177  0.9615  0.1663
    4CHL1  H19C  265   5.948   5.295  10.004 -0.3522  2.1630 -1.0737
    4CHL1    C1  266   5.823   5.489  10.279 -0.2123 -0.1584  0.5793
    4CHL1   H1A  267   5.913   5.554  10.282 -0.8020  0.7108 -0.0667
    4CHL1   H1B  268   5.736   5.558  10.286  0.7558  1.0798  0.8380
    4CHL1    C2  269   5.832   5.400  10.401 -0.7711  0.0048  0.0072
    4CHL1   H2A  270   5.830   5.464  10.492 -1.7928  1.3915 -0.9607
    4CHL1   H2B  271   5.926   5.340  10.400 -1.0309 -0.4203 -2.1038
    4CHL1   C20  272   5.762   5.819   9.566  0.1519  0.1955 -0.1327
    4CHL1   H20  273   5.859   5.850   9.609  0.7256  0.2486 -1.4199
    4CHL1   C21  274   5.683   5.948   9.563  0.3042 -0.4267 -0.2541
    4CHL1  H21A  275   5.731   6.024   9.499  2.8800 -1.1671  0.6712
    4CHL1  H21B  276   5.676   5.977   9.670  0.6386  1.3781 -0.6914
    4CHL1  H21C  277   5.578   5.932   9.531 -0.9322  1.5121  2.4084
    4CHL1   C22  278   5.807   5.766   9.429 -0.5077  0.0587  0.0753
    4CHL1  H22A  279   5.867   5.673   9.438  1.2593  1.0077 -1.2157
    4CHL1  H22B  280   5.717   5.746   9.366 -1.1034  1.4507  0.4556
    4CHL1   C23  281   5.897   5.867   9.347  1.1774  0.0325  0.4017
    4CHL1  H23A  282   5.884   5.837   9.241  1.5620  0.0028  0.3638
    4CHL1  H23B  283   5.856   5.970   9.349  2.5466  0.6175 -0.3518
    4CHL1   C24  284   6.051   5.854   9.372  0.1875  0.0118  0.7997
    4CHL1  H24A  285   6.063   5.841   9.482 -1.8995 -1.7396  0.8986
    4CHL1  H24B  286   6.098   5.767   9.322 -1.1250  1.7460 -3.9316
    4CHL1   C25  287   6.133   5.984   9.348 -0.2203 -0.2551  0.1483
    4CHL1   H25  288   6.095   6.067   9.411  0.8452  0.5238 -0.2247
    4CHL1   C26  289   6.281   5.954   9.370  0.3370 -0.3858  0.0785
    4CHL1  H26A  290   6.297   5.890   9.459  1.3804 -0.4729 -0.1580
    4CHL1  H26B  291   6.326   5.910   9.278  0.9450  0.3457  0.0166
    4CHL1  H26C  292   6.334   6.050   9.388  0.2740 -0.3641  0.1490
    4CHL1   C27  293   6.099   6.032   9.203 -0.4134 -0.4620  0.3349
    4CHL1  H27A  294   5.996   6.073   9.197  0.0269  0.5842 -0.5122
    4CHL1  H27B  295   6.164   6.118   9.174 -1.1143  0.3692  1.1644
    4CHL1  H27C  296   6.113   5.945   9.135  0.9700  0.3259 -0.4443
    5CHL1    C3  297   0.398   3.650  10.196  0.8074  0.1962 -0.0187
    5CHL1    H3  298   0.500   3.692  10.210  0.9251 -0.0950 -0.0032
    5CHL1    O3  299   0.352   3.616  10.333 -0.5674  0.2404  0.2373
    5CHL1   H3'  300   0.290   3.544  10.321 -1.4896  0.9518  0.6201
    5CHL1    C4  301   0.293   3.746  10.132  0.0547 -0.4971  0.1638
    5CHL1   H4A  302   0.195   3.706  10.163  0.7823 -0.1334  3.2694
    5CHL1   H4B  303   0.322   3.843  10.180  0.8016 -0.3295 -0.5924
    5CHL1    C5  304   0.322   3.769   9.982 -0.3790  0.4780 -0.4490
    5CHL1    C6  305   0.329   3.892   9.921  0.0785  0.0377 -0.0094
    5CHL1    H6  306   0.319   3.979   9.988  0.6004 -0.4598  0.7411
    5CHL1    C7  307   0.331   3.917   9.772  0.0460  0.3171  0.3259
    5CHL1   H7A  308   0.251   3.988   9.742 -2.2541 -1.7366  1.3052
    5CHL1   H7B  309   0.435   3.951   9.753  0.1158 -0.3294 -0.4722
    5CHL1    C8  310   0.310   3.788   9.688  0.4309 -0.1335 -0.0895
    5CHL1    H8  311   0.199   3.776   9.685  0.0314  2.3656  1.5637
    5CHL1   C14  312   0.378   3.808   9.547  0.8392 -0.5081  1.0859
    5CHL1   H14  313   0.486   3.808   9.573  1.7381  0.5485 -2.2862
    5CHL1   C15  314   0.363   3.942   9.470 -0.0702  0.1226 -0.3626
    5CHL1  H15A  315   0.257   3.966   9.490 -0.2744 -0.8489 -0.2150
    5CHL1  H15B  316   0.431   4.018   9.514 -0.6897 -0.2789  1.3554
    5CHL1   C16  317   0.388   3.901   9.325 -0.1932  0.1034 -0.3713
    5CHL1  H16A  318   0.295   3.929   9.270  0.0086  2.1537  0.2536
    5CHL1  H16B  319   0.468   3.957   9.272 -0.7730  1.2657 -0.0513
    5CHL1   C17  320   0.416   3.747   9.322  0.1707 -0.7536  0.5352
    5CHL1   H17  321   0.525   3.735   9.342  0.2714  1.1976  1.3396
    5CHL1   C13  322   0.352   3.692   9.451  0.1911 -0.0543 -1.0773
    5CHL1   C18  323   0.193   3.672   9.429  0.2603  0.8098 -0.7972
    5CHL1  H18A  324   0.139   3.658   9.525  0.2738 -1.4404 -1.0630
    5CHL1  H18B  325   0.159   3.759   9.369  0.3404 -0.5551 -2.9161
    5CHL1  H18C  326   0.179   3.586   9.359  2.7790  0.1684 -0.6147
    5CHL1   C12  327   0.415   3.572   9.515 -0.1808  0.3786 -0.0781
    5CHL1  H12A  328   0.391   3.488   9.447 -0.8366  0.3835  0.1370
    5CHL1  H12B  329   0.526   3.566   9.516 -0.2393 -2.4777 -1.4810
    5CHL1   C11  330   0.359   3.545   9.658 -0.1673 -0.8984  0.6241
    5CHL1  H11A  331   0.251   3.519   9.661 -0.3820 -0.1643 -0.2321
    5CHL1  H11B  332   0.419   3.464   9.703  0.5717 -0.3684  0.6073
    5CHL1    C9  333   0.377   3.666   9.752  0.0406 -0.4390 -0.3523
    5CHL1    H9  334   0.486   3.685   9.763  0.5560 -1.9571 -2.2512
    5CHL1   C10  335   0.331   3.644   9.894  0.6556  0.2401 -0.3496
    5CHL1   C19  336   0.189   3.587   9.900  0.2236 -0.1894 -0.2654
    5CHL1  H19A  337   0.151   3.574  10.004  4.3081 -4.1177  1.0613
    5CHL1  H19B  338   0.128   3.667   9.854  0.1970  0.3099  0.6181
    5CHL1  H19C  339   0.177   3.488   9.852  0.9831 -0.6210  0.4056
    5CHL1    C1  340   0.446   3.565   9.971  0.3620 -0.5567  0.0373
    5CHL1   H1A  341   0.456   3.471   9.913 -0.3048  0.0289 -1.0627
    5CHL1   H1B  342   0.543   3.620   9.968  0.3178 -0.4854 -0.1035
    5CHL1    C2  343   0.401   3.529  10.108  0.1412  0.5287  0.0484
    5CHL1   H2A  344   0.468   3.455  10.155 -3.1522 -2.0274  1.1437
    5CHL1   H2B  345   0.305   3.473  10.109 -0.1779  1.0586  1.4285
    5CHL1   C20  346   0.384   3.691   9.178 -0.0594 -0.4560 -0.6006
    5CHL1   H20  347   0.276   3.707   9.155  0.2570  1.1533 -1.0777
    5CHL1   C21  348   0.402   3.543   9.167  0.5263 -0.2278  0.0169
    5CHL1  H21A  349   0.508   3.509   9.175  1.0015  1.2063  0.3102
    5CHL1  H21B  350   0.363   3.511   9.069 -0.4945  3.4662 -0.9668
    5CHL1  H21C  351   0.340   3.490   9.242  1.3206 -1.1762  0.0333
    5CHL1   C22  352   0.457   3.763   9.062  0.3016 -0.1548 -0.2576
    5CHL1  H22A  353   0.433   3.871   9.072 -1.3782 -0.3299 -1.7438
    5CHL1  H22B  354   0.565   3.748   9.082 -0.0916 -2.3289  0.5788
    5CHL1   C23  355   0.423   3.719   8.926  0.4625 -1.1210 -0.0785
    5CHL1  H23A  356   0.460   3.616   8.908  0.4783 -1.1086 -0.1181
    5CHL1  H23B  357   0.314   3.704   8.909  0.4468 -1.2350  0.1276
    5CHL1   C24  358   0.483   3.812   8.816  0.1140 -0.6603  0.0224
    5CHL1  H24A  359   0.451   3.919   8.816  1.0332 -0.3738  0.1227
    5CHL1  H24B  360   0.594   3.814   8.830  0.0839  1.3935  0.3138
    5CHL1   C25  361   0.448   3.762   8.674  0.0738 -0.4119  0.0515
    5CHL1   H25  362   0.493   3.661   8.676  3.8982  1.0920  1.7568
    5CHL1   C26  363   0.299   3.752   8.639 -0.2854 -0.9828  0.1592
    5CHL1  H26A  364   0.254   3.853   8.637  2.5927  0.4056  0.3711
    5CHL1  H26B  365   0.281   3.698   8.543 -0.2149  2.4288 -1.9327
    5CHL1  H26C  366   0.234   3.702   8.714  0.1264 -0.3279  0.9672
    5CHL1   C27  367   0.532   3.843   8.565  0.1490  0.6294 -0.1020
    5CHL1  H27A  368   0.481   3.939   8.542 -0.7816  0.0962 -0.3553
    5CHL1  H27B  369   0.640   3.861   8.582  0.4663 -1.0114 -0.2068
    5CHL1  H27C  370   0.526   3.770   8.481 -2.9241 -0.3302  0.7992
    6CHL1    C3  371   3.932   0.914  10.176  0.1508 -0.3327  0.0990
    6CHL1    H3  372   3.864   0.833  10.143 -0.2016  0.6736 -1.7959
    6CHL1    O3  373   3.927   0.910  10.321 -0.6358  0.2492 -0.0145
    6CHL1   H3'  374   3.973   0.990  10.346  0.3328  0.4973 -2.2964
    6CHL1    C4  375   4.070   0.888  10.120  0.3013 -0.1685  0.6284
    6CHL1   H4A  376   4.136   0.972  10.148  0.3685  0.0916 -0.2754
    6CHL1   H4B  377   4.105   0.799  10.177  0.1911 -1.6373 -1.4808
    6CHL1    C5  378   4.071   0.874   9.971  0.5494 -0.0933  0.0315
    6CHL1    C6  379   4.098   0.760   9.906  0.1972 -0.2752 -0.3076
    6CHL1    H6  380   4.113   0.669   9.965  1.0477 -0.8015 -1.2934
    6CHL1    C7  381   4.102   0.752   9.756 -0.0795  0.0909  0.7470
    6CHL1   H7A  382   4.182   0.688   9.711  1.9161  1.6436  1.9206
    6CHL1   H7B  383   4.010   0.701   9.720  0.2180  0.2222 -0.2370
    6CHL1    C8  384   4.106   0.890   9.678  0.7143  0.0536  0.1955
    6CHL1    H8  385   4.207   0.935   9.677  1.6555 -1.8309  2.4476
    6CHL1   C14  386   4.060   0.869   9.532 -0.4030  0.1018  0.0744
    6CHL1   H14  387   3.953   0.840   9.536 -0.4934  0.4825  0.5032
    6CHL1   C15  388   4.134   0.761   9.444  0.0419  1.1267 -0.1294
    6CHL1  H15A  389   4.244   0.770   9.445  0.3034 -0.9405 -2.2360
    6CHL1  H15B  390   4.100   0.663   9.485  3.6964 -1.0728 -1.8639
    6CHL1   C16  391   4.090   0.793   9.304 -0.1181  0.5987  0.5127
    6CHL1  H16A  392   4.180   0.784   9.240  0.1895  1.4384  0.8251
    6CHL1  H16B  393   4.010   0.734   9.254  1.0115 -1.2623  0.7879
    6CHL1   C17  394   4.028   0.935   9.307  0.4300 -0.1446 -0.1335
    6CHL1   H17  395   3.920   0.914   9.322  0.2833  1.3594  1.1981
    6CHL1   C13  396   4.060   0.998   9.449  0.2562  0.3876 -0.2196
    6CHL1   C18  397   4.200   1.066   9.441 -0.2459 -0.7004  0.2460
    6CHL1  H18A  398   4.196   1.164   9.389 -1.0063  0.4399  2.3355
    6CHL1  H18B  399   4.213   1.112   9.542 -2.7866 -0.4860  0.5526
    6CHL1  H18C  400   4.287   1.012   9.399 -1.0852 -0.1691 -2.3373
    6CHL1   C12  401   3.958   1.095   9.513 -0.5434 -0.1699 -0.6751
    6CHL1  H12A  402   3.976   1.199   9.480 -0.1504 -0.7226 -2.2807
    6CHL1  H12B  403   3.854   1.054   9.506 -0.7081  0.0522  0.3448
    6CHL1   C11  404   3.986   1.117   9.664 -0.6410 -0.5290  0.2557
    6CHL1  H11A  405   4.068   1.190   9.684 -1.9860  0.8290  1.0063
    6CHL1  H11B  406   3.894   1.168   9.698  0.8708  1.0756  2.2646
    6CHL1    C9  407   3.999   0.983   9.741 -0.4513 -0.0337 -0.5859
    6CHL1    H9  408   3.904   0.927   9.723 -0.2356 -0.5769 -0.0375
    6CHL1   C10  409   4.022   1.002   9.894 -0.0157 -0.1749 -0.1135
    6CHL1   C19  410   4.115   1.121   9.914 -0.5303  0.1523  0.6719
    6CHL1  H19A  411   4.074   1.222   9.892  0.8260  0.0768 -2.9694
    6CHL1  H19B  412   4.142   1.127  10.021  0.6552  2.3958  0.3088
    6CHL1  H19C  413   4.209   1.111   9.854 -1.5719 -0.1708 -0.9797
    6CHL1    C1  414   3.884   1.038   9.956 -0.3993 -0.0894 -0.2041
    6CHL1   H1A  415   3.858   1.141   9.925  1.5598  0.2136 -0.9419
    6CHL1   H1B  416   3.808   0.958   9.941  0.7351 -1.4226  0.8451
    6CHL1    C2  417   3.881   1.050  10.111 -0.2984 -0.5211  0.0738
    6CHL1   H2A  418   3.774   1.053  10.143 -0.0316  0.5525  0.9257
    6CHL1   H2B  419   3.934   1.142  10.143  1.1988 -0.6357 -1.9436
    6CHL1   C20  420   4.035   1.007   9.172  0.2878  0.3808 -0.2148
    6CHL1   H20  421   4.143   1.021   9.154 -0.0608  0.4535 -2.6018
    6CHL1   C21  422   3.990   1.150   9.193 -0.2934  0.2018 -0.7292
    6CHL1  H21A  423   3.987   1.200   9.094  2.2446  1.0696 -0.4420
    6CHL1  H21B  424   4.062   1.220   9.240  1.3675 -1.2772 -0.9333
    6CHL1  H21C  425   3.893   1.161   9.246  0.4789  2.4170  0.3477
    6CHL1   C22  426   3.962   0.939   9.055  0.1619 -0.2683  0.2043
    6CHL1  H22A  427   3.985   1.002   8.966  0.2347  0.3640  0.6629
    6CHL1  H22B  428   4.012   0.841   9.039  1.7730  0.7036 -1.0189
    6CHL1   C23  429   3.811   0.928   9.072 -0.4174 -0.0192 -0.2545
    6CHL1  H23A  430   3.778   0.858   9.151 -0.2694 -1.2858 -1.2893
    6CHL1  H23B  431   3.767   1.024   9.107  1.1392 -0.1082  2.2707
    6CHL1   C24  432   3.754   0.875   8.943  0.8084 -0.2414 -0.0693
    6CHL1  H24A  433   3.799   0.925   8.854 -3.0594  2.0508 -0.9631
    6CHL1  H24B  434   3.763   0.764   8.939 -2.8996 -0.7825  2.0441
    6CHL1   C25  435   3.605   0.904   8.927  0.3915  0.4773 -0.0136
    6CHL1   H25  436   3.589   1.011   8.950  0.3590  0.8771 -1.7230
    6CHL1   C26  437   3.567   0.861   8.781 -1.1576 -0.0637  0.3933
    6CHL1  H26A  438   3.571   0.751   8.776 -0.4840 -0.0083 -0.5990
    6CHL1  H26B  439   3.460   0.887   8.764 -0.9183 -0.3217 -1.7786
    6CHL1  H26C  440   3.639   0.911   8.713  1.0063 -1.2160  1.7276
    6CHL1   C27  441   3.520   0.821   9.024 -0.7021  0.4631  0.1556
    6CHL1  H27A  442   3.541   0.831   9.132 -2.7934 -0.3856  0.6944
    6CHL1  H27B  443   3.414   0.853   9.012 -0.6703  0.8208  0.8004
    6CHL1  H27C  444   3.535   0.716   8.991 -0.0816  0.5142  0.2749
    7CHL1    C3  445   0.840   3.957  10.412 -0.0585 -0.0413 -0.2877
    7CHL1    H3  446   0.943   3.918  10.405 -0.3112 -0.7793  0.0964
    7CHL1    O3  447   0.797   3.957  10.543  0.0553  1.0796 -0.3007
    7CHL1   H3'  448   0.722   3.898  10.534  1.6501 -0.8373 -1.6706
    7CHL1    C4  449   0.843   4.096  10.347  0.4008 -0.0943  0.4890
    7CHL1   H4A  450   0.754   4.159  10.366 -1.3551 -1.6253 -2.0756
    7CHL1   H4B  451   0.928   4.156  10.387  1.3078  0.3199 -1.8843
    7CHL1    C5  452   0.870   4.096  10.196 -0.8872 -0.4444  0.5523
    7CHL1    C6  453   0.978   4.162  10.143  0.5077  0.3765  0.0006
    7CHL1    H6  454   1.036   4.223  10.214 -2.4734  2.0456  1.2135
    7CHL1    C7  455   0.999   4.186   9.992 -0.4198  0.3574  0.5210
    7CHL1   H7A  456   1.007   4.296   9.975  1.9917  0.3480  1.1322
    7CHL1   H7B  457   1.092   4.136   9.957 -0.7411  0.8098 -1.0967
    7CHL1    C8  458   0.877   4.130   9.904  0.2512  0.0887 -0.7569
    7CHL1    H8  459   0.799   4.209   9.910  1.4255  1.2289 -0.0014
    7CHL1   C14  460   0.918   4.105   9.765  0.0246 -0.0130  0.4960
    7CHL1   H14  461   0.992   4.022   9.764 -0.4336 -0.4691 -1.5898
    7CHL1   C15  462   0.999   4.216   9.694  0.2473  0.0743 -0.7677
    7CHL1  H15A  463   0.969   4.317   9.730  1.3675  0.2921 -0.4074
    7CHL1  H15B  464   1.105   4.204   9.722 -0.1860 -0.3108  0.8334
    7CHL1   C16  465   0.978   4.187   9.548 -0.4875 -0.0842  0.7496
    7CHL1  H16A  466   0.929   4.274   9.498 -0.2977  0.5132  1.5864
    7CHL1  H16B  467   1.068   4.166   9.486 -1.3227  0.2673 -0.6271
    7CHL1   C17  468   0.890   4.060   9.529  0.0324 -0.0431  0.6957
    7CHL1   H17  469   0.961   3.977   9.547 -0.0567 -0.3172 -0.1946
    7CHL1   C13  470   0.810   4.063   9.661 -1.3541  0.1007  0.4518
    7CHL1   C18  471   0.701   4.168   9.655 -0.9359  0.1650 -0.2380
    7CHL1  H18A  472   0.642   4.165   9.749  0.9291  2.5849  1.1241
    7CHL1  H18B  473   0.743   4.271   9.657 -0.9875  0.1817  1.3955
    7CHL1  H18C  474   0.637   4.146   9.567  0.0963 -3.6003 -0.1870
    7CHL1   C12  475   0.755   3.928   9.716  0.4385  1.2784  0.8280
    7CHL1  H12A  476   0.668   3.891   9.656  0.4830 -0.0375  1.5290
    7CHL1  H12B  477   0.833   3.849   9.712 -0.1373  0.7385 -0.8207
    7CHL1   C11  478   0.713   3.936   9.869 -0.6675 -1.2567 -0.6657
    7CHL1  H11A  479   0.621   3.998   9.871  1.5002  2.2648 -0.3046
    7CHL1  H11B  480   0.685   3.837   9.911 -1.5964 -1.2090 -1.1599
    7CHL1    C9  481   0.817   3.998   9.965 -0.3589 -0.0225  0.3988
    7CHL1    H9  482   0.895   3.920   9.954 -1.3501 -0.7676 -2.3988
    7CHL1   C10  483   0.771   4.018  10.111 -0.2395 -0.8224  0.6958
    7CHL1   C19  484   0.625   4.078  10.112 -0.4684 -0.2364  0.5511
    7CHL1  H19A  485   0.616   4.162  10.039  0.8803  1.0295  1.7678
    7CHL1  H19B  486   0.546   4.004  10.089  0.1535  0.0001 -2.8181
    7CHL1  H19C  487   0.598   4.126  10.209  1.1286 -0.7024  1.2551
    7CHL1    C1  488   0.779   3.878  10.179 -0.3927  0.5213  0.1439
    7CHL1   H1A  489   0.700   3.821  10.126 -1.5938  0.4595  1.8900
    7CHL1   H1B  490   0.877   3.830  10.161 -0.3285  1.3250 -1.8799
    7CHL1    C2  491   0.743   3.871  10.335  0.5840 -0.5318  0.1561
    7CHL1   H2A  492   0.747   3.764  10.363 -1.9898 -1.3138 -1.9827
    7CHL1   H2B  493   0.638   3.908  10.342  0.9404  0.3704  0.9118
    7CHL1   C20  494   0.822   4.036   9.397  0.4486  0.3141  0.7356
    7CHL1   H20  495   0.754   4.120   9.372  2.8705  2.3469  0.7110
    7CHL1   C21  496   0.735   3.911   9.408 -0.6002 -0.0791  0.2705
    7CHL1  H21A  497   0.798   3.842   9.469  0.7899 -1.3513 -2.4308
    7CHL1  H21B  498   0.706   3.854   9.317 -0.6176  1.2651 -0.5818
    7CHL1  H21C  499   0.645   3.936   9.467 -1.0195 -1.8126  0.4323
    7CHL1   C22  500   0.931   4.020   9.286 -0.2038 -0.3287  0.6994
    7CHL1  H22A  501   1.005   4.101   9.300 -0.7803  0.8463 -2.3155
    7CHL1  H22B  502   0.992   3.927   9.291  1.5844  0.4794 -2.7478
    7CHL1   C23  503   0.872   4.042   9.142  1.0497  0.5948  0.4336
    7CHL1  H23A  504   0.789   3.971   9.127  0.2268  1.5654  0.2888
    7CHL1  H23B  505   0.826   4.143   9.134  2.1229  1.0594 -0.2588
    7CHL1   C24  506   0.978   4.014   9.029  0.5666 -0.3441 -0.1191
    7CHL1  H24A  507   0.994   4.109   8.974 -1.0026 -0.0268 -0.0608
    7CHL1  H24B  508   1.077   3.985   9.071  1.0043  0.4469 -0.5875
    7CHL1   C25  509   0.935   3.916   8.916  0.2565 -0.1074  0.1608
    7CHL1   H25  510   0.881   3.830   8.961  1.3988 -0.7394  0.3724
    7CHL1   C26  511   0.825   3.989   8.833 -0.2850 -0.5219 -0.0694
    7CHL1  H26A  512   0.791   3.911   8.761  0.0095 -1.0961  0.4040
    7CHL1  H26B  513   0.744   4.019   8.904  0.6015  0.6781  0.4666
    7CHL1  H26C  514   0.870   4.079   8.787  0.3670 -0.7193  0.1687
    7CHL1   C27  515   1.050   3.868   8.826  0.3747  0.8787 -0.2269
    7CHL1  H27A  516   1.122   3.800   8.877 -1.5128 -0.6693  0.4778
    7CHL1  H27B  517   1.015   3.801   8.745  3.1621 -1.4843  0.3448
    7CHL1  H27C  518   1.114   3.945   8.778  1.4992 -1.4969 -2.8385
    8CHL1    C3  519   0.246   6.748  10.195  0.1752  0.5450 -0.1954
    8CHL1    H3  520   0.241   6.843  10.138  4.0106  2.6041  2.4058
    8CHL1    O3  521   0.259   6.790  10.334 -0.8526  0.1429 -0.0649
    8CHL1   H3'  522   0.346   6.831  10.332 -0.8002  0.0213 -2.5641
    8CHL1    C4  523   0.114   6.668  10.183  0.1505  0.8470  0.0373
    8CHL1   H4A  524   0.131   6.577  10.244  0.2093  0.8307 -0.0030
    8CHL1   H4B  525   0.023   6.714  10.228 -1.1500 -2.2988  0.8972
    8CHL1    C5  526   0.085   6.629  10.032 -0.2057  0.1137 -0.1767
    8CHL1    C6  527  -0.024   6.675   9.965  0.2907  0.6493  0.3879
    8CHL1    H6  528  -0.102   6.728  10.023 -0.3825 -1.0691  1.1108
    8CHL1    C7  529  -0.058   6.642   9.822  0.3791  0.1869 -0.0187
    8CHL1   H7A  530  -0.159   6.596   9.813  0.0970  0.8711 -0.3932
    8CHL1   H7B  531  -0.061   6.735   9.762 -2.3740 -0.3350 -0.8378
    8CHL1    C8  532   0.052   6.547   9.769 -0.9871 -0.3663 -0.9875
    8CHL1    H8  533   0.027   6.442   9.795  0.4397 -0.3174  0.7734
    8CHL1   C14  534   0.050   6.550   9.618  0.4254 -0.5556  0.7608
    8CHL1   H14  535   0.081   6.655   9.595  0.5331 -0.7688 -0.0872
    8CHL1   C15  536  -0.077   6.529   9.547 -0.8769 -0.1814 -0.3099
    8CHL1  H15A  537  -0.129   6.442   9.593 -0.4554 -0.7247 -0.8570
    8CHL1  H15B  538  -0.144   6.618   9.553  0.7758  1.1016 -0.2082
    8CHL1   C16  539  -0.034   6.515   9.402 -0.0241  0.2171 -0.3809
    8CHL1  H16A  540  -0.084   6.418   9.380 -0.3832 -0.9623  4.4019
    8CHL1  H16B  541  -0.064   6.606   9.346  2.0623  3.5948  3.4137
    8CHL1   C17  542   0.116   6.502   9.401  0.1545  0.5202 -0.0001
    8CHL1   H17  543   0.156   6.601   9.371 -2.3969  1.2717 -1.1901
    8CHL1   C13  544   0.152   6.467   9.545 -0.0322  0.5153  0.7991
    8CHL1   C18  545   0.128   6.322   9.564  0.3133 -0.2610  0.0204
    8CHL1  H18A  546   0.212   6.263   9.523 -0.2183 -0.3799 -0.9243
    8CHL1  H18B  547   0.125   6.285   9.669 -1.6568  0.9319  0.4257
    8CHL1  H18C  548   0.035   6.281   9.519 -0.3076  1.4393 -0.3542
    8CHL1   C12  549   0.289   6.523   9.580 -0.5710  0.2208  0.4249
    8CHL1  H12A  550   0.369   6.464   9.531 -0.6612  0.9046 -0.5834
    8CHL1  H12B  551   0.288   6.631   9.551  0.4082  0.5134  1.3643
    8CHL1   C11  552   0.306   6.503   9.729 -0.3753 -0.3183 -0.2765
    8CHL1  H11A  553   0.314   6.395   9.752 -0.1544 -0.8286 -2.5329
    8CHL1  H11B  554   0.410   6.534   9.751  0.3041 -0.8035 -2.5227
    8CHL1    C9  555   0.194   6.575   9.816  0.4034 -0.7725  0.8186
    8CHL1    H9  556   0.216   6.679   9.784  0.3184 -1.3156 -1.1026
    8CHL1   C10  557   0.209   6.564   9.970 -0.1750  0.6921  0.1005
    8CHL1   C19  558   0.192   6.408  10.018 -0.4169 -0.5175  0.2583
    8CHL1  H19A  559   0.237   6.399  10.120  1.0465  4.1354  0.2442
    8CHL1  H19B  560   0.086   6.375  10.014  0.2559 -2.7324 -0.8921
    8CHL1  H19C  561   0.262   6.348   9.957  0.8936 -3.1943  3.9866
    8CHL1    C1  562   0.344   6.617  10.016 -0.1342  0.1315  0.4119
    8CHL1   H1A  563   0.426   6.551   9.981 -0.3357  0.8297 -1.5621
    8CHL1   H1B  564   0.366   6.705   9.952 -1.7504  1.2296  1.2882
    8CHL1    C2  565   0.368   6.665  10.158 -0.0899  0.6072  0.1635
    8CHL1   H2A  566   0.467   6.713  10.170 -0.3666  0.8852  1.5152
    8CHL1   H2B  567   0.378   6.573  10.220  0.6436  1.6040  1.5679
    8CHL1   C20  568   0.160   6.412   9.281  0.6563 -0.7446 -0.2693
    8CHL1   H20  569   0.130   6.307   9.301 -0.4740 -0.8222 -2.2028
    8CHL1   C21  570   0.314   6.422   9.269 -0.7365 -0.2405 -0.3592
    8CHL1  H21A  571   0.338   6.530   9.271 -0.6297 -0.2741  0.8066
    8CHL1  H21B  572   0.359   6.383   9.174 -0.4736 -0.5974 -0.0938
    8CHL1  H21C  573   0.364   6.378   9.358 -1.2329 -0.0195  0.0311
    8CHL1   C22  574   0.087   6.458   9.152 -0.3248 -0.3335 -0.2576
    8CHL1  H22A  575   0.096   6.388   9.067 -1.1732 -0.9090  0.1083
    8CHL1  H22B  576  -0.021   6.452   9.175 -0.1534 -0.9439  0.4427
    8CHL1   C23  577   0.122   6.601   9.105  0.1295 -0.4392  0.2499
    8CHL1  H23A  578   0.072   6.663   9.183 -1.2310 -1.0943 -0.0770
    8CHL1  H23B  579   0.233   6.608   9.096  0.4114 -1.8521  1.9904
    8CHL1   C24  580   0.069   6.632   8.969  1.1453 -0.1592  0.7967
    8CHL1  H24A  581   0.085   6.548   8.898 -1.0189  1.3501 -1.6455
    8CHL1  H24B  582  -0.042   6.624   8.970  0.8348  2.6025 -0.8449
    8CHL1   C25  583   0.114   6.770   8.905  0.1707  1.1008  0.3752
    8CHL1   H25  584   0.222   6.753   8.882 -0.4295  0.3358 -2.1191
    8CHL1   C26  585   0.044   6.795   8.773  0.0942  0.3883 -0.3243
    8CHL1  H26A  586   0.091   6.881   8.721  2.0553  0.9104  2.1411
    8CHL1  H26B  587   0.057   6.705   8.709  1.4585 -0.4582  1.0803
    8CHL1  H26C  588  -0.064   6.816   8.789  0.1847 -0.0720  0.9979
    8CHL1   C27  589   0.096   6.883   9.002 -0.9180  0.2318 -0.0100
    8CHL1  H27A  590   0.169   6.858   9.082 -2.1938 -0.9375  0.8319
    8CHL1  H27B  591   0.125   6.979   8.954 -1.9082  0.0030 -1.1083
    8CHL1  H27C  592  -0.009   6.883   9.037 -1.3654 -1.2864 -1.2272
    9CHL1    C3  593   3.596   3.802  10.122  0.1027  0.6361 -0.6272
    9CHL1    H3  594   3.503   3.756  10.084 -1.4625  1.6781  1.7355
    9CHL1    O3  595   3.595   3.791  10.264 -0.4037 -0.4996 -0.0317
    9CHL1   H3'  596   3.611   3.880  10.298 -0.4513 -0.5323  0.0767
    9CHL1    C4  597   3.730   3.740  10.080  0.9648 -0.1530 -0.6010
    9CHL1   H4A  598   3.809   3.796  10.135  1.3759 -0.2223 -1.1125
    9CHL1   H4B  599   3.737   3.637  10.119 -0.0271  0.3509  0.9942
    9CHL1    C5  600   3.752   3.760   9.928  0.3548 -0.0453 -0.6253
    9CHL1    C6  601   3.769   3.652   9.858  0.2215 -0.0176  0.0674
    9CHL1    H6  602   3.779   3.552   9.902  1.9561 -0.2801 -0.8401
    9CHL1    C7  603   3.789   3.651   9.706 -0.2013  0.2626 -0.1252
    9CHL1   H7A  604   3.870   3.579   9.683  0.2080 -0.8036  3.9371
    9CHL1   H7B  605   3.690   3.619   9.665 -0.8536  1.0023  0.8274
    9CHL1    C8  606   3.808   3.787   9.647  0.1741 -0.1272  0.0572
    9CHL1    H8  607   3.911   3.828   9.656  0.5154 -0.5817 -1.4589
    9CHL1   C14  608   3.783   3.783   9.492  0.3804  0.6158  0.1502
    9CHL1   H14  609   3.676   3.759   9.475  0.9492 -0.5225 -2.3330
    9CHL1   C15  610   3.851   3.666   9.416  0.6753  0.2241  0.0061
    9CHL1  H15A  611   3.955   3.666   9.455  0.5406 -0.2099  0.3756
    9CHL1  H15B  612   3.808   3.566   9.439 -1.7107  1.3084  0.6823
    9CHL1   C16  613   3.838   3.724   9.271  0.2320  0.8482 -0.1898
    9CHL1  H16A  614   3.936   3.701   9.223  1.4219 -2.1380  3.1940
    9CHL1  H16B  615   3.754   3.669   9.224  2.0122  0.9857 -3.8766
    9CHL1   C17  616   3.794   3.873   9.270 -0.5285 -0.7320  0.5807
    9CHL1   H17  617   3.684   3.871   9.250 -0.2897  2.1592 -1.6807
    9CHL1   C13  618   3.800   3.916   9.418  0.2038 -1.0072  0.5828
    9CHL1   C18  619   3.944   3.969   9.438  0.1594  0.3783  0.1612
    9CHL1  H18A  620   4.028   3.913   9.392  1.1750  1.2932  0.8598
    9CHL1  H18B  621   3.949   4.079   9.418  0.2235  0.5114  0.8872
    9CHL1  H18C  622   3.964   3.962   9.547 -1.2581 -2.3941  0.3319
    9CHL1   C12  623   3.691   4.009   9.479  0.4768 -0.5106  0.5401
    9CHL1  H12A  624   3.691   4.113   9.439 -0.5548 -0.7048  0.0168
    9CHL1  H12B  625   3.591   3.967   9.454 -0.6692  3.2725 -2.1276
    9CHL1   C11  626   3.706   4.021   9.633  0.3934 -0.5530 -0.5834
    9CHL1  H11A  627   3.780   4.098   9.664 -0.6130 -0.5003  1.9549
    9CHL1  H11B  628   3.618   4.080   9.667  1.8926  0.5933  1.5752
    9CHL1    C9  629   3.708   3.892   9.714 -0.3141  0.3265  0.4658
    9CHL1    H9  630   3.607   3.847   9.707 -0.4440  0.2033  2.6551
    9CHL1   C10  631   3.725   3.904   9.868 -0.5891 -0.5775  0.1979
    9CHL1   C19  632   3.846   3.988   9.895  0.2056 -0.2714 -0.5060
    9CHL1  H19A  633   3.925   3.983   9.817 -0.1150  2.4913 -1.1117
    9CHL1  H19B  634   3.810   4.093   9.888  2.6071  0.7483  0.8110
    9CHL1  H19C  635   3.879   3.984  10.002  0.2023  0.4693 -0.4685
    9CHL1    C1  636   3.592   3.960   9.937  0.0215  0.6910  0.4753
    9CHL1   H1A  637   3.576   4.068   9.914  0.9900  0.7484 -0.0048
    9CHL1   H1B  638   3.505   3.901   9.900 -0.8323  1.3966  1.3158
    9CHL1    C2  639   3.584   3.943  10.084  0.3729 -0.5181 -0.1954
    9CHL1   H2A  640   3.489   3.984  10.126  0.0836 -0.7211 -0.6458
    9CHL1   H2B  641   3.669   4.001  10.126 -0.4534  1.9912 -1.7706
    9CHL1   C20  642   3.848   3.972   9.162  0.2302  0.3642  0.1785
    9CHL1   H20  643   3.956   3.989   9.179  0.4425 -0.5264 -0.2377
    9CHL1   C21  644   3.771   4.109   9.163  0.3570 -0.4615  0.5272
    9CHL1  H21A  645   3.662   4.092   9.178  0.2149  0.0496  0.1054
    9CHL1  H21B  646   3.777   4.163   9.066 -1.5192 -0.6916  0.2427
    9CHL1  H21C  647   3.795   4.163   9.256  0.3077  0.9845 -0.2726
    9CHL1   C22  648   3.842   3.926   9.019 -0.0884  0.1152 -0.2009
    9CHL1  H22A  649   3.876   4.008   8.952  2.3478  1.6601  2.6445
    9CHL1  H22B  650   3.906   3.836   9.011 -0.0499  0.0795  0.4441
    9CHL1   C23  651   3.706   3.885   8.965 -0.2973 -0.1438  0.6633
    9CHL1  H23A  652   3.673   3.796   9.024 -0.4368  0.3902  1.3987
    9CHL1  H23B  653   3.621   3.957   8.966  0.1602  0.5833 -2.4167
    9CHL1   C24  654   3.728   3.841   8.817  0.4714  0.2198 -0.5799
    9CHL1  H24A  655   3.756   3.933   8.763  0.0600  1.4458  1.2078
    9CHL1  H24B  656   3.801   3.758   8.801  0.1377  0.3778 -3.2860
    9CHL1   C25  657   3.600   3.794   8.750 -0.6904  0.2970  0.3720
    9CHL1   H25  658   3.569   3.697   8.795  2.9617 -0.7074  1.0225
    9CHL1   C26  659   3.489   3.894   8.753  0.1094 -0.1981 -0.0706
    9CHL1  H26A  660   3.522   3.988   8.704  0.3333 -0.3454 -0.2021
    9CHL1  H26B  661   3.394   3.860   8.708 -1.1518  3.4469 -0.5132
    9CHL1  H26C  662   3.468   3.920   8.860  2.4962  2.1715 -0.0523
    9CHL1   C27  663   3.638   3.750   8.605  0.2113 -1.0296 -0.8212
    9CHL1  H27A  664   3.543   3.722   8.554  0.1554 -1.7933 -0.3162
    9CHL1  H27B  665   3.697   3.829   8.554 -2.7532  1.0420 -1.3350
    9CHL1  H27C  666   3.702   3.660   8.603  0.7907 -0.6653  0.2170
   10CHL1    C3  667   2.236   6.705  10.206 -0.1424 -0.8866  0.7030
   10CHL1    H3  668   2.130   6.675  10.190 -0.2398 -0.2641  0.1136
   10CHL1    O3  669   2.274   6.677  10.336 -0.1531 -0.0820  0.1030
   10CHL1   H3'  670   2.365   6.707  10.340 -0.1414 -0.0566 -0.3255
   10CHL1    C4  671   2.321   6.616  10.114 -0.1780 -0.2018 -0.4131
   10CHL1   H4A  672   2.430   6.615  10.134 -0.2219  0.1835 -0.1479
   10CHL1   H4B  673   2.285   6.513  10.135  2.3070 -0.8348  1.1616
   10CHL1    C5  674   2.304   6.665   9.969 -0.4258 -0.0379  0.2006
   10CHL1    C6  675   2.283   6.569   9.881 -0.3069  0.1271  0.2665
   10CHL1    H6  676   2.269   6.464   9.911 -2.9156  0.3246 -0.0317
   10CHL1    C7  677   2.276   6.600   9.731 -0.1620 -0.5148  0.3399
   10CHL1   H7A  678   2.344   6.541   9.665  0.2934 -0.6581  0.9317
   10CHL1   H7B  679   2.172   6.597   9.693 -0.3269  0.8378  0.6535
   10CHL1    C8  680   2.323   6.745   9.688 -0.6303  0.2038  0.2849
   10CHL1    H8  681   2.433   6.746   9.671 -0.7699  0.7387 -0.6400
   10CHL1   C14  682   2.261   6.794   9.559 -0.2299  0.4693  0.2850
   10CHL1   H14  683   2.155   6.818   9.578 -0.6903  1.2690 -2.7352
   10CHL1   C15  684   2.263   6.700   9.439 -0.0099  0.4592 -0.0653
   10CHL1  H15A  685   2.363   6.652   9.435  0.3071  1.0181  0.8532
   10CHL1  H15B  686   2.195   6.612   9.448  0.2003  0.0844 -1.7196
   10CHL1   C16  687   2.236   6.789   9.317  0.0140 -0.1672 -0.1670
   10CHL1  H16A  688   2.331   6.772   9.262  1.0918 -1.0925  1.8423
   10CHL1  H16B  689   2.157   6.759   9.245  0.1663 -1.1551  0.0509
   10CHL1   C17  690   2.228   6.937   9.374 -0.2148  0.1496  0.5959
   10CHL1   H17  691   2.123   6.942   9.408 -1.0921 -1.5577 -1.6490
   10CHL1   C13  692   2.310   6.937   9.502 -0.6246  0.2264  0.4007
   10CHL1   C18  693   2.465   6.955   9.468 -1.2192 -0.5079 -0.2656
   10CHL1  H18A  694   2.505   6.886   9.391 -0.1834  0.9571 -1.1001
   10CHL1  H18B  695   2.487   7.054   9.421 -1.5149 -0.4276 -0.2349
   10CHL1  H18C  696   2.531   6.944   9.557  2.0976  1.2030 -2.2895
   10CHL1   C12  697   2.275   7.037   9.616  0.6633 -0.4281 -0.6203
   10CHL1  H12A  698   2.305   7.140   9.586 -0.2231 -0.1729 -0.6644
   10CHL1  H12B  699   2.165   7.042   9.634  0.6507  0.0504 -0.8225
   10CHL1   C11  700   2.347   6.996   9.755  0.0734  0.4190  0.2938
   10CHL1  H11A  701   2.457   6.997   9.740  0.1953 -0.1281  1.1112
   10CHL1  H11B  702   2.323   7.068   9.836 -0.6686 -1.2003  1.5689
   10CHL1    C9  703   2.294   6.853   9.795 -0.2480  0.5535  0.0090
   10CHL1    H9  704   2.184   6.869   9.785 -0.3885 -1.1151 -1.4819
   10CHL1   C10  705   2.323   6.809   9.938 -0.4628 -0.0599 -0.9843
   10CHL1   C19  706   2.479   6.837   9.963  0.6383  0.6946  0.0042
   10CHL1  H19A  707   2.494   6.947   9.971 -0.9525  1.3737 -3.9688
   10CHL1  H19B  708   2.538   6.786  10.043  2.2490  2.9892  0.3999
   10CHL1  H19C  709   2.533   6.814   9.869 -0.3161  1.6460 -0.8107
   10CHL1    C1  710   2.233   6.892  10.030  0.5715 -0.3079 -0.3209
   10CHL1   H1A  711   2.248   7.002  10.030  0.2950 -0.2357  1.5297
   10CHL1   H1B  712   2.124   6.879  10.010 -0.0705  1.6674  1.4653
   10CHL1    C2  713   2.257   6.856  10.182 -0.2307  0.1343  0.0236
   10CHL1   H2A  714   2.179   6.911  10.240 -0.8658 -0.7505  0.0386
   10CHL1   H2B  715   2.359   6.883  10.216 -0.9522  1.3568  1.3356
   10CHL1   C20  716   2.256   7.036   9.262  0.2469 -0.2562 -0.0078
   10CHL1   H20  717   2.365   7.043   9.238 -0.1037 -0.5191 -1.8450
   10CHL1   C21  718   2.223   7.180   9.308  0.5141  0.4033  0.1202
   10CHL1  H21A  719   2.116   7.195   9.334  0.4638  3.0345 -1.2075
   10CHL1  H21B  720   2.243   7.255   9.228 -2.0007  0.1930 -0.8049
   10CHL1  H21C  721   2.287   7.217   9.391  0.5833  2.1892 -0.6791
   10CHL1   C22  722   2.174   7.003   9.131  0.0045 -0.0508  0.4162
   10CHL1  H22A  723   2.204   6.901   9.098 -2.1499 -0.6742  0.2785
   10CHL1  H22B  724   2.066   6.985   9.150 -0.8113  0.8685 -2.7903
   10CHL1   C23  725   2.171   7.098   9.012  0.0849 -0.7996 -0.3878
   10CHL1  H23A  726   2.125   7.197   9.031 -0.9197 -1.3045 -0.1267
   10CHL1  H23B  727   2.276   7.121   8.985  0.7540  0.5856  2.8939
   10CHL1   C24  728   2.113   7.036   8.884  0.6524 -0.1495 -0.8688
   10CHL1  H24A  729   2.178   6.950   8.857  0.0061 -1.0091  0.2694
   10CHL1  H24B  730   2.011   6.996   8.905  0.3629  1.0195  0.0475
   10CHL1   C25  731   2.097   7.130   8.762  0.3607  0.6466  0.3622
   10CHL1   H25  732   2.184   7.199   8.770  1.5316 -0.7014 -0.2469
   10CHL1   C26  733   2.118   7.062   8.631  0.1001  0.3726 -0.0733
   10CHL1  H26A  734   2.149   7.137   8.556 -2.6783  1.5309 -0.1968
   10CHL1  H26B  735   2.197   6.984   8.643 -0.6620 -0.9516 -2.7017
   10CHL1  H26C  736   2.022   7.014   8.599  0.1794  1.4042 -2.0499
   10CHL1   C27  737   1.964   7.208   8.770 -0.3176  0.6239  0.7067
   10CHL1  H27A  738   1.959   7.271   8.862 -2.0207  0.6224  0.6587
   10CHL1  H27B  739   1.957   7.277   8.683  2.1923 -1.1103 -0.9926
   10CHL1  H27C  740   1.881   7.135   8.762 -0.4476  0.9590 -4.4757
   11CHL1    C3  741   5.471   2.906  10.099  0.6277 -0.4601 -0.4579
   11CHL1    H3  742   5.404   2.827  10.059  1.9569 -1.2053 -1.2760
   11CHL1    O3  743   5.438   2.907  10.233 -0.4506  0.3995 -0.0219
   11CHL1   H3'  744   5.503   2.963  10.277 -2.8576  0.0882  4.4622
   11CHL1    C4  745   5.609   2.850  10.080  0.1717  0.7111  0.1020
   11CHL1   H4A  746   5.681   2.913  10.135  0.7895  0.4520 -0.3989
   11CHL1   H4B  747   5.624   2.754  10.134  1.4546  0.5365 -0.5391
   11CHL1    C5  748   5.642   2.846   9.934 -0.0564 -0.3465  0.3013
   11CHL1    C6  749   5.698   2.734   9.885  0.6876 -0.9313  0.9291
   11CHL1    H6  750   5.718   2.647   9.949 -1.2978 -2.5047 -0.4608
   11CHL1    C7  751   5.747   2.721   9.744 -0.3801  0.4457 -0.0943
   11CHL1   H7A  752   5.854   2.693   9.749  0.2022  2.6571  1.5979
   11CHL1   H7B  753   5.694   2.640   9.689 -0.3709  0.2979  0.1100
   11CHL1    C8  754   5.727   2.848   9.654  0.4154  0.6264 -0.0682
   11CHL1    H8  755   5.821   2.908   9.655 -0.8015  2.7086 -1.9945
   11CHL1   C14  756   5.699   2.816   9.511  0.0315 -0.3647 -0.1462
   11CHL1   H14  757   5.599   2.769   9.507 -0.8743  1.1128  2.7043
   11CHL1   C15  758   5.798   2.716   9.448  0.3226  0.1402 -0.3442
   11CHL1  H15A  759   5.897   2.738   9.495  0.5333  1.3434 -1.3147
   11CHL1  H15B  760   5.770   2.612   9.475  2.5687 -0.8560 -1.6316
   11CHL1   C16  761   5.790   2.748   9.303  0.2538  0.4457 -0.3758
   11CHL1  H16A  762   5.892   2.782   9.274  0.5971 -0.0025  0.2724
   11CHL1  H16B  763   5.762   2.655   9.248  2.2433  0.5571 -1.6760
   11CHL1   C17  764   5.692   2.866   9.279  0.8981  0.0383 -0.1145
   11CHL1   H17  765   5.588   2.833   9.259  1.5020 -1.4447 -0.9026
   11CHL1   C13  766   5.701   2.939   9.416  0.8375 -0.0799 -0.3965
   11CHL1   C18  767   5.834   3.018   9.411 -0.0401  0.7494 -0.5858
   11CHL1  H18A  768   5.931   2.964   9.400  0.6059  1.1435  2.2827
   11CHL1  H18B  769   5.832   3.097   9.333  2.3659  2.0180  0.5192
   11CHL1  H18C  770   5.836   3.069   9.510 -1.8461 -1.4036  0.6489
   11CHL1   C12  771   5.591   3.028   9.460 -0.0177 -0.7491 -0.1190
   11CHL1  H12A  772   5.598   3.125   9.406  1.3202  0.3712  1.9125
   11CHL1  H12B  773   5.495   2.981   9.429 -0.2238 -1.1212  1.0335
   11CHL1   C11  774   5.603   3.065   9.609  0.2897 -0.0140 -0.5292
   11CHL1  H11A  775   5.698   3.123   9.617  1.7159 -2.2884  0.0013
   11CHL1  H11B  776   5.520   3.133   9.634  0.5810  0.1989 -0.1321
   11CHL1    C9  777   5.616   2.937   9.705  0.1554 -0.2642 -0.2616
   11CHL1    H9  778   5.522   2.879   9.698  0.4512 -0.8908  0.6794
   11CHL1   C10  779   5.617   2.979   9.854  0.5394  1.0292  0.7629
   11CHL1   C19  780   5.728   3.078   9.882  0.5222  0.1104 -0.0417
   11CHL1  H19A  781   5.720   3.184   9.852  1.4035  0.3973  0.6914
   11CHL1  H19B  782   5.749   3.088   9.991 -0.4486 -0.1121  0.1753
   11CHL1  H19C  783   5.825   3.037   9.848  2.2568  2.0160  2.2994
   11CHL1    C1  784   5.483   3.040   9.887  0.1633  0.4677 -0.7177
   11CHL1   H1A  785   5.485   3.143   9.845 -0.4025 -0.4341 -3.1294
   11CHL1   H1B  786   5.392   2.991   9.846 -0.6869  0.1362  1.4180
   11CHL1    C2  787   5.455   3.047  10.034  0.6072 -0.3075 -0.0111
   11CHL1   H2A  788   5.350   3.081  10.047  0.6340 -0.3807  0.4304
   11CHL1   H2B  789   5.521   3.122  10.084  0.3042  0.4959 -0.7936
   11CHL1   C20  790   5.732   2.949   9.151 -0.2004 -0.3759 -0.2313
   11CHL1   H20  791   5.837   2.981   9.168 -1.2311  1.4376  3.9817
   11CHL1   C21  792   5.634   3.068   9.138  0.3351 -0.0566  0.0759
   11CHL1  H21A  793   5.678   3.148   9.201 -0.5094 -0.4458  1.1834
   11CHL1  H21B  794   5.535   3.042   9.181 -2.3534  1.5559 -4.4565
   11CHL1  H21C  795   5.616   3.105   9.034 -0.8282  2.8341  1.1923
   11CHL1   C22  796   5.731   2.870   9.019  0.1314 -0.2393 -0.3234
   11CHL1  H22A  797   5.777   2.770   9.037 -3.3217 -1.6609  1.7025
   11CHL1  H22B  798   5.627   2.847   8.988 -0.2215 -0.5320  0.9889
   11CHL1   C23  799   5.794   2.935   8.897  0.0536  0.1126 -0.0619
   11CHL1  H23A  800   5.745   3.034   8.887 -0.3005 -0.0306  0.2466
   11CHL1  H23B  801   5.901   2.956   8.918 -0.4557  1.1689  1.7503
   11CHL1   C24  802   5.789   2.849   8.764 -0.0075 -0.1247  0.4708
   11CHL1  H24A  803   5.823   2.745   8.784 -4.1844 -1.5923  0.8097
   11CHL1  H24B  804   5.685   2.843   8.726 -0.6762  0.7934  2.0578
   11CHL1   C25  805   5.874   2.900   8.647 -0.5475  0.0634 -0.3156
   11CHL1   H25  806   5.979   2.879   8.676 -0.9329 -1.7177 -0.1183
   11CHL1   C26  807   5.842   2.804   8.523 -1.2885  0.8228  0.2697
   11CHL1  H26A  808   5.830   2.700   8.560  0.5040  0.8156  0.9685
   11CHL1  H26B  809   5.746   2.823   8.472 -2.3407 -0.3110  1.7391
   11CHL1  H26C  810   5.930   2.811   8.456 -1.0105  1.9630  0.7304
   11CHL1   C27  811   5.844   3.050   8.614  0.5955  0.6604  0.1089
   11CHL1  H27A  812   5.883   3.069   8.512 -0.0251 -0.4751 -0.3564
   11CHL1  H27B  813   5.738   3.081   8.625 -0.0297 -1.3402  0.2236
   11CHL1  H27C  814   5.907   3.124   8.669  0.8198  0.4794  0.0990
   12CHL1    C3  815   0.024   5.514  10.363 -0.6390  0.2433 -0.2752
   12CHL1    H3  816   0.120   5.570  10.353 -1.4629  1.6223 -0.7966
   12CHL1    O3  817  -0.014   5.523  10.499  0.1666 -0.2663  0.7002
   12CHL1   H3'  818  -0.100   5.480  10.500 -0.3948  0.7702 -0.3667
   12CHL1    C4  819  -0.067   5.589  10.264  0.6144  0.1339  0.0216
   12CHL1   H4A  820  -0.172   5.562  10.285  0.5718 -0.2530 -0.6696
   12CHL1   H4B  821  -0.049   5.693  10.298  0.7225  0.3053 -0.5409
   12CHL1    C5  822  -0.023   5.570  10.117  0.6487  0.3245 -0.2057
   12CHL1    C6  823   0.018   5.677  10.046 -0.1712 -0.6441 -0.2084
   12CHL1    H6  824   0.009   5.778  10.087  1.0334 -0.5123 -0.2298
   12CHL1    C7  825   0.063   5.662   9.900 -0.4994  0.8797 -0.3820
   12CHL1   H7A  826   0.016   5.741   9.838  0.2806 -0.5493 -2.9467
   12CHL1   H7B  827   0.174   5.675   9.901 -0.2240 -1.1065 -0.2030
   12CHL1    C8  828   0.019   5.525   9.841  0.9683 -0.8472 -0.1781
   12CHL1    H8  829  -0.091   5.524   9.826  0.9806 -0.5787 -0.2926
   12CHL1   C14  830   0.104   5.510   9.718  0.5231 -0.1331  0.2247
   12CHL1   H14  831   0.207   5.498   9.758  0.9876  2.3208 -0.0780
   12CHL1   C15  832   0.112   5.628   9.617  0.1409  0.1776 -0.5537
   12CHL1  H15A  833   0.014   5.678   9.604 -1.0135 -1.0668  2.4295
   12CHL1  H15B  834   0.182   5.709   9.647  0.9795 -0.8041  0.2439
   12CHL1   C16  835   0.162   5.550   9.490 -0.5946 -0.0124 -0.6416
   12CHL1  H16A  836   0.075   5.555   9.420 -0.3003  0.3021 -0.9913
   12CHL1  H16B  837   0.260   5.577   9.445 -0.2779 -0.8036 -0.4399
   12CHL1   C17  838   0.178   5.392   9.528 -0.7276 -0.1831  0.5761
   12CHL1   H17  839   0.283   5.381   9.561 -0.1377 -1.4300 -1.5719
   12CHL1   C13  840   0.082   5.377   9.644  0.6141  0.2674 -0.0216
   12CHL1   C18  841  -0.065   5.359   9.595  0.2346 -0.3198 -0.5405
   12CHL1  H18A  842  -0.105   5.456   9.557 -2.1447 -0.7642  0.6034
   12CHL1  H18B  843  -0.073   5.273   9.526  1.5337 -0.8239 -0.0789
   12CHL1  H18C  844  -0.129   5.329   9.681  0.5914  0.5012  0.0350
   12CHL1   C12  845   0.123   5.259   9.738 -0.0166  0.0642  1.1390
   12CHL1  H12A  846   0.116   5.157   9.695  2.1509 -1.0231  3.1192
   12CHL1  H12B  847   0.229   5.278   9.765  0.0901  0.5602  0.3896
   12CHL1   C11  848   0.055   5.275   9.876  0.2651 -0.1294 -1.0374
   12CHL1  H11A  849  -0.049   5.238   9.864  0.5083 -2.0261  1.7210
   12CHL1  H11B  850   0.101   5.202   9.946  2.0365  1.6373 -0.2543
   12CHL1    C9  851   0.054   5.413   9.940  0.6926  0.1560 -0.0217
   12CHL1    H9  852   0.160   5.427   9.969  1.4661 -3.9141 -0.2863
   12CHL1   C10  853  -0.018   5.427  10.071 -1.5239  0.2826 -0.0972
   12CHL1   C19  854  -0.167   5.367  10.061 -0.5105 -0.2335 -0.2299
   12CHL1  H19A  855  -0.210   5.429   9.979  1.2926  1.5472  0.1143
   12CHL1  H19B  856  -0.168   5.260  10.030  1.2660 -0.9790  2.0022
   12CHL1  H19C  857  -0.214   5.379  10.161  0.9283 -2.1763  0.7600
   12CHL1    C1  858   0.063   5.343  10.167  0.0219 -0.8004 -0.2526
   12CHL1   H1A  859   0.043   5.235  10.152  0.7826 -0.9428 -0.2705
   12CHL1   H1B  860   0.172   5.362  10.155 -0.0690  0.7616  0.9714
   12CHL1    C2  861   0.039   5.366  10.320  0.2407 -0.2080 -0.7049
   12CHL1   H2A  862   0.117   5.313  10.377 -2.0136 -0.7497  2.0928
   12CHL1   H2B  863  -0.060   5.318  10.339  0.4289 -1.9739 -3.5778
   12CHL1   C20  864   0.157   5.307   9.399 -0.8153  0.0664 -0.1158
   12CHL1   H20  865   0.051   5.316   9.367 -0.8997  0.6854  0.3125
   12CHL1   C21  866   0.175   5.158   9.442  0.2071  0.0716  0.2419
   12CHL1  H21A  867   0.182   5.095   9.350  0.3943 -0.2825  0.4991
   12CHL1  H21B  868   0.090   5.107   9.491  2.2887 -0.7873  3.2194
   12CHL1  H21C  869   0.267   5.149   9.504  1.0405  1.8513 -0.6437
   12CHL1   C22  870   0.263   5.345   9.285  0.1735 -0.1187 -0.1272
   12CHL1  H22A  871   0.253   5.452   9.257 -0.5687  0.1565  1.0974
   12CHL1  H22B  872   0.368   5.333   9.320  0.5551 -1.7282 -1.6758
   12CHL1   C23  873   0.251   5.273   9.149 -0.1739  0.6720  0.5942
   12CHL1  H23A  874   0.283   5.167   9.152 -0.8354  0.4755  0.9277
   12CHL1  H23B  875   0.146   5.276   9.112  0.4048 -2.2221 -1.5815
   12CHL1   C24  876   0.329   5.342   9.043 -0.0163 -0.2095  0.0931
   12CHL1  H24A  877   0.308   5.450   9.062  0.3675 -0.3567  1.4257
   12CHL1  H24B  878   0.438   5.342   9.059  0.2714 -1.0578 -1.5833
   12CHL1   C25  879   0.294   5.302   8.897  0.3470  0.2481 -0.2581
   12CHL1   H25  880   0.186   5.321   8.877  0.7552  2.2680 -0.8255
   12CHL1   C26  881   0.376   5.383   8.793 -0.6732  0.6627  0.0347
   12CHL1  H26A  882   0.324   5.478   8.770 -1.0747  0.8516  1.5761
   12CHL1  H26B  883   0.475   5.407   8.836 -0.7394 -0.3049  0.7716
   12CHL1  H26C  884   0.396   5.330   8.698  0.9021  0.3157  0.5366
   12CHL1   C27  885   0.335   5.159   8.886 -0.4385 -0.1624  0.4904
   12CHL1  H27A  886   0.345   5.134   8.778  1.4672  0.2902  0.5197
   12CHL1  H27B  887   0.438   5.164   8.927 -0.2249  0.8069 -0.1410
   12CHL1  H27C  888   0.284   5.081   8.945 -2.4152  0.8180  0.1425
   13CHL1    C3  889   6.285   1.642   9.850 -0.6060 -0.2650 -0.7361
   13CHL1    H3  890   6.251   1.536   9.842  0.0803 -0.3749 -3.1671
   13CHL1    O3  891   6.338   1.660   9.980 -0.0103  0.7645 -0.2187
   13CHL1   H3'  892   6.373   1.749   9.986  2.3353 -0.1795  1.6970
   13CHL1    C4  893   6.393   1.660   9.747  0.1866  0.4366 -0.4462
   13CHL1   H4A  894   6.454   1.750   9.769  0.0130  0.1838  1.2221
   13CHL1   H4B  895   6.469   1.579   9.758 -0.5417  0.0536  3.0081
   13CHL1    C5  896   6.332   1.673   9.607  0.7446 -0.5035 -0.6973
   13CHL1    C6  897   6.385   1.612   9.499  0.0493  0.3716 -0.3252
   13CHL1    H6  898   6.482   1.560   9.500  0.1469  0.5507  0.4433
   13CHL1    C7  899   6.345   1.625   9.357 -0.0737  0.1358  0.3243
   13CHL1   H7A  900   6.433   1.628   9.289  1.1424  3.1664  1.8739
   13CHL1   H7B  901   6.281   1.544   9.317 -1.3954  2.4437 -2.5482
   13CHL1    C8  902   6.254   1.753   9.334  0.4413  0.0368 -0.6068
   13CHL1    H8  903   6.317   1.844   9.340  0.8282 -0.1454 -1.6091
   13CHL1   C14  904   6.197   1.747   9.196 -0.5060 -0.1532  0.0196
   13CHL1   H14  905   6.139   1.653   9.205  0.5821 -0.9561 -1.1367
   13CHL1   C15  906   6.284   1.739   9.071 -0.2890 -0.0982 -0.2629
   13CHL1  H15A  907   6.366   1.813   9.079 -0.4052 -0.0204  0.1956
   13CHL1  H15B  908   6.323   1.636   9.054  0.8928  0.5407 -1.6489
   13CHL1   C16  909   6.184   1.770   8.954 -0.0900  0.0325  0.2015
   13CHL1  H16A  910   6.232   1.844   8.887  0.2163  1.3030  1.7639
   13CHL1  H16B  911   6.170   1.673   8.901 -1.1856  0.7688 -0.9154
   13CHL1   C17  912   6.052   1.821   9.016  0.3668 -0.0218 -0.5759
   13CHL1   H17  913   5.983   1.734   9.016 -1.7816  1.5050  2.1303
   13CHL1   C13  914   6.092   1.854   9.161  0.3920 -0.1202  0.5006
   13CHL1   C18  915   6.154   1.994   9.159  0.5332  0.8866 -0.0381
   13CHL1  H18A  916   6.087   2.079   9.136 -1.9661 -1.2541 -1.2374
   13CHL1  H18B  917   6.218   2.014   9.248  1.2419 -0.8431 -0.1177
   13CHL1  H18C  918   6.236   1.998   9.083 -0.0820  0.3970 -0.7420
   13CHL1   C12  919   5.982   1.847   9.269  0.3260  0.3452 -0.7894
   13CHL1  H12A  920   5.922   1.940   9.255  1.4408  1.2052 -0.1490
   13CHL1  H12B  921   5.918   1.757   9.266  1.7987 -1.0807  3.4139
   13CHL1   C11  922   6.033   1.865   9.414 -0.1275 -0.1935 -0.2367
   13CHL1  H11A  923   6.072   1.969   9.420  1.7421 -0.8490 -0.1894
   13CHL1  H11B  924   5.941   1.870   9.475  0.4147  1.4026  0.5080
   13CHL1    C9  925   6.150   1.765   9.451 -0.0971  0.8707  0.5668
   13CHL1    H9  926   6.108   1.662   9.446 -1.0027  1.2849 -2.2984
   13CHL1   C10  927   6.210   1.778   9.589 -0.3581  0.3488 -0.6671
   13CHL1   C19  928   6.261   1.924   9.609 -0.2718  0.2435  0.9351
   13CHL1  H19A  929   6.303   1.942   9.711  2.4790  1.8104 -0.3854
   13CHL1  H19B  930   6.347   1.931   9.541 -0.5207  0.1087  0.6035
   13CHL1  H19C  931   6.183   1.995   9.574  0.4099  0.2013 -0.7495
   13CHL1    C1  932   6.106   1.740   9.697 -0.0036 -0.2478 -0.1555
   13CHL1   H1A  933   6.026   1.818   9.704 -0.4863 -0.7789  0.3971
   13CHL1   H1B  934   6.042   1.652   9.673 -0.1528  0.0365 -0.8257
   13CHL1    C2  935   6.159   1.734   9.842 -0.2809  0.1357 -0.1890
   13CHL1   H2A  936   6.078   1.696   9.908 -0.2551 -2.4886 -1.5383
   13CHL1   H2B  937   6.191   1.838   9.865 -1.7483  0.2009  1.8761
   13CHL1   C20  938   5.991   1.915   8.918  0.6923 -0.5010  0.4073
   13CHL1   H20  939   6.064   1.998   8.905 -1.6425  1.4110 -1.7028
   13CHL1   C21  940   5.863   1.976   8.967  0.3077 -0.1248 -0.0802
   13CHL1  H21A  941   5.876   2.056   9.043 -4.4436  2.2339 -1.3498
   13CHL1  H21B  942   5.806   1.896   9.019  0.2954  0.5639  1.0130
   13CHL1  H21C  943   5.797   2.012   8.885  0.8394 -1.6648 -1.2340
   13CHL1   C22  944   5.971   1.857   8.769 -0.2716  0.0901 -0.6826
   13CHL1  H22A  945   6.060   1.798   8.738 -1.9128 -3.2021  0.3898
   13CHL1  H22B  946   5.893   1.778   8.760  0.3048 -0.6497  0.5458
   13CHL1   C23  947   5.941   1.956   8.662 -0.3692  0.0452 -0.3531
   13CHL1  H23A  948   5.854   2.021   8.684 -0.2694  0.3598 -0.8803
   13CHL1  H23B  949   6.020   2.032   8.647 -0.7808  0.5406 -0.0557
   13CHL1   C24  950   5.916   1.893   8.518  0.0403  0.1778 -0.1557
   13CHL1  H24A  951   5.826   1.828   8.528 -0.4933  0.8034 -0.7998
   13CHL1  H24B  952   5.888   1.976   8.449  0.0392  0.8064  0.5934
   13CHL1   C25  953   6.033   1.829   8.453 -0.5584 -0.4301  0.0257
   13CHL1   H25  954   6.100   1.773   8.522  0.8348  1.7581  0.5423
   13CHL1   C26  955   5.993   1.743   8.333 -0.1638  0.0904  0.2928
   13CHL1  H26A  956   5.941   1.650   8.364 -0.0836 -0.3209 -0.7939
   13CHL1  H26B  957   5.926   1.807   8.271 -0.5377  0.4446  1.0384
   13CHL1  H26C  958   6.081   1.709   8.275 -1.4379 -2.2751 -0.3728
   13CHL1   C27  959   6.129   1.941   8.408 -0.5388  0.1262  0.5004
   13CHL1  H27A  960   6.158   2.002   8.495 -0.0967  2.4724 -1.1998
   13CHL1  H27B  961   6.217   1.886   8.369 -1.1673  0.2258 -1.1571
   13CHL1  H27C  962   6.107   2.007   8.321 -0.0047 -2.1655 -1.5030
   14CHL1    C3  963   1.267   3.718  10.240 -0.0811 -0.1934 -0.3970
   14CHL1    H3  964   1.283   3.608  10.233 -0.5572 -0.6310  3.5322
   14CHL1    O3  965   1.265   3.763  10.373  0.7092 -0.0175 -0.1576
   14CHL1   H3'  966   1.287   3.855  10.360  1.8503  0.0373  1.7383
   14CHL1    C4  967   1.396   3.769  10.181 -0.1810 -0.3287 -0.2793
   14CHL1   H4A  968   1.391   3.879  10.198 -0.2411 -0.5084  0.9877
   14CHL1   H4B  969   1.478   3.736  10.248 -2.6234 -1.0088  2.5832
   14CHL1    C5  970   1.406   3.729  10.031 -0.3276 -0.5755 -0.4233
   14CHL1    C6  971   1.516   3.674   9.986 -1.1503  0.2762  0.2794
   14CHL1    H6  972   1.604   3.677  10.053  0.8849 -0.0602 -2.2519
   14CHL1    C7  973   1.537   3.631   9.842  0.4095 -0.0435 -0.1128
   14CHL1   H7A  974   1.638   3.658   9.801 -0.0794  0.2194 -1.1954
   14CHL1   H7B  975   1.514   3.523   9.835 -0.7563  0.2294 -0.6235
   14CHL1    C8  976   1.427   3.698   9.746  0.1602  0.3164 -0.2422
   14CHL1    H8  977   1.460   3.804   9.735  2.1791 -0.2528 -0.1793
   14CHL1   C14  978   1.439   3.644   9.602  0.6152  0.4655  0.0607
   14CHL1   H14  979   1.423   3.535   9.618  0.1032  0.8703  2.9155
   14CHL1   C15  980   1.577   3.646   9.525 -0.6373 -0.4076 -0.0883
   14CHL1  H15A  981   1.633   3.737   9.555 -1.0042 -0.7409  1.6850
   14CHL1  H15B  982   1.642   3.561   9.555 -0.3523 -0.8569 -1.8574
   14CHL1   C16  983   1.541   3.628   9.379  0.7607  0.4276 -0.5376
   14CHL1  H16A  984   1.583   3.716   9.326 -1.0424  0.0169 -2.7774
   14CHL1  H16B  985   1.584   3.531   9.349  0.1919 -0.3028  0.9147
   14CHL1   C17  986   1.381   3.626   9.372 -0.0307 -0.6690 -0.6054
   14CHL1   H17  987   1.371   3.518   9.395  2.7853 -0.7252  0.8250
   14CHL1   C13  988   1.333   3.694   9.504  0.6058 -0.5362 -0.3750
   14CHL1   C18  989   1.339   3.849   9.497  0.3560  0.6469 -0.1274
   14CHL1  H18A  990   1.347   3.897   9.596  0.0196 -0.5195  0.4752
   14CHL1  H18B  991   1.421   3.883   9.430 -0.6787  0.7970 -1.3633
   14CHL1  H18C  992   1.243   3.881   9.450 -0.9234  0.2411  2.0651
   14CHL1   C12  993   1.198   3.650   9.564 -0.3549 -0.9014 -0.4079
   14CHL1  H12A  994   1.109   3.676   9.503 -1.9096  0.6779  2.3117
   14CHL1  H12B  995   1.204   3.540   9.573  1.3072 -0.6865  2.6445
   14CHL1   C11  996   1.172   3.712   9.709  0.5045  0.4244  0.0505
   14CHL1  H11A  997   1.151   3.819   9.687  0.4499  0.3095 -0.4860
   14CHL1  H11B  998   1.074   3.668   9.737  1.3327 -1.1647  0.6020
   14CHL1    C9  999   1.284   3.687   9.806 -0.4176  0.1046 -0.1739
   14CHL1    H9 1000   1.279   3.580   9.835  0.9868 -0.3243 -1.3577
   14CHL1   C10 1001   1.279   3.763   9.944  0.1798  1.0298  0.4529
   14CHL1   C19 1002   1.282   3.910   9.908  0.7128  0.1686  0.0246
   14CHL1  H19A 1003   1.382   3.945   9.874  0.9355  2.2915  2.4781
   14CHL1  H19B 1004   1.211   3.948   9.832 -0.0671 -1.9676 -0.3613
   14CHL1  H19C 1005   1.268   3.967  10.002  0.5776  0.4390 -0.1591
   14CHL1    C1 1006   1.146   3.725  10.016 -0.2420 -0.1038  0.0493
   14CHL1   H1A 1007   1.052   3.759   9.967 -0.8571 -2.8402 -0.7851
   14CHL1   H1B 1008   1.151   3.615  10.008  0.9411  0.0472 -1.9270
   14CHL1    C2 1009   1.138   3.758  10.168  0.4033 -0.0149  0.2865
   14CHL1   H2A 1010   1.049   3.698  10.196 -0.9582  1.1107 -1.4394
   14CHL1   H2B 1011   1.119   3.866  10.185 -0.9197  0.0208 -1.1851
   14CHL1   C20 1012   1.326   3.664   9.241 -1.1423  0.3986 -0.5468
   14CHL1   H20 1013   1.358   3.769   9.224  1.8755  0.0714  2.1254
   14CHL1   C21 1014   1.170   3.646   9.246  0.9386 -0.3567  0.6276
   14CHL1  H21A 1015   1.128   3.727   9.309  0.6306  1.3909 -1.6877
   14CHL1  H21B 1016   1.141   3.541   9.270  0.9695 -0.8909 -1.5122
   14CHL1  H21C 1017   1.132   3.679   9.147 -1.9664  0.8713  2.0297
   14CHL1   C22 1018   1.399   3.590   9.123 -0.0168  0.3059 -0.6509
   14CHL1  H22A 1019   1.503   3.627   9.113 -0.3107  1.2505 -0.3862
   14CHL1  H22B 1020   1.420   3.485   9.150  1.6918  0.1470 -2.4035
   14CHL1   C23 1021   1.332   3.621   8.983  0.1536 -0.0942  0.0465
   14CHL1  H23A 1022   1.225   3.591   8.989 -0.2341  1.2914  0.5594
   14CHL1  H23B 1023   1.325   3.729   8.958  0.5399 -0.1223 -0.1803
   14CHL1   C24 1024   1.396   3.545   8.865  0.2797  0.5094  0.1444
   14CHL1  H24A 1025   1.502   3.573   8.847  0.6307  0.8119  2.3601
   14CHL1  H24B 1026   1.392   3.437   8.890  0.9529  0.7147  1.2070
   14CHL1   C25 1027   1.339   3.569   8.726  0.2975  0.5685  0.4545
   14CHL1   H25 1028   1.230   3.549   8.732  0.4479 -0.6344 -0.3806
   14CHL1   C26 1029   1.359   3.718   8.684  0.1553  0.3814  0.0944
   14CHL1  H26A 1030   1.309   3.782   8.759 -1.3177  2.0465 -2.1540
   14CHL1  H26B 1031   1.466   3.746   8.693 -0.0847  0.5992  2.9297
   14CHL1  H26C 1032   1.319   3.738   8.582 -1.7165  0.8862  0.8850
   14CHL1   C27 1033   1.402   3.464   8.639 -0.4154 -0.3169 -0.8309
   14CHL1  H27A 1034   1.365   3.478   8.535  1.2126 -1.5761 -1.6304
   14CHL1  H27B 1035   1.509   3.495   8.640 -0.3104 -0.6671  1.0757
   14CHL1  H27C 1036   1.382   3.358   8.665 -3.3509  0.3173 -0.2504
   15CHL1    C3 1037   6.556   3.543  10.133 -0.3424 -0.0623 -0.0188
   15CHL1    H3 1038   6.641   3.610  10.109  1.1276 -2.1255 -0.8550
   15CHL1    O3 1039   6.526   3.557  10.271 -0.4883 -0.7713  0.3342
   15CHL1   H3' 1040   6.534   3.467  10.305  0.5204 -0.3331  1.3202
   15CHL1    C4 1041   6.427   3.566  10.058  0.0902 -0.3189 -0.2695
   15CHL1   H4A 1042   6.349   3.494  10.093 -0.5432  0.0551 -0.8732
   15CHL1   H4B 1043   6.398   3.669  10.088 -0.4313 -0.1110 -1.4223
   15CHL1    C5 1044   6.450   3.554   9.911 -0.1516  0.2737 -0.3109
   15CHL1    C6 1045   6.428   3.654   9.823  0.3575 -0.4573 -0.2433
   15CHL1    H6 1046   6.398   3.754   9.859 -0.0912 -0.0679 -1.6334
   15CHL1    C7 1047   6.429   3.633   9.670  0.1690 -0.7304 -0.2492
   15CHL1   H7A 1048   6.340   3.684   9.627 -0.0244 -1.5141 -0.7981
   15CHL1   H7B 1049   6.520   3.682   9.630  0.4269  0.8960  2.1409
   15CHL1    C8 1050   6.437   3.482   9.628 -0.3693  0.5902  0.4056
   15CHL1    H8 1051   6.336   3.441   9.649 -0.2853  0.0517 -0.1714
   15CHL1   C14 1052   6.483   3.476   9.481  0.0381  0.9683 -0.6154
   15CHL1   H14 1053   6.589   3.510   9.480 -0.1638  1.5846 -1.1504
   15CHL1   C15 1054   6.409   3.571   9.387  0.2889  0.2826  0.0217
   15CHL1  H15A 1055   6.298   3.564   9.392  0.3669 -2.6468 -0.8118
   15CHL1  H15B 1056   6.448   3.675   9.390  0.8746  0.0702 -0.0609
   15CHL1   C16 1057   6.450   3.505   9.254 -0.1701  0.2875  1.1740
   15CHL1  H16A 1058   6.358   3.476   9.199  0.2748  0.4470  0.3309
   15CHL1  H16B 1059   6.514   3.574   9.196 -0.4449 -0.8830 -0.5826
   15CHL1   C17 1060   6.522   3.363   9.273 -0.3471 -0.5188  0.1440
   15CHL1   H17 1061   6.630   3.386   9.272 -0.8216  2.0769  1.5161
   15CHL1   C13 1062   6.479   3.334   9.417 -0.7549  0.1935  0.8834
   15CHL1   C18 1063   6.333   3.275   9.427 -0.1201  0.1469 -0.7073
   15CHL1  H18A 1064   6.331   3.166   9.405  0.4983 -0.0583  0.2136
   15CHL1  H18B 1065   6.296   3.278   9.531  1.5448 -0.1575 -0.0829
   15CHL1  H18C 1066   6.262   3.332   9.363 -1.1176  1.4822  1.5010
   15CHL1   C12 1067   6.580   3.250   9.504 -0.7668  0.2745 -0.2922
   15CHL1  H12A 1068   6.570   3.142   9.483  1.1180 -0.1959  0.9772
   15CHL1  H12B 1069   6.686   3.269   9.476 -0.6759 -0.6894 -0.6259
   15CHL1   C11 1070   6.558   3.260   9.660  0.1156 -0.7258  0.1525
   15CHL1  H11A 1071   6.464   3.206   9.683 -0.0876  0.1861  1.6198
   15CHL1  H11B 1072   6.642   3.213   9.715  0.5911 -0.0896 -0.0151
   15CHL1    C9 1073   6.538   3.405   9.718 -0.2631  0.2660 -0.1029
   15CHL1    H9 1074   6.631   3.465   9.703  0.1202  0.0031  1.1066
   15CHL1   C10 1075   6.505   3.410   9.869  1.1608  0.2855  0.3373
   15CHL1   C19 1076   6.388   3.301   9.896 -0.1787 -0.2285 -0.1260
   15CHL1  H19A 1077   6.437   3.201   9.903  0.6138  0.1880  0.5157
   15CHL1  H19B 1078   6.330   3.313   9.991 -3.6445 -4.2905 -1.3815
   15CHL1  H19C 1079   6.316   3.314   9.813 -0.9556  1.4493  0.7645
   15CHL1    C1 1080   6.639   3.382   9.955  0.3563 -0.3363  0.4198
   15CHL1   H1A 1081   6.674   3.279   9.936 -0.9123 -0.3384 -2.3978
   15CHL1   H1B 1082   6.708   3.460   9.917  0.2190 -0.1058  0.6414
   15CHL1    C2 1083   6.618   3.407  10.104 -0.2605  0.5746 -0.8457
   15CHL1   H2A 1084   6.712   3.392  10.162 -0.7992 -0.2268 -0.1521
   15CHL1   H2B 1085   6.542   3.335  10.142  1.6240 -0.6364  0.9012
   15CHL1   C20 1086   6.492   3.254   9.170 -0.0652  0.0462 -0.3875
   15CHL1   H20 1087   6.382   3.238   9.166 -0.1991  1.0319 -3.1870
   15CHL1   C21 1088   6.554   3.110   9.205  1.0921  0.2897 -0.0666
   15CHL1  H21A 1089   6.506   3.062   9.293  1.1643 -1.1572 -0.7903
   15CHL1  H21B 1090   6.660   3.131   9.230  0.6506  1.1302  1.2371
   15CHL1  H21C 1091   6.544   3.038   9.121  1.1496  1.5376 -1.1761
   15CHL1   C22 1092   6.525   3.292   9.020 -0.4480  0.0335 -0.4558
   15CHL1  H22A 1093   6.529   3.193   8.970 -0.0934 -1.4037  2.1945
   15CHL1  H22B 1094   6.438   3.337   8.968 -0.5041 -1.9021 -2.1533
   15CHL1   C23 1095   6.658   3.362   8.997  0.2760 -0.3609  0.5452
   15CHL1  H23A 1096   6.667   3.446   9.069 -3.9319 -1.8491  3.1404
   15CHL1  H23B 1097   6.728   3.282   9.029 -0.8841 -2.1878 -1.2562
   15CHL1   C24 1098   6.684   3.392   8.850  0.5395 -0.0458  0.0226
   15CHL1  H24A 1099   6.703   3.299   8.791 -2.7257 -1.7221  1.3301
   15CHL1  H24B 1100   6.584   3.427   8.816 -0.4473  0.0861  2.8436
   15CHL1   C25 1101   6.801   3.493   8.830  0.1215  0.4039 -0.2771
   15CHL1   H25 1102   6.814   3.500   8.720 -1.2563  2.0776 -0.3704
   15CHL1   C26 1103   6.765   3.628   8.886 -0.0814  0.1790 -0.1270
   15CHL1  H26A 1104   6.659   3.649   8.857 -0.4861 -1.3687  0.1357
   15CHL1  H26B 1105   6.772   3.639   8.996 -0.6224  1.7600 -0.2223
   15CHL1  H26C 1106   6.841   3.694   8.839  0.8535  0.1988  1.3662
   15CHL1   C27 1107   6.934   3.442   8.888 -0.2180 -0.4434  0.0013
   15CHL1  H27A 1108   7.010   3.522   8.883 -1.6548  0.8919 -1.4042
   15CHL1  H27B 1109   6.913   3.418   8.995 -1.0712  1.0288  0.1921
   15CHL1  H27C 1110   6.978   3.348   8.848  2.3557  1.4517 -1.8982
   16CHL1    C3 1111   1.160   2.786  10.304 -1.2230 -0.1763  0.1219
   16CHL1    H3 1112   1.052   2.813  10.296 -0.6534  1.7403 -2.3671
   16CHL1    O3 1113   1.194   2.788  10.439 -0.1825  0.5593 -0.9127
   16CHL1   H3' 1114   1.168   2.878  10.460 -0.1305  0.6739 -1.3297
   16CHL1    C4 1115   1.170   2.642  10.252  0.8351  0.3571 -0.3528
   16CHL1   H4A 1116   1.268   2.598  10.281  0.7137 -0.5130 -1.2073
   16CHL1   H4B 1117   1.096   2.589  10.315  0.6473  0.7187 -0.2654
   16CHL1    C5 1118   1.137   2.625  10.107 -0.4265 -0.2463  0.0033
   16CHL1    C6 1119   1.045   2.537  10.062  0.2412 -0.2822 -0.2913
   16CHL1    H6 1120   0.997   2.464  10.129 -1.3945  0.1051 -1.0071
   16CHL1    C7 1121   1.005   2.515   9.920  0.0210 -0.5411  0.5314
   16CHL1   H7A 1122   1.016   2.411   9.885 -1.4974  0.5106 -3.7075
   16CHL1   H7B 1123   0.899   2.547   9.905  0.2564  0.1911  0.3781
   16CHL1    C8 1124   1.096   2.598   9.822 -0.3204  0.6262 -0.2207
   16CHL1    H8 1125   1.192   2.540   9.822 -0.6866  0.0021 -0.9597
   16CHL1   C14 1126   1.036   2.598   9.691 -0.3648  0.1448 -0.1002
   16CHL1   H14 1127   0.941   2.655   9.699 -0.5907 -0.2389 -0.0276
   16CHL1   C15 1128   1.008   2.465   9.629  0.6476 -0.4690  0.1491
   16CHL1  H15A 1129   1.076   2.380   9.651  2.3113  0.6544 -0.4756
   16CHL1  H15B 1130   0.905   2.445   9.665 -0.0680  1.3623 -0.7530
   16CHL1   C16 1131   1.004   2.494   9.479 -0.5367  0.0644  0.1832
   16CHL1  H16A 1132   1.066   2.425   9.418  1.1333  1.6888 -0.0423
   16CHL1  H16B 1133   0.900   2.476   9.441  0.7661 -0.4176 -3.6072
   16CHL1   C17 1134   1.040   2.647   9.463 -0.7907  0.4067 -0.0385
   16CHL1   H17 1135   0.944   2.702   9.476 -0.9486  0.2334 -0.4675
   16CHL1   C13 1136   1.125   2.668   9.589 -0.1344  0.0438 -0.2393
   16CHL1   C18 1137   1.271   2.603   9.577 -0.2086  0.1278 -0.1332
   16CHL1  H18A 1138   1.329   2.659   9.501  1.3527  1.1837  1.7306
   16CHL1  H18B 1139   1.316   2.613   9.678 -1.2791 -1.1950  0.5171
   16CHL1  H18C 1140   1.274   2.494   9.557  0.3642 -0.2331  1.7223
   16CHL1   C12 1141   1.148   2.814   9.623 -0.0759 -0.1924 -1.0640
   16CHL1  H12A 1142   1.222   2.868   9.560 -0.4518  1.5900 -0.0337
   16CHL1  H12B 1143   1.053   2.868   9.606 -0.2112 -0.8313 -2.4954
   16CHL1   C11 1144   1.213   2.827   9.766 -0.0459 -0.1022  0.2475
   16CHL1  H11A 1145   1.319   2.794   9.773  0.3147  0.9296 -0.1280
   16CHL1  H11B 1146   1.215   2.933   9.800  1.2868  0.0546 -0.2650
   16CHL1    C9 1147   1.131   2.735   9.875 -0.4180 -0.4165 -0.1260
   16CHL1    H9 1148   1.031   2.777   9.897 -0.0657 -0.6717  2.1231
   16CHL1   C10 1149   1.202   2.732  10.013 -0.2553 -0.0589 -0.4332
   16CHL1   C19 1150   1.344   2.690  10.013 -0.2475 -0.2990  0.1557
   16CHL1  H19A 1151   1.384   2.691  10.116 -0.0019  2.6369  0.1162
   16CHL1  H19B 1152   1.364   2.589   9.973  1.0328 -0.7339  1.7851
   16CHL1  H19C 1153   1.415   2.761   9.964 -1.3815  1.0672  0.4315
   16CHL1    C1 1154   1.188   2.874  10.077  0.4002 -0.3944 -0.2065
   16CHL1   H1A 1155   1.249   2.946  10.017  1.9585 -0.5758  1.1116
   16CHL1   H1B 1156   1.083   2.910  10.063  0.8024  0.7699 -0.3563
   16CHL1    C2 1157   1.237   2.883  10.220 -0.0503  0.0676  0.9762
   16CHL1   H2A 1158   1.207   2.979  10.267 -0.4961  1.2970 -1.6285
   16CHL1   H2B 1159   1.347   2.871  10.231 -0.2036 -0.1717  2.4005
   16CHL1   C20 1160   1.095   2.686   9.320  0.3096 -0.5697 -0.1457
   16CHL1   H20 1161   1.201   2.654   9.317  0.3291 -0.5035 -0.1566
   16CHL1   C21 1162   1.085   2.837   9.309  0.5606  0.3510 -0.0535
   16CHL1  H21A 1163   1.155   2.890   9.377 -1.8268  1.0550  2.0250
   16CHL1  H21B 1164   0.988   2.878   9.343  1.4407  2.6380 -0.1167
   16CHL1  H21C 1165   1.109   2.868   9.205 -0.2319  1.5431  0.0954
   16CHL1   C22 1166   1.019   2.616   9.206  0.4145 -0.1643  0.4809
   16CHL1  H22A 1167   1.029   2.506   9.202  0.3850 -0.2117  1.3461
   16CHL1  H22B 1168   0.909   2.632   9.216  0.6575  0.7696  2.0439
   16CHL1   C23 1169   1.068   2.658   9.068  1.0410  0.0616 -0.5615
   16CHL1  H23A 1170   1.025   2.753   9.031 -0.8090  0.9138  3.3205
   16CHL1  H23B 1171   1.177   2.671   9.083  1.1595 -1.1507 -0.2313
   16CHL1   C24 1172   1.046   2.549   8.968  0.1619  0.4789  0.7660
   16CHL1  H24A 1173   1.117   2.466   8.983  0.3567  0.5293  0.1595
   16CHL1  H24B 1174   0.946   2.501   8.978  1.7829 -2.9617  1.9801
   16CHL1   C25 1175   1.053   2.601   8.823  0.4275  0.5178 -0.1841
   16CHL1   H25 1176   1.024   2.708   8.813 -1.4011  0.3038  1.9597
   16CHL1   C26 1177   1.200   2.595   8.780  0.5712 -0.0383  0.3417
   16CHL1  H26A 1178   1.250   2.499   8.756  2.9428  1.2871 -0.3994
   16CHL1  H26B 1179   1.209   2.672   8.700 -0.0342  2.1258  2.2362
   16CHL1  H26C 1180   1.256   2.644   8.863  0.1535 -3.3324  2.7446
   16CHL1   C27 1181   0.969   2.506   8.733 -0.0255  0.4130 -0.5680
   16CHL1  H27A 1182   0.970   2.535   8.626 -1.4240 -0.5461 -0.8621
   16CHL1  H27B 1183   1.012   2.404   8.739 -0.5172  0.2961  2.1081
   16CHL1  H27C 1184   0.867   2.514   8.775  0.0314 -2.6879  0.4135
   17CHL1    C3 1185   3.212   0.327  10.384  0.5362  0.4318  0.4765
   17CHL1    H3 1186   3.103   0.306  10.379  0.5564  0.6758 -2.2474
   17CHL1    O3 1187   3.226   0.361  10.519  0.3469 -0.5459  0.0454
   17CHL1   H3' 1188   3.320   0.376  10.533 -0.2877  1.8168  2.6416
   17CHL1    C4 1189   3.293   0.196  10.355 -0.9538  0.6276 -0.4428
   17CHL1   H4A 1190   3.396   0.218  10.391 -0.7398  0.9402 -1.2203
   17CHL1   H4B 1191   3.249   0.115  10.416 -0.2754  0.2224 -0.4732
   17CHL1    C5 1192   3.283   0.158  10.209  0.2407 -0.3122  0.9155
   17CHL1    C6 1193   3.233   0.043  10.169 -0.5700 -0.1566  0.0730
   17CHL1    H6 1194   3.211  -0.032  10.246 -0.0446 -2.0509 -1.5663
   17CHL1    C7 1195   3.221  -0.007  10.030 -0.3943 -0.1348  0.3973
   17CHL1   H7A 1196   3.281  -0.100  10.035  0.9282  0.6903  0.4879
   17CHL1   H7B 1197   3.118  -0.032   9.996 -1.5236  3.1503  1.0269
   17CHL1    C8 1198   3.292   0.083   9.926 -0.2320  0.2309  1.0215
   17CHL1    H8 1199   3.402   0.069   9.936 -0.0096 -2.4269 -3.0406
   17CHL1   C14 1200   3.241   0.046   9.787 -0.0508 -0.2619  0.1625
   17CHL1   H14 1201   3.131   0.053   9.806 -0.2094  2.7453 -1.2551
   17CHL1   C15 1202   3.266  -0.104   9.743  0.1953  0.0757  0.6457
   17CHL1  H15A 1203   3.362  -0.148   9.778 -1.0122 -3.6149 -0.2794
   17CHL1  H15B 1204   3.185  -0.158   9.798 -0.1970  2.2336  2.3689
   17CHL1   C16 1205   3.236  -0.097   9.588  0.2688 -0.2697  0.1175
   17CHL1  H16A 1206   3.322  -0.130   9.526 -0.5844 -0.7465 -0.8380
   17CHL1  H16B 1207   3.143  -0.155   9.570  1.2308 -2.6574  2.2262
   17CHL1   C17 1208   3.210   0.053   9.546  0.1796 -0.1526  0.0193
   17CHL1   H17 1209   3.100   0.061   9.553  0.0371 -0.7193 -1.2775
   17CHL1   C13 1210   3.278   0.138   9.666  0.0249 -0.0281  0.3480
   17CHL1   C18 1211   3.427   0.146   9.626  0.2643  0.7286 -0.3862
   17CHL1  H18A 1212   3.494   0.191   9.702 -0.9690  2.6570 -0.3698
   17CHL1  H18B 1213   3.454   0.042   9.601 -0.0536 -0.1078  2.3191
   17CHL1  H18C 1214   3.437   0.205   9.533  1.4214  0.5497 -0.3880
   17CHL1   C12 1215   3.226   0.276   9.706 -0.5055 -0.5533 -0.0336
   17CHL1  H12A 1216   3.253   0.356   9.633 -2.2530 -1.2430 -1.5213
   17CHL1  H12B 1217   3.115   0.276   9.709 -0.5880  2.4245  0.2716
   17CHL1   C11 1218   3.287   0.325   9.843 -0.2946 -0.5110 -0.2615
   17CHL1  H11A 1219   3.395   0.341   9.825 -0.2393  0.4117  0.7587
   17CHL1  H11B 1220   3.248   0.429   9.856  0.1773  0.3091 -4.1811
   17CHL1    C9 1221   3.259   0.229   9.963  0.4935 -0.1273  0.2307
   17CHL1    H9 1222   3.150   0.235   9.985  0.5923  1.1441  0.4405
   17CHL1   C10 1223   3.311   0.270  10.106 -0.1133  0.4473 -0.0394
   17CHL1   C19 1224   3.464   0.311  10.081 -0.1539  0.0153 -0.2948
   17CHL1  H19A 1225   3.512   0.332  10.179 -0.9777 -0.6590  0.2646
   17CHL1  H19B 1226   3.525   0.226  10.046  0.7980  1.3530 -2.0377
   17CHL1  H19C 1227   3.474   0.402  10.019  1.0531 -2.3017 -3.7499
   17CHL1    C1 1228   3.237   0.400  10.147 -0.2037  0.6739  0.4611
   17CHL1   H1A 1229   3.274   0.487  10.089 -1.4048 -0.1336 -1.6053
   17CHL1   H1B 1230   3.131   0.398  10.114  0.6761 -0.4545 -2.6235
   17CHL1    C2 1231   3.250   0.436  10.297  0.5084  0.0430  0.7145
   17CHL1   H2A 1232   3.203   0.534  10.322  0.6353 -0.0544  1.3661
   17CHL1   H2B 1233   3.358   0.458  10.316  0.7792 -1.9058  1.7043
   17CHL1   C20 1234   3.240   0.078   9.392  0.4751 -0.6436  0.3840
   17CHL1   H20 1235   3.341   0.046   9.360  0.2503  0.0425 -1.1262
   17CHL1   C21 1236   3.217   0.224   9.362 -0.3240 -0.1756 -0.0612
   17CHL1  H21A 1237   3.230   0.231   9.252 -1.2010  1.3329 -0.0941
   17CHL1  H21B 1238   3.284   0.303   9.404 -1.3756  1.6573 -1.6643
   17CHL1  H21C 1239   3.114   0.257   9.386 -0.7107 -1.3772  0.0036
   17CHL1   C22 1240   3.146  -0.015   9.301  0.3300 -0.3830  0.1793
   17CHL1  H22A 1241   3.133  -0.118   9.339 -0.7320 -1.4621 -2.7983
   17CHL1  H22B 1242   3.044   0.028   9.284  0.6197 -0.4378 -2.0962
   17CHL1   C23 1243   3.203  -0.019   9.149  0.9266  0.5013 -0.7776
   17CHL1  H23A 1244   3.217   0.087   9.121 -1.2965  1.5231  1.5810
   17CHL1  H23B 1245   3.296  -0.080   9.144  0.6552  0.0249 -0.2014
   17CHL1   C24 1246   3.087  -0.068   9.059 -0.5047 -0.2401  0.5208
   17CHL1  H24A 1247   3.067  -0.174   9.084 -0.7498 -0.4319 -0.4698
   17CHL1  H24B 1248   2.991  -0.020   9.087 -1.7255 -2.0501 -0.3888
   17CHL1   C25 1249   3.104  -0.059   8.902 -0.7301 -0.0403 -0.5148
   17CHL1   H25 1250   3.197  -0.118   8.886 -0.9435 -1.3323  2.4164
   17CHL1   C26 1251   2.986  -0.125   8.828  0.3145  0.6500  0.1079
   17CHL1  H26A 1252   2.905  -0.061   8.871  0.6969  2.3319 -1.5454
   17CHL1  H26B 1253   2.974  -0.096   8.721 -0.6649  2.4769  0.6666
   17CHL1  H26C 1254   2.982  -0.234   8.849 -0.5449  0.7197  0.3697
   17CHL1   C27 1255   3.123   0.086   8.857  0.6138  0.2626  0.2380
   17CHL1  H27A 1256   3.028   0.136   8.883 -0.8493 -2.4325  0.3375
   17CHL1  H27B 1257   3.216   0.124   8.906 -1.1598 -0.4617  4.4995
   17CHL1  H27C 1258   3.138   0.089   8.747 -0.1068 -3.2890 -0.0598
   18CHL1    C3 1259   2.857   6.519  10.145 -0.5186  0.1640 -0.3922
   18CHL1    H3 1260   2.965   6.541  10.128 -0.3760  0.9937  1.3056
   18CHL1    O3 1261   2.836   6.527  10.286  0.4484 -0.0344 -0.1939
   18CHL1   H3' 1262   2.758   6.473  10.302  2.2039 -2.6274  0.3066
   18CHL1    C4 1263   2.766   6.618  10.069 -0.3360 -0.0601 -0.1456
   18CHL1   H4A 1264   2.661   6.609  10.101  0.1595 -3.4002  0.9219
   18CHL1   H4B 1265   2.790   6.719  10.108 -1.5204 -0.2699  1.1795
   18CHL1    C5 1266   2.782   6.595   9.920 -0.2759  0.1419  0.3066
   18CHL1    C6 1267   2.817   6.694   9.843 -0.0851 -0.5990 -1.1723
   18CHL1    H6 1268   2.826   6.796   9.885  2.8892 -0.2443 -2.3945
   18CHL1    C7 1269   2.830   6.685   9.696 -0.4341  0.7396 -0.0278
   18CHL1   H7A 1270   2.788   6.778   9.653  0.5396  1.5198  0.6587
   18CHL1   H7B 1271   2.938   6.678   9.672 -0.4159 -4.3306  0.4792
   18CHL1    C8 1272   2.775   6.554   9.644  0.5988  0.4346  0.1201
   18CHL1    H8 1273   2.665   6.570   9.652  0.8158  1.4938  1.3252
   18CHL1   C14 1274   2.819   6.529   9.496  0.9861 -0.7936 -0.0383
   18CHL1   H14 1275   2.927   6.509   9.511  0.8121 -0.7165  1.5947
   18CHL1   C15 1276   2.813   6.646   9.394  0.2250 -0.1174  0.0640
   18CHL1  H15A 1277   2.719   6.704   9.393  0.2337 -0.1028 -0.3540
   18CHL1  H15B 1278   2.898   6.715   9.410  0.0977 -0.2598  1.4567
   18CHL1   C16 1279   2.817   6.577   9.261  0.3594  0.5202  0.1135
   18CHL1  H16A 1280   2.724   6.602   9.205 -0.9955  0.1786  2.1157
   18CHL1  H16B 1281   2.907   6.603   9.202  0.7475  0.1522  0.5401
   18CHL1   C17 1282   2.816   6.419   9.285 -0.1995 -0.3782 -0.6507
   18CHL1   H17 1283   2.924   6.394   9.292  0.9794  4.1259 -0.1152
   18CHL1   C13 1284   2.760   6.408   9.434  0.2024 -0.3503 -0.0588
   18CHL1   C18 1285   2.610   6.429   9.426  0.2509  0.3539 -0.2908
   18CHL1  H18A 1286   2.590   6.524   9.372  1.1414  0.7700  0.0968
   18CHL1  H18B 1287   2.564   6.339   9.379  0.8033 -0.5298  0.8318
   18CHL1  H18C 1288   2.556   6.444   9.522  0.2394 -0.6892 -0.1188
   18CHL1   C12 1289   2.799   6.288   9.510  0.7648 -0.1057 -0.0953
   18CHL1  H12A 1290   2.763   6.185   9.488 -0.0816  0.4985 -1.7187
   18CHL1  H12B 1291   2.906   6.273   9.487  1.1192  2.5419 -0.4467
   18CHL1   C11 1292   2.777   6.297   9.665 -0.0395 -0.2426 -0.1137
   18CHL1  H11A 1293   2.668   6.280   9.677 -0.2736  1.4978  0.5673
   18CHL1  H11B 1294   2.834   6.215   9.714 -2.5118 -2.5829 -0.8877
   18CHL1    C9 1295   2.811   6.435   9.726 -0.5975  0.2577 -0.4483
   18CHL1    H9 1296   2.922   6.437   9.719 -0.6444 -1.1107 -2.7727
   18CHL1   C10 1297   2.765   6.453   9.873  0.0284  0.3561  0.2634
   18CHL1   C19 1298   2.610   6.422   9.884  0.5434 -0.3570  0.4000
   18CHL1  H19A 1299   2.552   6.463   9.798 -0.3174 -0.2259  1.0325
   18CHL1  H19B 1300   2.597   6.312   9.874  1.0358 -0.2191 -2.9449
   18CHL1  H19C 1301   2.561   6.459   9.976 -3.1613  0.0854 -1.5737
   18CHL1    C1 1302   2.847   6.355   9.962  0.5900 -0.3735  0.2248
   18CHL1   H1A 1303   2.815   6.253   9.933 -0.4246 -0.5305  1.7523
   18CHL1   H1B 1304   2.950   6.377   9.928  0.5263  2.0934  1.3612
   18CHL1    C2 1305   2.832   6.372  10.106  0.1053  0.4525 -1.1473
   18CHL1   H2A 1306   2.895   6.296  10.155 -0.9718  0.3226  0.0965
   18CHL1   H2B 1307   2.725   6.356  10.135  0.2135  1.4475 -0.0993
   18CHL1   C20 1308   2.758   6.337   9.168 -0.0541  0.6458 -0.4511
   18CHL1   H20 1309   2.652   6.371   9.162 -0.2822  0.1199  0.4481
   18CHL1   C21 1310   2.756   6.192   9.194 -0.0962  0.3150  0.0946
   18CHL1  H21A 1311   2.852   6.137   9.201 -1.1874 -1.5678  1.2466
   18CHL1  H21B 1312   2.708   6.138   9.110  0.3118 -0.1983  0.1926
   18CHL1  H21C 1313   2.691   6.175   9.283  1.4170 -1.1938  0.9659
   18CHL1   C22 1314   2.825   6.372   9.034  0.1813  0.7283  0.6491
   18CHL1  H22A 1315   2.849   6.480   9.023  1.1840  0.6562  1.9251
   18CHL1  H22B 1316   2.931   6.339   9.034 -0.3292 -1.0896 -0.8886
   18CHL1   C23 1317   2.757   6.303   8.910  0.2340 -0.2040 -0.2634
   18CHL1  H23A 1318   2.784   6.195   8.906  0.3147 -0.1864 -0.1942
   18CHL1  H23B 1319   2.646   6.299   8.919  0.4180 -2.5242  2.0942
   18CHL1   C24 1320   2.803   6.371   8.781 -0.8871 -0.2543  0.1574
   18CHL1  H24A 1321   2.769   6.477   8.787 -0.7347 -0.0542 -1.6832
   18CHL1  H24B 1322   2.913   6.362   8.776 -0.9654 -0.9177 -0.6093
   18CHL1   C25 1323   2.740   6.307   8.652  0.2296  0.1250  0.4665
   18CHL1   H25 1324   2.776   6.202   8.645 -1.1185 -0.2910 -1.1083
   18CHL1   C26 1325   2.589   6.314   8.648  0.8689 -0.5024 -0.8672
   18CHL1  H26A 1326   2.550   6.275   8.552  0.4838 -1.5431 -0.3102
   18CHL1  H26B 1327   2.543   6.266   8.737  2.2124 -0.6868 -0.2355
   18CHL1  H26C 1328   2.546   6.416   8.639  0.8903 -0.5390 -1.3648
   18CHL1   C27 1329   2.800   6.381   8.532  0.3510 -0.3453 -0.0316
   18CHL1  H27A 1330   2.773   6.342   8.432  2.2678 -1.2252 -0.2502
   18CHL1  H27B 1331   2.751   6.481   8.540  1.1207 -0.0174  0.7593
   18CHL1  H27C 1332   2.910   6.395   8.541  0.3630 -0.1320 -0.4997
   19CHL1    C3 1333   4.877   2.520  10.188 -0.1397 -0.2865  0.8156
   19CHL1    H3 1334   4.898   2.629  10.189 -0.6277 -0.1909  0.9781
   19CHL1    O3 1335   4.865   2.474  10.319 -0.5798  0.3946 -0.0705
   19CHL1   H3' 1336   4.940   2.522  10.355  0.4706 -1.8150  0.8781
   19CHL1    C4 1337   4.736   2.510  10.124  0.3714 -0.3172 -0.3134
   19CHL1   H4A 1338   4.722   2.400  10.124  0.3906 -0.3231  0.2605
   19CHL1   H4B 1339   4.660   2.560  10.187  0.6916 -0.1882 -0.0244
   19CHL1    C5 1340   4.736   2.567   9.987 -0.5084 -0.5992  0.2401
   19CHL1    C6 1341   4.661   2.676   9.951 -0.3206  0.2499 -0.1024
   19CHL1    H6 1342   4.623   2.749  10.025  1.1991 -0.0918  1.0697
   19CHL1    C7 1343   4.667   2.730   9.805 -0.0228 -0.4221 -0.1030
   19CHL1   H7A 1344   4.564   2.765   9.784  1.3696  3.8978 -0.7911
   19CHL1   H7B 1345   4.732   2.821   9.800  0.2929 -0.7197 -1.8210
   19CHL1    C8 1346   4.714   2.630   9.703 -0.1717 -0.1749  0.5652
   19CHL1    H8 1347   4.643   2.548   9.679  0.8250 -0.8647 -0.1519
   19CHL1   C14 1348   4.747   2.705   9.571  0.3490  0.0116 -0.3513
   19CHL1   H14 1349   4.830   2.773   9.599  0.4740 -0.4649  0.4450
   19CHL1   C15 1350   4.646   2.804   9.521  0.2384 -0.3425  0.2827
   19CHL1  H15A 1351   4.539   2.772   9.523 -0.0425  0.6239  1.1796
   19CHL1  H15B 1352   4.663   2.900   9.573  0.1757 -0.4556  0.5153
   19CHL1   C16 1353   4.686   2.828   9.374  0.7880 -0.0766 -0.1144
   19CHL1  H16A 1354   4.609   2.773   9.316  1.9541  0.2072 -2.0252
   19CHL1  H16B 1355   4.703   2.932   9.340 -0.2812 -0.1215 -0.8304
   19CHL1   C17 1356   4.816   2.734   9.344  1.0886  0.1193  0.2598
   19CHL1   H17 1357   4.905   2.797   9.366  1.7209 -1.1088  1.3614
   19CHL1   C13 1358   4.805   2.624   9.456  0.0127 -0.0753  0.3217
   19CHL1   C18 1359   4.704   2.516   9.419  0.1281  0.4113  0.2178
   19CHL1  H18A 1360   4.616   2.567   9.374 -0.5298 -0.3861  0.5845
   19CHL1  H18B 1361   4.743   2.442   9.345  1.5100 -1.7598  2.9561
   19CHL1  H18C 1362   4.664   2.463   9.508  0.6154  0.5562  0.5236
   19CHL1   C12 1363   4.936   2.572   9.511  0.0351 -0.0741  0.9539
   19CHL1  H12A 1364   4.986   2.508   9.435  1.9230 -0.3009  2.2970
   19CHL1  H12B 1365   5.006   2.657   9.528 -1.1845  1.4191 -1.0667
   19CHL1   C11 1366   4.913   2.496   9.637 -0.6981  1.0072 -0.2277
   19CHL1  H11A 1367   4.864   2.400   9.610 -0.7376  0.9566  0.0196
   19CHL1  H11B 1368   5.015   2.476   9.676 -0.9091  1.3305  0.5131
   19CHL1    C9 1369   4.842   2.572   9.756  0.7671  0.1646  0.0046
   19CHL1    H9 1370   4.909   2.658   9.778  1.6342 -1.0022  2.2687
   19CHL1   C10 1371   4.827   2.495   9.891  0.5010  0.2908 -0.0592
   19CHL1   C19 1372   4.766   2.356   9.860 -0.3143 -0.1310  0.1485
   19CHL1  H19A 1373   4.662   2.363   9.822  0.3115  2.7797 -1.3423
   19CHL1  H19B 1374   4.837   2.316   9.785  4.2344  3.1148  2.2445
   19CHL1  H19C 1375   4.774   2.288   9.947  1.2031  0.6439  0.6612
   19CHL1    C1 1376   4.960   2.486   9.965  0.3316 -0.1566  0.7491
   19CHL1   H1A 1377   5.021   2.413   9.906 -2.2470  0.4651 -3.0996
   19CHL1   H1B 1378   5.006   2.586   9.954  0.3982 -0.3552 -1.1281
   19CHL1    C2 1379   4.973   2.438  10.109 -0.5435 -0.2850 -0.0851
   19CHL1   H2A 1380   5.077   2.447  10.147 -0.7830 -0.1487  0.5601
   19CHL1   H2B 1381   4.937   2.333  10.109  0.0616 -0.4964 -0.9571
   19CHL1   C20 1382   4.820   2.690   9.195  0.5754 -0.7604 -0.3757
   19CHL1   H20 1383   4.724   2.642   9.168 -0.1274 -0.3996  1.3296
   19CHL1   C21 1384   4.939   2.591   9.172  0.1870 -0.0925  0.2332
   19CHL1  H21A 1385   4.948   2.554   9.068 -0.5907 -1.0755  0.4939
   19CHL1  H21B 1386   4.917   2.501   9.234  0.2776  0.0971  0.5419
   19CHL1  H21C 1387   5.030   2.644   9.207  1.0779 -1.7683  0.5548
   19CHL1   C22 1388   4.847   2.810   9.107  0.3808  0.7770  0.6944
   19CHL1  H22A 1389   4.783   2.899   9.129  0.2569  0.5852  1.1234
   19CHL1  H22B 1390   4.955   2.834   9.111  0.2969  0.9674  2.7112
   19CHL1   C23 1391   4.821   2.777   8.956 -0.3901  0.8143 -0.8662
   19CHL1  H23A 1392   4.900   2.708   8.918  0.3574  1.1623  0.0287
   19CHL1  H23B 1393   4.723   2.723   8.958  0.1978 -0.3014  1.9405
   19CHL1   C24 1394   4.820   2.890   8.862 -0.3606 -0.3005  0.9988
   19CHL1  H24A 1395   4.724   2.945   8.874  1.3869  3.2545 -0.2211
   19CHL1  H24B 1396   4.895   2.959   8.906 -1.0091 -0.4655  2.4396
   19CHL1   C25 1397   4.838   2.860   8.717 -0.8356 -0.2605 -0.7472
   19CHL1   H25 1398   4.926   2.793   8.708 -1.0821 -1.0040  1.5735
   19CHL1   C26 1399   4.721   2.774   8.666  0.0356  0.9991  0.3520
   19CHL1  H26A 1400   4.620   2.819   8.683 -0.8150  0.1284 -1.9680
   19CHL1  H26B 1401   4.726   2.759   8.556  0.8343  0.3413  0.4688
   19CHL1  H26C 1402   4.713   2.677   8.719  3.5078  0.4303  0.0640
   19CHL1   C27 1403   4.859   2.984   8.643 -0.3560  0.0914 -0.2136
   19CHL1  H27A 1404   4.848   2.961   8.535 -0.1350  1.0486 -0.4518
   19CHL1  H27B 1405   4.785   3.061   8.674  0.1069  0.2042  0.6368
   19CHL1  H27C 1406   4.961   3.022   8.664 -0.6178  0.0331  1.2460
   20CHL1    C3 1407   1.470   3.329  10.172 -0.5542 -0.1856 -0.2391
   20CHL1    H3 1408   1.450   3.433  10.140 -0.7510  0.3515  1.5414
   20CHL1    O3 1409   1.470   3.337  10.315  0.4932  0.4540  0.0773
   20CHL1   H3' 1410   1.519   3.262  10.349  1.2729 -0.7281 -3.2973
   20CHL1    C4 1411   1.363   3.238  10.119 -0.2812 -0.1751 -0.1215
   20CHL1   H4A 1412   1.371   3.135  10.160  3.4855  1.3505  3.7552
   20CHL1   H4B 1413   1.269   3.271  10.169  0.0606 -2.5123  2.3020
   20CHL1    C5 1414   1.369   3.241   9.966 -0.3285  0.0359  0.0707
   20CHL1    C6 1415   1.271   3.290   9.895 -0.2582 -1.1289  0.1675
   20CHL1    H6 1416   1.173   3.308   9.941 -1.4765 -1.6003 -2.0911
   20CHL1    C7 1417   1.264   3.291   9.745  0.2764  0.5014 -0.3873
   20CHL1   H7A 1418   1.164   3.257   9.711  0.8303 -2.3140  0.4956
   20CHL1   H7B 1419   1.265   3.397   9.711 -1.5474  0.4083 -0.8206
   20CHL1    C8 1420   1.371   3.204   9.687  0.4048 -0.1471 -0.0472
   20CHL1    H8 1421   1.343   3.098   9.706  0.2323 -0.2249 -0.7054
   20CHL1   C14 1422   1.380   3.226   9.537  0.3834 -0.1696  0.0391
   20CHL1   H14 1423   1.409   3.333   9.537 -0.3568  0.0827  1.8611
   20CHL1   C15 1424   1.249   3.215   9.451  0.2722 -0.3733  0.1095
   20CHL1  H15A 1425   1.181   3.133   9.484 -0.2829 -0.1986 -0.5564
   20CHL1  H15B 1426   1.188   3.308   9.454  0.2717 -0.2899 -1.5638
   20CHL1   C16 1427   1.302   3.202   9.308 -0.7321  0.3397 -0.4348
   20CHL1  H16A 1428   1.264   3.113   9.254  0.9426  0.1516 -1.3670
   20CHL1  H16B 1429   1.284   3.292   9.246  1.5259  1.7594  0.8413
   20CHL1   C17 1430   1.456   3.203   9.320 -0.4116  0.1180 -0.1339
   20CHL1   H17 1431   1.494   3.307   9.319  1.8161 -0.6011  1.3717
   20CHL1   C13 1432   1.485   3.151   9.467  0.0964 -0.1141 -0.2292
   20CHL1   C18 1433   1.453   3.002   9.471  0.2283 -0.5780  0.0552
   20CHL1  H18A 1434   1.523   2.941   9.410  1.2321  2.6472 -2.3095
   20CHL1  H18B 1435   1.454   2.961   9.575  1.5696 -1.9819 -0.4664
   20CHL1  H18C 1436   1.354   2.979   9.426  0.0083 -1.2734  0.8612
   20CHL1   C12 1437   1.619   3.194   9.534 -0.4145 -0.3110 -0.4041
   20CHL1  H12A 1438   1.711   3.140   9.499 -1.3974 -2.3287 -0.0095
   20CHL1  H12B 1439   1.642   3.303   9.528  0.9198 -0.6031 -1.2235
   20CHL1   C11 1440   1.621   3.152   9.683 -0.5692 -0.0837 -0.4173
   20CHL1  H11A 1441   1.608   3.042   9.696  0.5385 -0.0472  1.4140
   20CHL1  H11B 1442   1.720   3.177   9.729  1.0693 -0.6355 -3.3588
   20CHL1    C9 1443   1.510   3.227   9.758  0.7994 -0.7778  0.5077
   20CHL1    H9 1444   1.532   3.336   9.751  3.3594 -1.0114  3.1245
   20CHL1   C10 1445   1.504   3.201   9.909 -0.3123 -1.0233 -0.3278
   20CHL1   C19 1446   1.525   3.052   9.945  0.4425 -0.2591  0.0804
   20CHL1  H19A 1447   1.524   3.020  10.052 -0.8246 -1.2138 -0.1851
   20CHL1  H19B 1448   1.452   2.987   9.891  0.2933 -0.3532  0.3925
   20CHL1  H19C 1449   1.622   3.025   9.900  0.6955  0.9630 -0.1359
   20CHL1    C1 1450   1.620   3.286   9.973  0.2758  0.6367 -0.1771
   20CHL1   H1A 1451   1.719   3.239   9.955 -0.1882 -0.7044  0.6621
   20CHL1   H1B 1452   1.602   3.389   9.936 -2.6066  0.1937 -0.2504
   20CHL1    C2 1453   1.614   3.295  10.126 -0.7016 -0.1040  0.0332
   20CHL1   H2A 1454   1.692   3.364  10.167 -1.3007  0.6626 -0.1068
   20CHL1   H2B 1455   1.636   3.196  10.172  0.0705  0.6649  1.3847
   20CHL1   C20 1456   1.523   3.125   9.200 -0.0139  0.6297 -0.4288
   20CHL1   H20 1457   1.494   3.018   9.210  0.1785  0.4582 -1.5358
   20CHL1   C21 1458   1.674   3.124   9.210  0.4349 -0.1083 -0.2176
   20CHL1  H21A 1459   1.704   3.227   9.239 -1.1431  0.0962  0.8196
   20CHL1  H21B 1460   1.734   3.107   9.118  0.7931 -2.8242  0.4319
   20CHL1  H21C 1461   1.712   3.057   9.290  1.8909  0.2036 -0.6155
   20CHL1   C22 1462   1.476   3.174   9.060 -0.6356  0.1478  0.3598
   20CHL1  H22A 1463   1.367   3.196   9.049 -0.1900  1.5987 -1.6561
   20CHL1  H22B 1464   1.531   3.266   9.033 -0.5696 -0.5001 -1.9247
   20CHL1   C23 1465   1.506   3.079   8.950  0.8023  0.1948 -1.0507
   20CHL1  H23A 1466   1.616   3.063   8.942  0.6321 -2.4994  0.7011
   20CHL1  H23B 1467   1.464   2.980   8.981 -1.5028  0.5782 -2.6776
   20CHL1   C24 1468   1.452   3.131   8.819  0.6321 -0.2396  0.0904
   20CHL1  H24A 1469   1.343   3.109   8.814  0.3222  1.1285  0.2693
   20CHL1  H24B 1470   1.470   3.240   8.805  1.6185 -0.2376  1.1985
   20CHL1   C25 1471   1.517   3.067   8.692  0.3740 -0.1544 -0.0495
   20CHL1   H25 1472   1.540   2.959   8.704 -0.3807 -0.3618 -0.4259
   20CHL1   C26 1473   1.414   3.057   8.572 -0.2340 -0.0066  0.0261
   20CHL1  H26A 1474   1.390   3.157   8.528 -2.6536 -1.5628 -2.5129
   20CHL1  H26B 1475   1.466   3.010   8.486  2.2068  0.5981  1.0776
   20CHL1  H26C 1476   1.314   3.016   8.596  0.0120 -0.0946  0.9490
   20CHL1   C27 1477   1.640   3.140   8.662 -0.5829  0.3058  0.6938
   20CHL1  H27A 1478   1.616   3.235   8.611 -2.9668 -0.0626  1.0519
   20CHL1  H27B 1479   1.710   3.156   8.747  0.3058 -0.6333  0.1707
   20CHL1  H27C 1480   1.699   3.081   8.587  1.9189  2.4445  0.8215
   21CHL1    C3 1481   2.024   5.514  10.320  0.0466  0.4706 -0.3819
   21CHL1    H3 1482   2.097   5.431  10.312 -0.1694  0.3069 -0.6524
   21CHL1    O3 1483   1.999   5.517  10.461  0.3950 -0.1996  0.8514
   21CHL1   H3' 1484   1.951   5.600  10.472  0.2577  0.3059 -2.5830
   21CHL1    C4 1485   2.097   5.631  10.264  0.1178 -0.3781 -0.3272
   21CHL1   H4A 1486   2.052   5.725  10.301  0.5366  0.5241 -1.9987
   21CHL1   H4B 1487   2.197   5.631  10.312 -0.4840 -0.8476  0.9610
   21CHL1    C5 1488   2.117   5.638  10.113 -0.1708 -0.5394  0.0471
   21CHL1    C6 1489   2.232   5.679  10.064  0.4046 -0.1047  0.0749
   21CHL1    H6 1490   2.315   5.721  10.123 -0.3579  0.5068  0.7426
   21CHL1    C7 1491   2.270   5.676   9.914  0.3879 -0.1329  0.0038
   21CHL1   H7A 1492   2.308   5.776   9.883 -2.0195  0.7010 -0.4287
   21CHL1   H7B 1493   2.337   5.591   9.889 -1.4002 -1.7786  0.5371
   21CHL1    C8 1494   2.147   5.655   9.825  0.2603  0.4374  0.3647
   21CHL1    H8 1495   2.094   5.752   9.825  3.0049  2.0574  1.5046
   21CHL1   C14 1496   2.193   5.614   9.687 -0.1940  0.0874 -0.1258
   21CHL1   H14 1497   2.232   5.510   9.692 -0.6072 -0.0718 -0.1749
   21CHL1   C15 1498   2.305   5.686   9.607 -0.9444  0.0381  0.0884
   21CHL1  H15A 1499   2.291   5.796   9.606 -1.5972 -0.0004  1.7578
   21CHL1  H15B 1500   2.410   5.663   9.638 -0.9826 -0.4491 -0.1229
   21CHL1   C16 1501   2.291   5.620   9.467 -0.2915  0.8724 -0.2084
   21CHL1  H16A 1502   2.293   5.695   9.384  0.1401  0.7500 -0.3113
   21CHL1  H16B 1503   2.378   5.551   9.459 -0.9313  0.0084  0.1756
   21CHL1   C17 1504   2.159   5.537   9.468 -0.4042 -0.1698  0.3185
   21CHL1   H17 1505   2.181   5.430   9.485  0.9117  0.0502  0.1853
   21CHL1   C13 1506   2.074   5.586   9.589 -0.4410  0.3029 -0.2559
   21CHL1   C18 1507   2.003   5.717   9.553 -0.1366  0.0316 -0.1437
   21CHL1  H18A 1508   1.911   5.693   9.496 -0.1930  0.9896 -0.4682
   21CHL1  H18B 1509   1.969   5.774   9.642 -1.8067  1.3872 -1.5833
   21CHL1  H18C 1510   2.069   5.784   9.493 -0.4160  0.1203 -0.3530
   21CHL1   C12 1511   1.982   5.480   9.644 -0.7377 -0.5440 -0.3661
   21CHL1  H12A 1512   1.898   5.453   9.576 -0.9500 -1.4538  0.2370
   21CHL1  H12B 1513   2.031   5.385   9.672 -0.4689  0.0760  1.3562
   21CHL1   C11 1514   1.935   5.511   9.783 -0.4877 -0.4048 -0.6186
   21CHL1  H11A 1515   1.875   5.605   9.773  0.1964  0.0016 -1.0302
   21CHL1  H11B 1516   1.875   5.423   9.812 -0.7952 -0.0338 -0.1056
   21CHL1    C9 1517   2.050   5.551   9.881 -0.0762 -0.4920  0.5461
   21CHL1    H9 1518   2.112   5.459   9.888  1.4602  0.6249  3.2932
   21CHL1   C10 1519   2.002   5.589  10.030  0.2227  1.3301 -0.3569
   21CHL1   C19 1520   1.894   5.689  10.013 -0.1706  0.6450 -0.4640
   21CHL1  H19A 1521   1.807   5.630   9.979 -0.4281  0.7259  0.0457
   21CHL1  H19B 1522   1.859   5.721  10.113 -0.9944  1.4442 -0.9918
   21CHL1  H19C 1523   1.909   5.774   9.943 -1.1047 -0.1858 -1.7177
   21CHL1    C1 1524   1.940   5.463  10.088 -0.0041 -0.4419  0.5320
   21CHL1   H1A 1525   1.861   5.424  10.021  2.4993 -2.8209 -1.2737
   21CHL1   H1B 1526   2.012   5.378  10.084  0.2399 -0.2011 -0.9714
   21CHL1    C2 1527   1.895   5.475  10.234  0.3000  0.1174  0.3655
   21CHL1   H2A 1528   1.849   5.381  10.271  2.5656 -1.3586 -0.3485
   21CHL1   H2B 1529   1.816   5.552  10.243  1.9259  2.2589 -2.1280
   21CHL1   C20 1530   2.102   5.539   9.321 -0.2898  0.8221 -0.0524
   21CHL1   H20 1531   2.098   5.643   9.281  1.4018  1.3440  1.0493
   21CHL1   C21 1532   1.958   5.473   9.307  1.0571  0.0996 -0.4704
   21CHL1  H21A 1533   1.925   5.459   9.202  1.6188  0.2667 -0.6683
   21CHL1  H21B 1534   1.886   5.543   9.354  0.9156  0.2966 -0.9704
   21CHL1  H21C 1535   1.955   5.372   9.354  0.8504  0.0490 -0.5866
   21CHL1   C22 1536   2.197   5.472   9.221  0.5419  0.5660 -0.4303
   21CHL1  H22A 1537   2.302   5.502   9.242  1.4698 -1.8016 -1.3407
   21CHL1  H22B 1538   2.198   5.364   9.248 -1.2178  0.4748 -0.6417
   21CHL1   C23 1539   2.162   5.512   9.074  0.2835  0.1908 -0.1255
   21CHL1  H23A 1540   2.054   5.490   9.059  0.3636 -2.9896  2.7845
   21CHL1  H23B 1541   2.176   5.622   9.066 -1.6978  0.6556  1.8523
   21CHL1   C24 1542   2.251   5.433   8.972  0.1802  0.9650 -0.0457
   21CHL1  H24A 1543   2.202   5.458   8.876 -0.7154  1.0312  0.4102
   21CHL1  H24B 1544   2.352   5.478   8.968 -0.2624  1.9724 -0.0914
   21CHL1   C25 1545   2.250   5.276   8.990  0.2765 -0.2476  0.5307
   21CHL1   H25 1546   2.303   5.254   9.085  1.5749  2.1627  0.4633
   21CHL1   C26 1547   2.114   5.214   8.999  0.0253 -0.3715  0.3988
   21CHL1  H26A 1548   2.039   5.280   9.048  1.4281  1.0995  0.6446
   21CHL1  H26B 1549   2.084   5.191   8.895  1.5715  0.3748 -0.2436
   21CHL1  H26C 1550   2.120   5.120   9.058  0.6867 -1.2595 -1.0172
   21CHL1   C27 1551   2.323   5.205   8.880 -0.3644 -0.3273 -0.0172
   21CHL1  H27A 1552   2.300   5.203   8.771  3.3792 -0.9271 -0.9429
   21CHL1  H27B 1553   2.431   5.233   8.877 -0.2900 -0.6911 -1.0662
   21CHL1  H27C 1554   2.309   5.097   8.902  0.5942 -0.8361 -1.6595
   22CHL1    C3 1555   1.933   6.269  10.103  0.4806  0.2533  0.4705
   22CHL1    H3 1556   1.914   6.377  10.089  1.2327  0.1765 -1.3953
   22CHL1    O3 1557   1.915   6.229  10.236  0.2532 -0.2920 -0.2801
   22CHL1   H3' 1558   1.822   6.215  10.253  0.4459  0.7016  2.0419
   22CHL1    C4 1559   1.831   6.189  10.012 -0.1668  0.5537  0.2449
   22CHL1   H4A 1560   1.831   6.086  10.051  0.4616  1.3784  2.5877
   22CHL1   H4B 1561   1.733   6.238  10.031  0.3591  1.0421  1.8384
   22CHL1    C5 1562   1.869   6.205   9.862  0.2072 -0.1457  0.4942
   22CHL1    C6 1563   1.768   6.224   9.778  0.1783 -0.4506  0.0031
   22CHL1    H6 1564   1.663   6.218   9.811  0.3356  1.2352  0.9443
   22CHL1    C7 1565   1.790   6.250   9.626  0.1364  0.8219  0.9938
   22CHL1   H7A 1566   1.702   6.209   9.571 -1.0076 -0.6561  3.6709
   22CHL1   H7B 1567   1.806   6.358   9.608  2.8577  0.1292 -1.5315
   22CHL1    C8 1568   1.928   6.190   9.582 -0.2887  0.2161  0.3687
   22CHL1    H8 1569   1.936   6.079   9.574  0.2119  0.3401 -1.2057
   22CHL1   C14 1570   1.963   6.247   9.436  0.3052 -0.0200 -0.1512
   22CHL1   H14 1571   1.962   6.357   9.452  1.5449 -0.0618  0.2784
   22CHL1   C15 1572   1.856   6.223   9.322  0.2411 -0.3508 -0.1971
   22CHL1  H15A 1573   1.817   6.120   9.308 -0.9272 -0.1329  1.2025
   22CHL1  H15B 1574   1.775   6.298   9.319  0.6937  0.2041  0.7141
   22CHL1   C16 1575   1.944   6.259   9.196 -0.0504  0.1062 -0.7208
   22CHL1  H16A 1576   1.930   6.164   9.140  1.2482 -1.2739  1.1666
   22CHL1  H16B 1577   1.910   6.341   9.130 -0.2302  0.4097 -0.2525
   22CHL1   C17 1578   2.099   6.277   9.237 -0.6528 -1.0282 -0.0775
   22CHL1   H17 1579   2.121   6.386   9.242  1.0298 -1.3114 -0.6777
   22CHL1   C13 1580   2.103   6.208   9.382  0.0826 -0.5261 -0.1347
   22CHL1   C18 1581   2.112   6.054   9.368  0.9716  0.0288 -0.0468
   22CHL1  H18A 1582   2.038   6.005   9.301  0.1373  0.7517  0.3281
   22CHL1  H18B 1583   2.220   6.041   9.346  1.2351  0.2246  1.0617
   22CHL1  H18C 1584   2.110   6.014   9.471 -1.1382  1.1231  0.3903
   22CHL1   C12 1585   2.199   6.276   9.485 -0.7607  0.3166 -0.2559
   22CHL1  H12A 1586   2.301   6.242   9.458 -1.2584 -0.0805 -1.7434
   22CHL1  H12B 1587   2.193   6.387   9.477  0.3494  0.5419  1.4475
   22CHL1   C11 1588   2.182   6.227   9.632  0.2607 -0.5321  0.0560
   22CHL1  H11A 1589   2.209   6.119   9.642 -0.7516 -0.5948  3.2687
   22CHL1  H11B 1590   2.254   6.291   9.689  0.9495  0.2784 -1.6457
   22CHL1    C9 1591   2.035   6.239   9.676 -0.4349  0.0002 -0.4327
   22CHL1    H9 1592   2.014   6.348   9.671 -3.4002 -0.4882 -0.5871
   22CHL1   C10 1593   2.016   6.194   9.821  0.8268  0.0257  0.0814
   22CHL1   C19 1594   2.041   6.039   9.833  0.6499 -0.0498 -0.0743
   22CHL1  H19A 1595   2.035   6.008   9.939  2.3279 -1.6147 -0.3733
   22CHL1  H19B 1596   1.975   5.968   9.778  0.8019 -0.7344  0.6080
   22CHL1  H19C 1597   2.143   6.017   9.795 -0.3121 -2.0687 -1.6832
   22CHL1    C1 1598   2.100   6.282   9.917 -0.5297  0.2294  0.2662
   22CHL1   H1A 1599   2.208   6.265   9.895 -0.4470  1.8456 -0.6928
   22CHL1   H1B 1600   2.073   6.385   9.886 -0.6772  0.0890 -0.0846
   22CHL1    C2 1601   2.078   6.250  10.063 -0.1982  0.1061  0.1381
   22CHL1   H2A 1602   2.131   6.330  10.119  1.9216 -0.2899 -1.1725
   22CHL1   H2B 1603   2.140   6.161  10.086  0.9321  0.4282 -1.4598
   22CHL1   C20 1604   2.184   6.209   9.125 -0.0898 -0.2172  0.3422
   22CHL1   H20 1605   2.171   6.099   9.141 -0.0712 -0.2415  0.1895
   22CHL1   C21 1606   2.334   6.248   9.171  0.5948 -0.0560  0.5349
   22CHL1  H21A 1607   2.410   6.244   9.091  0.1644  0.0990  0.1149
   22CHL1  H21B 1608   2.371   6.180   9.251 -1.5881 -0.6598  1.1039
   22CHL1  H21C 1609   2.340   6.355   9.199 -0.6088  0.5339 -1.3030
   22CHL1   C22 1610   2.157   6.255   8.983  0.8601  0.1854  0.0177
   22CHL1  H22A 1611   2.203   6.180   8.915 -1.3137  1.3120 -2.8705
   22CHL1  H22B 1612   2.048   6.252   8.962  0.6684  3.1743  0.1784
   22CHL1   C23 1613   2.197   6.388   8.939  0.0564  0.0361  0.1896
   22CHL1  H23A 1614   2.153   6.465   9.006  1.3103  1.1381 -0.2067
   22CHL1  H23B 1615   2.305   6.413   8.937  0.3054 -0.9609 -2.2297
   22CHL1   C24 1616   2.150   6.401   8.791 -0.5156  0.4926  0.1076
   22CHL1  H24A 1617   2.217   6.339   8.729  0.8853  3.3699 -1.4900
   22CHL1  H24B 1618   2.046   6.362   8.781 -0.4687  0.4392 -0.1787
   22CHL1   C25 1619   2.142   6.544   8.734 -0.0647  0.1703  0.2037
   22CHL1   H25 1620   2.243   6.587   8.719  0.0119 -0.3010 -0.7177
   22CHL1   C26 1621   2.071   6.537   8.596 -0.0010  0.0862  0.1209
   22CHL1  H26A 1622   1.969   6.495   8.605 -0.5438  1.1423 -0.7811
   22CHL1  H26B 1623   2.069   6.639   8.552  3.2811  0.2306  0.0189
   22CHL1  H26C 1624   2.121   6.468   8.525 -0.4032 -0.7877  0.6791
   22CHL1   C27 1625   2.065   6.634   8.827 -0.0443  0.3631 -0.1350
   22CHL1  H27A 1626   1.973   6.591   8.873  0.6562 -0.1418  0.8508
   22CHL1  H27B 1627   2.127   6.674   8.911  0.3941  0.6484 -0.5911
   22CHL1  H27C 1628   2.037   6.717   8.759 -2.5896 -0.7868 -0.6001
   23CHL1    C3 1629   4.219   2.373  10.179 -0.5761 -0.9966  0.4673
   23CHL1    H3 1630   4.290   2.288  10.169  1.4453  0.8701 -2.6737
   23CHL1    O3 1631   4.211   2.416  10.313 -0.1186 -0.1621 -1.1758
   23CHL1   H3' 1632   4.149   2.359  10.358  2.7644 -1.1723  1.9360
   23CHL1    C4 1633   4.278   2.485  10.091 -0.1200  0.0704 -0.2916
   23CHL1   H4A 1634   4.235   2.582  10.123 -0.4374  0.5865 -2.1717
   23CHL1   H4B 1635   4.381   2.495  10.131 -0.4191  0.5889  0.3928
   23CHL1    C5 1636   4.261   2.481   9.942  0.0503  0.4147  1.1959
   23CHL1    C6 1637   4.364   2.502   9.865  0.6432  0.0957  0.3374
   23CHL1    H6 1638   4.457   2.532   9.915  0.4865  0.0714  0.6472
   23CHL1    C7 1639   4.358   2.514   9.721  0.0840  0.1812  0.4370
   23CHL1   H7A 1640   4.417   2.596   9.674  0.0714 -0.2523 -0.3620
   23CHL1   H7B 1641   4.415   2.432   9.672  0.2585  1.9201 -2.5631
   23CHL1    C8 1642   4.213   2.518   9.659 -0.6666 -0.3907  0.0353
   23CHL1    H8 1643   4.191   2.626   9.676  2.4296  0.0410  1.9945
   23CHL1   C14 1644   4.217   2.472   9.516  0.5742 -0.1840  0.0205
   23CHL1   H14 1645   4.257   2.369   9.526  2.6148  0.2621 -2.2985
   23CHL1   C15 1646   4.324   2.539   9.417 -0.2015  0.6469  0.6596
   23CHL1  H15A 1647   4.343   2.646   9.437  2.5992  0.0138  1.7808
   23CHL1  H15B 1648   4.421   2.488   9.434  0.6209  1.9739  0.0297
   23CHL1   C16 1649   4.265   2.509   9.280 -0.1771  0.4417 -0.3860
   23CHL1  H16A 1650   4.228   2.606   9.240 -1.3711  0.3305  0.4190
   23CHL1  H16B 1651   4.342   2.454   9.222  0.6390 -0.1266  1.1838
   23CHL1   C17 1652   4.127   2.435   9.307 -0.2429 -0.5638  0.5007
   23CHL1   H17 1653   4.140   2.325   9.300  0.0928 -0.4780 -0.3296
   23CHL1   C13 1654   4.088   2.474   9.448  0.1171 -0.3759 -0.5319
   23CHL1   C18 1655   4.046   2.624   9.439  0.6142  0.1291 -0.3152
   23CHL1  H18A 1656   4.037   2.669   9.540  1.0510  0.0187 -0.2246
   23CHL1  H18B 1657   4.119   2.690   9.388 -0.0284 -0.0304 -1.4827
   23CHL1  H18C 1658   3.949   2.632   9.385  0.1761 -2.7720 -0.1173
   23CHL1   C12 1659   3.987   2.383   9.527 -0.3053  0.4474  0.1210
   23CHL1  H12A 1660   3.884   2.383   9.486  0.0392  4.2205 -1.1200
   23CHL1  H12B 1661   4.033   2.283   9.515 -1.9160 -0.7144  2.6829
   23CHL1   C11 1662   3.983   2.405   9.679  0.2478  0.0421  0.6321
   23CHL1  H11A 1663   3.925   2.499   9.693  1.2951  0.8207 -0.1161
   23CHL1  H11B 1664   3.918   2.324   9.719 -0.2603 -0.3041 -0.8412
   23CHL1    C9 1665   4.128   2.422   9.742  0.0519  0.2113  0.4637
   23CHL1    H9 1666   4.181   2.324   9.737  0.8314  0.5688  1.3254
   23CHL1   C10 1667   4.123   2.444   9.897 -0.3577 -0.4087 -0.1180
   23CHL1   C19 1668   4.045   2.570   9.918  0.5997  0.2243  0.3428
   23CHL1  H19A 1669   3.936   2.548   9.920  1.1283 -2.6119  2.0798
   23CHL1  H19B 1670   4.060   2.628  10.012 -1.0259  0.2967  0.5896
   23CHL1  H19C 1671   4.065   2.643   9.837 -2.5329 -2.3746 -3.0945
   23CHL1    C1 1672   4.067   2.325   9.979  0.1679  0.2633  0.0757
   23CHL1   H1A 1673   3.958   2.315   9.962 -0.0928  0.2258  1.5794
   23CHL1   H1B 1674   4.115   2.229   9.953 -0.0543 -0.1223  1.0432
   23CHL1    C2 1675   4.082   2.338  10.128 -0.7287  0.0907 -0.0880
   23CHL1   H2A 1676   4.051   2.239  10.167 -0.4457  0.4101  0.9580
   23CHL1   H2B 1677   4.008   2.413  10.163 -1.4363 -0.4244 -0.4472
   23CHL1   C20 1678   4.030   2.470   9.194  0.2753 -0.3182  0.2176
   23CHL1   H20 1679   4.024   2.580   9.180  1.6235 -0.2474  0.0810
   23CHL1   C21 1680   3.885   2.432   9.236 -0.3224  0.0200 -0.1393
   23CHL1  H21A 1681   3.842   2.505   9.308  0.5138  0.4649 -0.0908
   23CHL1  H21B 1682   3.893   2.328   9.275  0.2859  0.5106  1.0967
   23CHL1  H21C 1683   3.814   2.421   9.151  0.9277 -3.9547 -0.8856
   23CHL1   C22 1684   4.074   2.406   9.056  0.1333  0.2750  0.1007
   23CHL1  H22A 1685   4.181   2.428   9.036  0.2573  0.6820  1.1416
   23CHL1  H22B 1686   4.067   2.297   9.075 -1.0449  0.3604  0.2257
   23CHL1   C23 1687   3.994   2.439   8.934 -0.1443  0.1199  0.4120
   23CHL1  H23A 1688   3.889   2.409   8.953 -0.6185  1.4279 -0.0145
   23CHL1  H23B 1689   3.991   2.549   8.916  1.0334  0.0312 -0.4068
   23CHL1   C24 1690   4.057   2.373   8.812 -0.2859  0.6130 -0.2106
   23CHL1  H24A 1691   4.129   2.448   8.772 -1.3521  1.4365 -0.6610
   23CHL1  H24B 1692   4.111   2.282   8.843 -1.1263  0.7023  1.6712
   23CHL1   C25 1693   3.960   2.339   8.699 -0.8373 -0.0380 -0.2966
   23CHL1   H25 1694   3.875   2.279   8.738  0.7688 -0.9107  2.1007
   23CHL1   C26 1695   3.904   2.475   8.643 -0.1046 -0.1553  0.1833
   23CHL1  H26A 1696   3.989   2.537   8.607  1.1914  0.0245  3.2874
   23CHL1  H26B 1697   3.831   2.463   8.560 -0.2661 -0.6310  0.3855
   23CHL1  H26C 1698   3.862   2.540   8.723  2.3845 -0.3800  1.7704
   23CHL1   C27 1699   4.019   2.253   8.582 -0.4938 -0.2547  0.2923
   23CHL1  H27A 1700   4.047   2.149   8.609 -1.6410 -1.0828 -1.5492
   23CHL1  H27B 1701   3.946   2.234   8.500 -0.3741  1.0951 -0.1539
   23CHL1  H27C 1702   4.109   2.304   8.542  1.1106 -2.7174  0.5639
   24CHL1    C3 1703   5.474   2.459  10.150 -0.2407  0.1611 -0.2242
   24CHL1    H3 1704   5.524   2.557  10.137  1.5465 -0.4956  1.3095
   24CHL1    O3 1705   5.466   2.452  10.292  0.0788 -0.3325 -0.3621
   24CHL1   H3' 1706   5.431   2.365  10.313  0.2995 -0.1000  1.1156
   24CHL1    C4 1707   5.335   2.461  10.088 -0.4357 -0.1416 -0.0176
   24CHL1   H4A 1708   5.280   2.370  10.118 -2.1088  1.3201  1.5885
   24CHL1   H4B 1709   5.287   2.552  10.130  1.5344  0.8466  0.2148
   24CHL1    C5 1710   5.354   2.473   9.936 -0.3436  0.5837 -0.4105
   24CHL1    C6 1711   5.311   2.585   9.871 -0.0821  0.4354 -0.0909
   24CHL1    H6 1712   5.249   2.661   9.921 -1.5179  0.4278 -1.7523
   24CHL1    C7 1713   5.340   2.602   9.724  0.0360 -0.1885 -0.3508
   24CHL1   H7A 1714   5.257   2.660   9.678  0.7107  3.2286  2.3585
   24CHL1   H7B 1715   5.438   2.650   9.703  0.0123 -0.9701 -2.6524
   24CHL1    C8 1716   5.359   2.468   9.653  0.5036  0.2750 -0.2133
   24CHL1    H8 1717   5.265   2.410   9.668 -0.3288  0.8706 -2.5590
   24CHL1   C14 1718   5.390   2.500   9.507  0.3019 -0.0485 -0.5668
   24CHL1   H14 1719   5.487   2.554   9.516  1.9343 -2.7150 -0.8715
   24CHL1   C15 1720   5.302   2.576   9.414 -0.1879  0.6782  0.5405
   24CHL1  H15A 1721   5.194   2.558   9.432  0.5274 -1.7778  3.1992
   24CHL1  H15B 1722   5.323   2.684   9.430 -0.8264  0.7993  0.6039
   24CHL1   C16 1723   5.340   2.538   9.276 -0.7559  0.0777  1.2848
   24CHL1  H16A 1724   5.259   2.509   9.205  0.9721  0.3385 -0.9129
   24CHL1  H16B 1725   5.380   2.621   9.214  0.2998 -0.0115  1.8279
   24CHL1   C17 1726   5.456   2.433   9.288  0.4908  0.1597 -0.7919
   24CHL1   H17 1727   5.549   2.493   9.286 -0.3014  1.4808  0.0370
   24CHL1   C13 1728   5.437   2.376   9.431  0.7260 -0.4616  0.5054
   24CHL1   C18 1729   5.314   2.283   9.432  0.4441  0.1522 -0.1305
   24CHL1  H18A 1730   5.282   2.243   9.530  0.4297  1.7051  0.5192
   24CHL1  H18B 1731   5.228   2.327   9.377  1.2206  1.5533 -0.2822
   24CHL1  H18C 1732   5.329   2.195   9.365 -0.0576  0.2502 -0.3778
   24CHL1   C12 1733   5.559   2.307   9.486  0.3389 -0.7047 -0.8069
   24CHL1  H12A 1734   5.562   2.206   9.441 -1.6075 -1.7679  1.2752
   24CHL1  H12B 1735   5.656   2.362   9.486  1.2726 -2.0517  2.7901
   24CHL1   C11 1736   5.526   2.273   9.633  0.3398  0.3726  0.6572
   24CHL1  H11A 1737   5.449   2.193   9.625  0.9045 -0.5208  3.1009
   24CHL1  H11B 1738   5.605   2.214   9.685 -0.7771 -0.5816  1.3318
   24CHL1    C9 1739   5.472   2.393   9.714 -0.5280  0.1752  0.6107
   24CHL1    H9 1740   5.547   2.475   9.717 -2.4841  2.0532  0.9076
   24CHL1   C10 1741   5.438   2.361   9.865 -0.2463  0.3496  0.5705
   24CHL1   C19 1742   5.361   2.227   9.872  0.2321 -0.6053 -0.1981
   24CHL1  H19A 1743   5.256   2.236   9.835 -0.1284 -0.5534  0.7815
   24CHL1  H19B 1744   5.416   2.151   9.813  1.3472  1.2063 -1.5586
   24CHL1  H19C 1745   5.365   2.208   9.982 -0.6458  1.0800  0.1616
   24CHL1    C1 1746   5.572   2.353   9.941  0.7717 -0.4033 -0.3340
   24CHL1   H1A 1747   5.632   2.265   9.909  0.5400 -0.6749 -0.0245
   24CHL1   H1B 1748   5.626   2.447   9.915 -1.8620  1.1083 -0.6135
   24CHL1    C2 1749   5.567   2.352  10.091 -0.5556 -0.4419 -0.6404
   24CHL1   H2A 1750   5.657   2.373  10.152 -1.6003  2.1174  0.1395
   24CHL1   H2B 1751   5.535   2.250  10.123  0.5096 -0.4537  0.4841
   24CHL1   C20 1752   5.454   2.338   9.162 -0.1038 -0.3581 -0.4016
   24CHL1   H20 1753   5.353   2.290   9.157 -1.5059  2.0760  2.1407
   24CHL1   C21 1754   5.561   2.233   9.179 -0.1808  0.1036  0.6434
   24CHL1  H21A 1755   5.659   2.267   9.221  1.0499 -2.6982  0.2817
   24CHL1  H21B 1756   5.582   2.190   9.079 -0.1040 -1.7557  1.4080
   24CHL1  H21C 1757   5.530   2.150   9.246  0.8625  1.1887  2.5581
   24CHL1   C22 1758   5.479   2.422   9.031  0.6070  0.9147 -0.6212
   24CHL1  H22A 1759   5.391   2.488   9.017  1.0493  1.7288  0.3376
   24CHL1  H22B 1760   5.563   2.493   9.043  1.6635 -0.5594  1.1771
   24CHL1   C23 1761   5.493   2.348   8.894  0.7163  0.7403  0.4588
   24CHL1  H23A 1762   5.573   2.272   8.903 -1.2247 -1.5852 -0.8158
   24CHL1  H23B 1763   5.396   2.301   8.866  0.6048 -0.4399  2.6142
   24CHL1   C24 1764   5.532   2.442   8.780 -0.2277  0.1517 -0.2142
   24CHL1  H24A 1765   5.449   2.509   8.748 -1.3155 -0.4026  1.3425
   24CHL1  H24B 1766   5.618   2.510   8.799 -0.0971 -0.5961  2.2161
   24CHL1   C25 1767   5.576   2.359   8.654  0.1472 -0.5614 -0.1215
   24CHL1   H25 1768   5.505   2.275   8.645  0.0507 -0.6045  0.9382
   24CHL1   C26 1769   5.587   2.442   8.528  0.4190 -0.2576  0.1611
   24CHL1  H26A 1770   5.624   2.377   8.446 -1.2498 -0.3648 -0.5555
   24CHL1  H26B 1771   5.493   2.483   8.485  0.8094  0.9219  0.3860
   24CHL1  H26C 1772   5.652   2.531   8.537  0.1496  0.1341 -1.5310
   24CHL1   C27 1773   5.721   2.310   8.684 -0.2628  0.1434 -0.5490
   24CHL1  H27A 1774   5.766   2.272   8.590 -1.3737  0.8420 -1.3817
   24CHL1  H27B 1775   5.791   2.375   8.742  0.4960 -0.9078 -0.2622
   24CHL1  H27C 1776   5.719   2.231   8.762 -0.4021  0.5801 -0.1002
   25CHL1    C3 1777   0.910   3.268  10.317 -1.0541 -0.1369 -0.4292
   25CHL1    H3 1778   1.012   3.296  10.282 -1.3282 -0.2368 -1.3105
   25CHL1    O3 1779   0.904   3.265  10.458  0.2464  0.4295  0.4138
   25CHL1   H3' 1780   0.939   3.351  10.482 -0.3225  0.7363  0.1582
   25CHL1    C4 1781   0.806   3.372  10.252  0.2533 -0.3511  0.6631
   25CHL1   H4A 1782   0.704   3.346  10.287  0.1144  2.5435  2.7550
   25CHL1   H4B 1783   0.827   3.472  10.296  1.4744  0.3313 -1.3296
   25CHL1    C5 1784   0.811   3.387  10.096 -0.5886  0.0340  0.4785
   25CHL1    C6 1785   0.836   3.498  10.023  0.2168 -0.3727  0.5791
   25CHL1    H6 1786   0.846   3.595  10.073 -0.9879 -0.6965  1.4930
   25CHL1    C7 1787   0.856   3.511   9.873  0.0476  0.9777  0.5226
   25CHL1   H7A 1788   0.797   3.596   9.834  1.6940  1.9021 -0.0462
   25CHL1   H7B 1789   0.963   3.519   9.844  0.3399  2.9112  1.9286
   25CHL1    C8 1790   0.800   3.392   9.799  0.0523  0.4498  0.6938
   25CHL1    H8 1791   0.690   3.406   9.808  0.0433  0.0470  1.2572
   25CHL1   C14 1792   0.853   3.386   9.659 -0.1549 -0.0921 -0.3940
   25CHL1   H14 1793   0.961   3.365   9.671  0.4041  2.4746 -0.3510
   25CHL1   C15 1794   0.842   3.517   9.577  0.4745 -0.4648  0.2382
   25CHL1  H15A 1795   0.747   3.576   9.578  0.6676 -0.1090 -0.9024
   25CHL1  H15B 1796   0.921   3.594   9.592  0.4413 -0.6712  1.5503
   25CHL1   C16 1797   0.875   3.465   9.430 -0.9181 -0.0026  0.0845
   25CHL1  H16A 1798   0.788   3.491   9.366 -1.8255 -1.2987  0.7363
   25CHL1  H16B 1799   0.966   3.503   9.379 -1.0690  0.0795 -0.1256
   25CHL1   C17 1800   0.867   3.304   9.439 -0.0950 -0.1704  0.1059
   25CHL1   H17 1801   0.972   3.268   9.444 -0.5896 -1.6523  0.4355
   25CHL1   C13 1802   0.801   3.274   9.570 -0.1362  0.3266 -0.4836
   25CHL1   C18 1803   0.647   3.278   9.566 -0.6677  0.3077 -0.2715
   25CHL1  H18A 1804   0.602   3.277   9.667  0.3862 -1.5025  0.2296
   25CHL1  H18B 1805   0.618   3.365   9.504  1.4315  0.6471 -0.8707
   25CHL1  H18C 1806   0.608   3.186   9.517 -0.2224  1.3916 -2.8564
   25CHL1   C12 1807   0.852   3.146   9.648  0.7070  0.1855  0.0177
   25CHL1  H12A 1808   0.813   3.052   9.603  1.4325 -0.6898  1.1480
   25CHL1  H12B 1809   0.962   3.149   9.654  0.6935  0.4690  0.1130
   25CHL1   C11 1810   0.809   3.132   9.793  0.9277  0.2575 -0.0773
   25CHL1  H11A 1811   0.703   3.097   9.790  0.5815  1.2753 -0.5165
   25CHL1  H11B 1812   0.853   3.042   9.840 -0.8424 -1.1987 -1.0869
   25CHL1    C9 1813   0.841   3.266   9.876  0.1941  0.2142  0.1813
   25CHL1    H9 1814   0.950   3.282   9.886  0.1380  0.6245  0.1597
   25CHL1   C10 1815   0.795   3.257  10.024  0.0566  0.2864 -0.6323
   25CHL1   C19 1816   0.649   3.215  10.029  0.0151 -0.6738 -0.0647
   25CHL1  H19A 1817   0.631   3.127   9.964  0.7853 -2.2348  1.7229
   25CHL1  H19B 1818   0.623   3.185  10.133  4.1193 -1.5414  0.8992
   25CHL1  H19C 1819   0.577   3.292   9.994 -0.5468 -0.0238  2.3434
   25CHL1    C1 1820   0.881   3.149  10.092 -0.7939  0.3786 -0.1156
   25CHL1   H1A 1821   0.846   3.048  10.061 -2.0901 -0.1187  2.6847
   25CHL1   H1B 1822   0.986   3.181  10.072 -0.0702 -1.5667  0.3599
   25CHL1    C2 1823   0.879   3.135  10.244  0.1854 -0.0857  0.1837
   25CHL1   H2A 1824   0.961   3.062  10.264 -0.2945 -0.0546  2.6081
   25CHL1   H2B 1825   0.785   3.090  10.281  1.5430 -1.4869  2.1576
   25CHL1   C20 1826   0.809   3.249   9.314  0.4437  0.8052 -0.2967
   25CHL1   H20 1827   0.705   3.285   9.320  0.6552  1.1669  3.1290
   25CHL1   C21 1828   0.800   3.099   9.314  1.1783  0.0099  0.2931
   25CHL1  H21A 1829   0.754   3.058   9.407 -0.4997  0.3436 -0.3428
   25CHL1  H21B 1830   0.899   3.051   9.307  1.8231  1.3652 -0.1493
   25CHL1  H21C 1831   0.739   3.068   9.226  2.0411  1.3945 -0.8251
   25CHL1   C22 1832   0.857   3.310   9.177 -0.2139 -0.1462 -0.7950
   25CHL1  H22A 1833   0.805   3.257   9.095 -0.5594 -0.9068 -0.0943
   25CHL1  H22B 1834   0.821   3.415   9.168  0.3532  0.2379  1.0430
   25CHL1   C23 1835   1.003   3.283   9.156 -0.6258  0.3044  0.3663
   25CHL1  H23A 1836   1.076   3.337   9.220  0.2826 -0.5839  0.1069
   25CHL1  H23B 1837   1.026   3.177   9.179 -0.2684  0.4030  0.4679
   25CHL1   C24 1838   1.051   3.313   9.015 -0.0498 -0.1005 -0.0372
   25CHL1  H24A 1839   1.026   3.416   8.981  0.6141 -0.9599 -3.6055
   25CHL1  H24B 1840   1.162   3.305   9.011 -0.0641 -0.1131 -0.4812
   25CHL1   C25 1841   1.002   3.214   8.904 -0.1428 -0.1510 -0.1064
   25CHL1   H25 1842   0.891   3.205   8.905 -0.1196 -0.7147 -1.3666
   25CHL1   C26 1843   1.056   3.249   8.760 -0.3757  0.4081 -0.1626
   25CHL1  H26A 1844   1.034   3.357   8.749  1.0704  0.7598  0.1356
   25CHL1  H26B 1845   1.167   3.237   8.754  0.1001  3.7687  0.1327
   25CHL1  H26C 1846   0.996   3.200   8.681 -0.2614  0.8456 -0.5262
   25CHL1   C27 1847   1.043   3.066   8.941  0.2146 -0.9899  0.2673
   25CHL1  H27A 1848   1.148   3.066   8.977 -0.6153 -1.3596  2.8937
   25CHL1  H27B 1849   0.968   3.024   9.012 -0.9857  0.0356 -0.3459
   25CHL1  H27C 1850   1.043   3.015   8.842 -2.7583 -0.4959 -0.0881
   26CHL1    C3 1851   1.855   0.019  10.212  0.3473 -0.2172  0.0877
   26CHL1    H3 1852   1.954   0.059  10.183  1.4904 -2.0128  1.2966
   26CHL1    O3 1853   1.848   0.013  10.356  0.6985 -0.1323  0.7659
   26CHL1   H3' 1854   1.753   0.018  10.368  0.5996 -0.6060  0.2590
   26CHL1    C4 1855   1.759   0.117  10.140  0.0336  0.0664 -0.2911
   26CHL1   H4A 1856   1.664   0.073  10.177  1.2873 -1.7240  0.9719
   26CHL1   H4B 1857   1.780   0.213  10.191 -2.8487  0.3404  0.5820
   26CHL1    C5 1858   1.770   0.114   9.990 -0.9587  0.4038 -0.0340
   26CHL1    C6 1859   1.792   0.228   9.921  1.0449  0.0375 -0.4874
   26CHL1    H6 1860   1.788   0.321   9.981  0.0730  0.1155 -0.6568
   26CHL1    C7 1861   1.823   0.237   9.773 -0.0398 -0.1886  0.3587
   26CHL1   H7A 1862   1.764   0.313   9.719 -0.1548 -0.0766  0.6410
   26CHL1   H7B 1863   1.928   0.262   9.748  0.5560 -1.7251  1.1653
   26CHL1    C8 1864   1.782   0.101   9.700  0.1502 -0.0027  0.5281
   26CHL1    H8 1865   1.671   0.092   9.710  0.0916 -0.2951 -0.3416
   26CHL1   C14 1866   1.824   0.097   9.554 -0.1125  0.2260  1.1127
   26CHL1   H14 1867   1.932   0.119   9.549 -0.0017 -0.5612 -0.8281
   26CHL1   C15 1868   1.778   0.209   9.460  0.0195  0.5991 -0.2704
   26CHL1  H15A 1869   1.668   0.219   9.462  0.2009  3.2518 -0.0989
   26CHL1  H15B 1870   1.816   0.313   9.470  1.2716  0.4776 -2.9293
   26CHL1   C16 1871   1.817   0.155   9.324 -0.2510  0.5512  0.2738
   26CHL1  H16A 1872   1.738   0.175   9.249  0.7520 -0.5181 -1.1070
   26CHL1  H16B 1873   1.908   0.201   9.279  0.0214  1.0581  1.2970
   26CHL1   C17 1874   1.838  -0.001   9.335 -0.0363 -0.1995  0.2014
   26CHL1   H17 1875   1.943  -0.036   9.339  0.0119  0.0215  1.0374
   26CHL1   C13 1876   1.793  -0.031   9.475  0.3551 -0.4223 -0.2630
   26CHL1   C18 1877   1.646  -0.057   9.487  0.4200  0.1790 -0.0240
   26CHL1  H18A 1878   1.600  -0.150   9.446  0.1162  0.2333  0.1897
   26CHL1  H18B 1879   1.611  -0.064   9.592 -2.4324 -0.3788 -0.9193
   26CHL1  H18C 1880   1.596   0.028   9.436  0.8634  0.6548  0.3324
   26CHL1   C12 1881   1.878  -0.138   9.553 -0.6226  0.4686 -0.1076
   26CHL1  H12A 1882   1.873  -0.233   9.496 -0.5226  1.1448 -1.2704
   26CHL1  H12B 1883   1.982  -0.100   9.543 -0.6600  1.8071  3.3107
   26CHL1   C11 1884   1.844  -0.154   9.702  0.6608 -0.4742 -0.2943
   26CHL1  H11A 1885   1.745  -0.204   9.708  1.0544 -1.6421 -2.5464
   26CHL1  H11B 1886   1.915  -0.222   9.753 -0.6761 -1.4040  0.3748
   26CHL1    C9 1887   1.839  -0.012   9.783 -0.1363  0.1432 -0.0596
   26CHL1    H9 1888   1.949   0.001   9.795 -0.0888  0.9630 -1.2290
   26CHL1   C10 1889   1.771  -0.028   9.922 -0.4812  0.0020  0.2735
   26CHL1   C19 1890   1.629  -0.085   9.907 -1.3723 -0.3929 -0.2578
   26CHL1  H19A 1891   1.610  -0.174   9.843 -0.3621 -1.0197  0.2909
   26CHL1  H19B 1892   1.604  -0.132  10.004 -1.4581 -0.6079 -0.3836
   26CHL1  H19C 1893   1.555  -0.004   9.889 -0.3171  0.5074 -0.6808
   26CHL1    C1 1894   1.861  -0.124  10.003 -0.0427 -1.1565  0.2887
   26CHL1   H1A 1895   1.848  -0.230   9.971 -3.1983 -1.1517  1.2186
   26CHL1   H1B 1896   1.964  -0.092   9.979 -0.2495  0.1111  1.0132
   26CHL1    C2 1897   1.840  -0.126  10.156 -0.2275  0.0247  0.7307
   26CHL1   H2A 1898   1.919  -0.187  10.204 -1.6140 -0.9271  1.8728
   26CHL1   H2B 1899   1.749  -0.180  10.189 -0.1139  0.1616  1.2731
   26CHL1   C20 1900   1.772  -0.075   9.223 -0.1000  0.1541  0.5799
   26CHL1   H20 1901   1.662  -0.064   9.225 -0.2397 -1.1275  1.6607
   26CHL1   C21 1902   1.797  -0.224   9.229 -0.0373 -0.1476  0.6083
   26CHL1  H21A 1903   1.906  -0.242   9.222 -0.1219 -0.1489 -1.7986
   26CHL1  H21B 1904   1.751  -0.282   9.146  0.0982 -2.5468  2.1296
   26CHL1  H21C 1905   1.767  -0.267   9.327 -1.0756 -3.4838 -1.0222
   26CHL1   C22 1906   1.813  -0.030   9.082  0.5895 -0.0778 -0.1147
   26CHL1  H22A 1907   1.819   0.081   9.071  3.5818 -0.3300 -2.1445
   26CHL1  H22B 1908   1.916  -0.057   9.050  0.7848  0.1458  0.3141
   26CHL1   C23 1909   1.717  -0.074   8.972  0.2814  0.1298 -0.2330
   26CHL1  H23A 1910   1.732  -0.179   8.941  1.5336  0.5727 -1.2098
   26CHL1  H23B 1911   1.611  -0.074   9.007  0.1682 -1.0988 -0.5412
   26CHL1   C24 1912   1.733   0.020   8.846 -0.3542  0.0633  0.1717
   26CHL1  H24A 1913   1.685   0.118   8.871  0.0031 -0.0938  1.5979
   26CHL1  H24B 1914   1.842   0.041   8.833 -0.4082  3.2788  3.2091
   26CHL1   C25 1915   1.683  -0.037   8.709 -0.0076  0.0201 -0.1532
   26CHL1   H25 1916   1.732  -0.133   8.682 -1.3222 -0.9523  0.8031
   26CHL1   C26 1917   1.542  -0.075   8.721  0.7656 -0.4900  0.8634
   26CHL1  H26A 1918   1.521  -0.156   8.794 -1.9103 -0.5556  0.1219
   26CHL1  H26B 1919   1.501   0.017   8.768  2.3722  0.3542  0.6707
   26CHL1  H26C 1920   1.498  -0.102   8.623 -1.0213 -0.9629  1.7480
   26CHL1   C27 1921   1.695   0.070   8.601 -0.6712 -0.8299  0.2613
   26CHL1  H27A 1922   1.660   0.169   8.637 -1.5435 -1.4932  1.2656
   26CHL1  H27B 1923   1.803   0.089   8.580 -0.9472  0.0033 -0.4842
   26CHL1  H27C 1924   1.643   0.035   8.510  0.1067 -0.1131 -0.4802
   27CHL1    C3 1925   1.689   4.008  10.310  0.2132  0.3565 -0.3601
   27CHL1    H3 1926   1.662   3.901  10.299  1.3406 -0.0070  0.3434
   27CHL1    O3 1927   1.705   4.033  10.448 -0.3345  0.0028  0.1749
   27CHL1   H3' 1928   1.652   4.112  10.457  0.5930  1.1086 -2.7459
   27CHL1    C4 1929   1.823   4.042  10.237 -0.6655 -0.3960 -0.2882
   27CHL1   H4A 1930   1.846   4.147  10.265 -1.5310 -0.4165  0.5869
   27CHL1   H4B 1931   1.903   3.980  10.281 -2.1991 -0.9197  1.9458
   27CHL1    C5 1932   1.817   4.034  10.088 -0.3964  0.1191  0.6864
   27CHL1    C6 1933   1.906   3.954  10.028 -0.0219  0.0566 -0.3683
   27CHL1    H6 1934   1.983   3.899  10.084 -0.0857 -1.3458 -1.5926
   27CHL1    C7 1935   1.905   3.939   9.876 -0.8743  0.4798 -0.3845
   27CHL1   H7A 1936   2.009   3.920   9.842  0.0689 -2.0264  3.2150
   27CHL1   H7B 1937   1.859   3.838   9.867  0.0609 -0.0568  0.5847
   27CHL1    C8 1938   1.823   4.050   9.800  0.4659  0.4516  0.0492
   27CHL1    H8 1939   1.875   4.149   9.802 -1.2707  1.5795 -3.4332
   27CHL1   C14 1940   1.795   3.992   9.658  0.2960 -0.5548  0.1430
   27CHL1   H14 1941   1.730   3.903   9.668  2.2422 -1.8624  2.1926
   27CHL1   C15 1942   1.913   3.950   9.571  0.1275 -0.1405 -0.2225
   27CHL1  H15A 1943   1.987   4.032   9.566 -1.5563  1.3799 -2.3039
   27CHL1  H15B 1944   1.957   3.850   9.592  1.1158  0.6184  1.5102
   27CHL1   C16 1945   1.853   3.945   9.431  0.3815  0.0526 -0.6641
   27CHL1  H16A 1946   1.933   3.987   9.367 -0.5940  2.9597 -0.1251
   27CHL1  H16B 1947   1.842   3.840   9.398  0.4112 -0.2753  0.3341
   27CHL1   C17 1948   1.719   4.024   9.426  0.2972 -0.4383 -0.0606
   27CHL1   H17 1949   1.634   3.955   9.446  0.5028 -0.3692  1.1365
   27CHL1   C13 1950   1.718   4.098   9.565  0.1308 -0.0605  0.0331
   27CHL1   C18 1951   1.807   4.217   9.552 -0.2845 -0.5446 -0.1178
   27CHL1  H18A 1952   1.895   4.207   9.486 -1.2733  0.1420 -1.5840
   27CHL1  H18B 1953   1.759   4.295   9.489  1.0307 -0.5180 -1.1076
   27CHL1  H18C 1954   1.834   4.261   9.651 -0.7588  1.2813 -0.7543
   27CHL1   C12 1955   1.585   4.133   9.639  0.0441  0.4311 -0.0737
   27CHL1  H12A 1956   1.526   4.207   9.581  0.3127 -0.8699 -2.1283
   27CHL1  H12B 1957   1.531   4.036   9.637  0.6976 -0.2439  4.4141
   27CHL1   C11 1958   1.611   4.180   9.789 -0.4912  0.1178  0.1179
   27CHL1  H11A 1959   1.659   4.280   9.779  0.7981 -0.5928 -1.0429
   27CHL1  H11B 1960   1.517   4.189   9.848  0.9116 -0.3552  2.5732
   27CHL1    C9 1961   1.692   4.072   9.872  0.1406  0.0035  0.0692
   27CHL1    H9 1962   1.635   3.977   9.865 -0.6723  0.5258 -0.5688
   27CHL1   C10 1963   1.704   4.116  10.028  0.0312  0.7301 -0.5168
   27CHL1   C19 1964   1.741   4.258  10.032  0.2619  0.5339  0.7668
   27CHL1  H19A 1965   1.831   4.281   9.972 -0.3699 -2.9425 -1.8267
   27CHL1  H19B 1966   1.657   4.319   9.991  1.1244  1.6157  0.5746
   27CHL1  H19C 1967   1.759   4.292  10.137  2.9801  0.4107  0.4074
   27CHL1    C1 1968   1.571   4.091  10.097  0.4958 -0.3819 -0.1959
   27CHL1   H1A 1969   1.494   4.166  10.067 -0.0634 -0.6945  0.4240
   27CHL1   H1B 1970   1.541   3.987  10.072 -0.5290 -0.3118  0.6402
   27CHL1    C2 1971   1.574   4.094  10.254 -0.2150  0.0556  0.4808
   27CHL1   H2A 1972   1.477   4.057  10.293  0.8808 -0.5836  2.7289
   27CHL1   H2B 1973   1.586   4.197  10.292 -0.3941  0.7181 -1.1446
   27CHL1   C20 1974   1.695   4.100   9.297  1.4194  0.4178  0.1961
   27CHL1   H20 1975   1.769   4.183   9.293  0.7595  1.1547  2.3842
   27CHL1   C21 1976   1.556   4.155   9.295  0.2066  0.3369  0.3518
   27CHL1  H21A 1977   1.536   4.190   9.192 -0.2195 -2.5191 -0.6274
   27CHL1  H21B 1978   1.552   4.243   9.362  0.7488  0.3554  0.3668
   27CHL1  H21C 1979   1.479   4.081   9.324  0.0202 -0.6775 -2.4300
   27CHL1   C22 1980   1.723   4.011   9.173 -0.3895 -0.3691 -0.7727
   27CHL1  H22A 1981   1.731   4.078   9.085  0.6282  0.0332 -0.3902
   27CHL1  H22B 1982   1.828   3.975   9.164  0.9592  3.0270 -0.1675
   27CHL1   C23 1983   1.621   3.907   9.133  0.6867 -0.0172 -0.2380
   27CHL1  H23A 1984   1.654   3.818   9.192  0.3768  0.8373  1.2691
   27CHL1  H23B 1985   1.518   3.944   9.154  1.4076  3.0740 -1.5474
   27CHL1   C24 1986   1.627   3.865   8.981  0.0862  0.2051 -0.0852
   27CHL1  H24A 1987   1.554   3.784   8.959 -1.4912  1.9373 -1.6533
   27CHL1  H24B 1988   1.594   3.952   8.920  1.5879  0.0841 -1.1470
   27CHL1   C25 1989   1.763   3.817   8.930  0.2278  0.0823  0.4722
   27CHL1   H25 1990   1.826   3.906   8.949  0.3273 -0.3271  2.2693
   27CHL1   C26 1991   1.824   3.703   9.009  0.1796  0.7209  0.1826
   27CHL1  H26A 1992   1.768   3.608   9.020  0.9005  0.0421 -1.5655
   27CHL1  H26B 1993   1.922   3.680   8.961 -0.6345 -0.2952 -1.0673
   27CHL1  H26C 1994   1.850   3.744   9.109 -0.0657 -1.8516  1.3658
   27CHL1   C27 1995   1.764   3.805   8.775  0.5064 -0.2599  0.4905
   27CHL1  H27A 1996   1.700   3.715   8.763 -1.3491  0.9461  0.8556
   27CHL1  H27B 1997   1.714   3.897   8.738 -1.5949 -0.6832  2.0511
   27CHL1  H27C 1998   1.872   3.796   8.752  0.8392 -0.1612  1.8761
   28CHL1    C3 1999   0.066   2.131  10.013 -1.2153 -0.0785  0.2170
   28CHL1    H3 2000   0.036   2.231   9.973 -0.0263  0.8499  1.5219
   28CHL1    O3 2001   0.078   2.145  10.152  0.9069 -0.4317  0.6231
   28CHL1   H3' 2002   0.014   2.213  10.172  0.3355  0.2916 -3.0121
   28CHL1    C4 2003  -0.046   2.034   9.968  0.5914 -0.1791  0.7283
   28CHL1   H4A 2004  -0.056   1.943  10.032 -1.8351  0.3998  1.2666
   28CHL1   H4B 2005  -0.141   2.085   9.993  1.2797  1.6764 -0.3227
   28CHL1    C5 2006  -0.044   1.995   9.822 -0.1840  0.1321 -0.0048
   28CHL1    C6 2007  -0.145   2.023   9.744 -0.3302  0.0386  0.0719
   28CHL1    H6 2008  -0.231   2.067   9.797 -0.1537  0.6033 -0.1080
   28CHL1    C7 2009  -0.153   1.994   9.596 -0.8919 -0.1174 -0.6281
   28CHL1   H7A 2010  -0.249   1.942   9.577 -0.9413 -0.0478 -0.5677
   28CHL1   H7B 2011  -0.131   2.093   9.551 -0.0183  1.5114  3.0048
   28CHL1    C8 2012  -0.035   1.903   9.544 -0.0003  0.4848 -0.0459
   28CHL1    H8 2013  -0.052   1.799   9.578 -1.4275  0.8836  0.5379
   28CHL1   C14 2014  -0.029   1.908   9.390 -0.1701  0.5128 -0.1600
   28CHL1   H14 2015  -0.017   2.017   9.369  0.1234  0.5857  0.3564
   28CHL1   C15 2016  -0.148   1.865   9.308 -0.1564 -0.4966 -0.3687
   28CHL1  H15A 2017  -0.198   1.771   9.341  1.0090 -0.8647  0.4028
   28CHL1  H15B 2018  -0.214   1.954   9.310  2.6318  1.7026  0.2505
   28CHL1   C16 2019  -0.086   1.857   9.172 -0.8243  0.0664 -0.6308
   28CHL1  H16A 2020  -0.103   1.752   9.141 -0.5183  0.1279 -1.0231
   28CHL1  H16B 2021  -0.140   1.925   9.102 -1.7070  0.8862  0.7956
   28CHL1   C17 2022   0.072   1.872   9.177 -0.4719 -0.3828  0.4547
   28CHL1   H17 2023   0.092   1.980   9.163 -1.4650 -0.2441  0.0185
   28CHL1   C13 2024   0.095   1.834   9.322 -0.1385 -0.5183  0.0579
   28CHL1   C18 2025   0.097   1.682   9.341  0.2402  0.0333  0.3985
   28CHL1  H18A 2026   0.100   1.650   9.447 -1.8610  1.7953  1.0677
   28CHL1  H18B 2027   0.007   1.638   9.292  0.1963  0.0503  0.4630
   28CHL1  H18C 2028   0.181   1.637   9.284  0.3130 -0.7056  1.0753
   28CHL1   C12 2029   0.216   1.881   9.389 -0.2937  0.1761 -0.4640
   28CHL1  H12A 2030   0.298   1.812   9.363 -0.0308 -0.4736  1.8325
   28CHL1  H12B 2031   0.235   1.985   9.356 -2.3881  1.5407  2.1797
   28CHL1   C11 2032   0.212   1.882   9.544  0.2032  0.5329  0.2679
   28CHL1  H11A 2033   0.212   1.774   9.570  0.5050 -0.4877 -3.4176
   28CHL1  H11B 2034   0.306   1.927   9.581  0.2225  0.6125  0.1225
   28CHL1    C9 2035   0.092   1.958   9.598 -0.7959 -0.5449 -0.5720
   28CHL1    H9 2036   0.108   2.064   9.568 -1.4162 -0.5468 -0.9422
   28CHL1   C10 2037   0.095   1.959   9.756 -0.0098  0.1447  0.1365
   28CHL1   C19 2038   0.124   1.812   9.812 -0.1657 -0.3241  0.4313
   28CHL1  H19A 2039   0.226   1.786   9.776 -0.4928 -0.5993 -0.3035
   28CHL1  H19B 2040   0.121   1.804   9.923 -2.5265 -1.6395  0.3441
   28CHL1  H19C 2041   0.056   1.747   9.754  2.5108 -0.6751 -2.5589
   28CHL1    C1 2042   0.212   2.051   9.813 -0.7005  0.4334 -0.0712
   28CHL1   H1A 2043   0.308   2.001   9.786 -0.7014 -0.4118  1.3634
   28CHL1   H1B 2044   0.191   2.142   9.753 -3.8772 -0.3071 -0.2276
   28CHL1    C2 2045   0.201   2.085   9.960  0.5033 -0.3543  0.4610
   28CHL1   H2A 2046   0.271   2.159  10.003  0.0359  0.5681 -0.3192
   28CHL1   H2B 2047   0.231   1.989  10.008  1.1089  0.2812  1.3896
   28CHL1   C20 2048   0.165   1.800   9.072 -0.2108 -0.6554  0.0406
   28CHL1   H20 2049   0.171   1.692   9.097 -0.3826 -1.0800 -1.6669
   28CHL1   C21 2050   0.306   1.866   9.063  0.8072  0.1682 -0.2450
   28CHL1  H21A 2051   0.290   1.968   9.021  0.4308  1.5496  3.0153
   28CHL1  H21B 2052   0.370   1.805   8.996  0.9271 -1.0525  0.9444
   28CHL1  H21C 2053   0.351   1.881   9.163  0.0270  0.1772  0.1076
   28CHL1   C22 2054   0.106   1.798   8.931 -0.1258 -0.1413  1.3429
   28CHL1  H22A 2055  -0.004   1.782   8.939 -0.6840  2.8191  0.9140
   28CHL1  H22B 2056   0.135   1.898   8.890  0.7682  0.5144  3.4106
   28CHL1   C23 2057   0.164   1.704   8.829 -0.6264  0.2322  0.4321
   28CHL1  H23A 2058   0.271   1.727   8.811 -0.6485  1.1263  1.3575
   28CHL1  H23B 2059   0.167   1.602   8.873  0.3472  0.1595  0.2149
   28CHL1   C24 2060   0.077   1.691   8.699 -0.0010 -0.2577 -0.4438
   28CHL1  H24A 2061  -0.010   1.624   8.717  1.0091 -2.4192 -3.0221
   28CHL1  H24B 2062   0.056   1.795   8.665 -1.0636 -0.3267 -0.0323
   28CHL1   C25 2063   0.156   1.635   8.578 -0.2318  0.4117  0.0522
   28CHL1   H25 2064   0.252   1.689   8.584  0.2914 -0.4956  0.0241
   28CHL1   C26 2065   0.205   1.491   8.602 -0.8381 -0.4005  0.2410
   28CHL1  H26A 2066   0.259   1.452   8.513 -0.7273  0.6416 -0.1640
   28CHL1  H26B 2067   0.274   1.498   8.689 -0.4998 -1.7944  0.1135
   28CHL1  H26C 2068   0.117   1.427   8.626 -0.8030 -1.1043 -1.4076
   28CHL1   C27 2069   0.077   1.631   8.449 -0.4447  0.1257  0.2773
   28CHL1  H27A 2070  -0.007   1.560   8.461  0.3739 -0.6314  1.8656
   28CHL1  H27B 2071   0.037   1.733   8.431  0.6150  1.0094  2.4682
   28CHL1  H27C 2072   0.133   1.602   8.358 -1.7832 -1.5736 -0.0476
   29CHL1    C3 2073   2.219   2.126   6.597  0.3341  0.0838 -0.2231
   29CHL1    H3 2074   2.110   2.150   6.592  0.1885 -0.2000  1.1866
   29CHL1    O3 2075   2.271   2.086   6.471  0.4472  0.3038  0.0817
   29CHL1   H3' 2076   2.365   2.067   6.477  0.7219  1.3052 -0.7420
   29CHL1    C4 2077   2.292   2.257   6.643  0.3018  0.1582  0.1204
   29CHL1   H4A 2078   2.399   2.230   6.638  0.2670  0.2727 -1.7785
   29CHL1   H4B 2079   2.272   2.336   6.568 -0.5637 -0.0713  0.0918
   29CHL1    C5 2080   2.251   2.297   6.778 -0.2218 -0.0210 -0.2740
   29CHL1    C6 2081   2.214   2.424   6.807  0.1174 -0.0181  0.0898
   29CHL1    H6 2082   2.209   2.505   6.733  1.2564 -0.0462 -0.0335
   29CHL1    C7 2083   2.180   2.470   6.951 -0.3069 -0.1326  0.6368
   29CHL1   H7A 2084   2.215   2.574   6.965 -1.4889  0.5668 -1.2979
   29CHL1   H7B 2085   2.070   2.474   6.965 -0.7892 -0.1228 -2.4898
   29CHL1    C8 2086   2.225   2.372   7.057  0.3979  0.0507  0.1959
   29CHL1    H8 2087   2.335   2.387   7.053  0.4537 -0.5365 -1.4929
   29CHL1   C14 2088   2.155   2.408   7.193  0.2973  0.7280 -0.2751
   29CHL1   H14 2089   2.044   2.403   7.183  0.2282 -1.2986  0.9979
   29CHL1   C15 2090   2.192   2.546   7.250 -0.0275 -0.0892 -0.0425
   29CHL1  H15A 2091   2.301   2.557   7.236  0.0106  0.6942  0.7221
   29CHL1  H15B 2092   2.143   2.632   7.198 -0.0180  0.2559  0.5087
   29CHL1   C16 2093   2.140   2.529   7.393 -0.5075 -0.6183 -0.2315
   29CHL1  H16A 2094   2.218   2.568   7.462 -1.4631  3.4423 -1.1630
   29CHL1  H16B 2095   2.050   2.592   7.412  0.1526 -0.1396  1.5174
   29CHL1   C17 2096   2.113   2.384   7.424 -0.2618 -1.0008  0.2237
   29CHL1   H17 2097   2.007   2.365   7.397 -0.4240  0.7660 -0.5050
   29CHL1   C13 2098   2.180   2.315   7.311 -0.5686  0.4912 -0.0229
   29CHL1   C18 2099   2.332   2.307   7.342 -0.3571 -0.6414 -0.1598
   29CHL1  H18A 2100   2.390   2.267   7.256  0.3954 -1.2215  0.5968
   29CHL1  H18B 2101   2.378   2.407   7.359 -0.4492 -0.1663 -2.3582
   29CHL1  H18C 2102   2.350   2.240   7.429 -1.9852 -1.2547 -0.2737
   29CHL1   C12 2103   2.115   2.179   7.263  0.8275 -0.4676 -0.2508
   29CHL1  H12A 2104   2.128   2.111   7.350  1.6575  0.2198  0.1700
   29CHL1  H12B 2105   2.010   2.189   7.227  0.3541 -1.8831  0.6661
   29CHL1   C11 2106   2.189   2.127   7.142  0.4125  0.4135  0.7530
   29CHL1  H11A 2107   2.289   2.090   7.172  1.8322  2.7140 -0.8422
   29CHL1  H11B 2108   2.135   2.038   7.104 -1.9677  1.9191  0.3924
   29CHL1    C9 2109   2.189   2.230   7.019  0.3465 -0.4603 -0.2794
   29CHL1    H9 2110   2.087   2.256   6.985  1.2773 -0.7982 -3.7268
   29CHL1   C10 2111   2.259   2.186   6.886  0.1462  0.9416 -0.7206
   29CHL1   C19 2112   2.411   2.150   6.918 -0.0869 -0.1426  0.0157
   29CHL1  H19A 2113   2.417   2.046   6.959  1.6536 -0.3341 -0.6094
   29CHL1  H19B 2114   2.469   2.135   6.824  1.2824 -1.0051  0.9618
   29CHL1  H19C 2115   2.454   2.223   6.989  0.8613 -1.3486  0.7264
   29CHL1    C1 2116   2.188   2.054   6.834 -0.4453 -0.5308 -0.5001
   29CHL1   H1A 2117   2.189   1.969   6.906  0.7502  1.6842  2.3113
   29CHL1   H1B 2118   2.085   2.094   6.819 -0.2237 -0.7269 -2.9354
   29CHL1    C2 2119   2.236   2.016   6.701 -0.3273  0.0829 -0.1916
   29CHL1   H2A 2120   2.167   1.939   6.661 -0.1645 -0.4202  0.4928
   29CHL1   H2B 2121   2.336   1.969   6.695 -2.3741 -5.1480  1.1475
   29CHL1   C20 2122   2.129   2.348   7.571  0.1806 -0.1162  0.0217
   29CHL1   H20 2123   2.237   2.361   7.595  0.8210 -0.6331 -2.3006
   29CHL1   C21 2124   2.095   2.200   7.603 -0.5411  0.7534  0.3371
   29CHL1  H21A 2125   2.169   2.143   7.542 -0.5457  1.2449 -0.1345
   29CHL1  H21B 2126   1.989   2.176   7.579 -0.6755  0.6799  0.9944
   29CHL1  H21C 2127   2.114   2.181   7.710 -1.5520  1.9001  0.7470
   29CHL1   C22 2128   2.047   2.429   7.669  0.3128  0.2386  0.7671
   29CHL1  H22A 2129   2.023   2.530   7.628 -0.8382 -0.3123  0.0315
   29CHL1  H22B 2130   1.948   2.385   7.692  0.3394  1.0995  2.6860
   29CHL1   C23 2131   2.124   2.455   7.801  0.2404 -0.3297  0.4194
   29CHL1  H23A 2132   2.146   2.355   7.843 -2.6923 -0.4571  1.9391
   29CHL1  H23B 2133   2.216   2.512   7.774 -0.7526  1.2181  0.1670
   29CHL1   C24 2134   2.038   2.534   7.901  0.1526 -0.7119 -0.0163
   29CHL1  H24A 2135   2.021   2.639   7.869  1.8120  0.0047  1.3275
   29CHL1  H24B 2136   1.938   2.487   7.911 -0.5031  0.6566  0.1486
   29CHL1   C25 2137   2.096   2.556   8.039 -0.0518  0.6831  0.5816
   29CHL1   H25 2138   2.149   2.460   8.056  1.3243  1.3678  0.2839
   29CHL1   C26 2139   2.194   2.673   8.042  0.6258 -0.3701 -0.6849
   29CHL1  H26A 2140   2.288   2.638   7.993  1.3153  1.9466 -1.1434
   29CHL1  H26B 2141   2.168   2.759   7.977  1.1417 -0.7678 -1.4284
   29CHL1  H26C 2142   2.227   2.713   8.140 -0.6064 -0.3558 -0.2600
   29CHL1   C27 2143   1.981   2.570   8.145  0.8975 -0.5616 -0.1022
   29CHL1  H27A 2144   1.915   2.654   8.115  1.8442 -0.5287 -2.2590
   29CHL1  H27B 2145   1.935   2.470   8.132  1.4646 -0.6520 -1.6105
   29CHL1  H27C 2146   2.009   2.588   8.251 -1.2885 -0.2981  0.4843
   30CHL1    C3 2147   0.473   5.882   7.167  0.5637 -0.2397  0.2534
   30CHL1    H3 2148   0.368   5.892   7.205 -0.8098 -0.2485 -3.2075
   30CHL1    O3 2149   0.456   5.906   7.029  0.1251  0.0462  0.0320
   30CHL1   H3' 2150   0.547   5.917   7.003  0.9593 -3.2040  1.1493
   30CHL1    C4 2151   0.573   5.971   7.240  0.6218 -0.0410 -0.1357
   30CHL1   H4A 2152   0.662   5.964   7.173  0.7872 -1.4386  0.1969
   30CHL1   H4B 2153   0.538   6.076   7.224 -1.2082 -0.8300 -1.7996
   30CHL1    C5 2154   0.591   5.943   7.387 -0.0081 -0.0680 -0.0064
   30CHL1    C6 2155   0.561   6.027   7.489 -0.6293 -0.2230  0.8079
   30CHL1    H6 2156   0.526   6.130   7.472  2.5881  0.9559  0.5868
   30CHL1    C7 2157   0.591   5.991   7.628  0.0058  0.3224 -0.2138
   30CHL1   H7A 2158   0.640   6.077   7.680 -0.2995  0.0805  0.4906
   30CHL1   H7B 2159   0.499   5.965   7.684 -0.6423 -0.2419 -1.5103
   30CHL1    C8 2160   0.690   5.874   7.654 -0.0149 -0.0412 -0.0423
   30CHL1    H8 2161   0.788   5.911   7.618  0.5885  0.0290  1.6028
   30CHL1   C14 2162   0.697   5.844   7.807  0.0910  0.2001  0.1493
   30CHL1   H14 2163   0.596   5.811   7.839 -0.0563  0.4378 -0.0617
   30CHL1   C15 2164   0.740   5.951   7.911  0.5725 -0.4289  0.1007
   30CHL1  H15A 2165   0.822   6.015   7.870  1.2383 -0.6683  1.0420
   30CHL1  H15B 2166   0.665   6.027   7.941  0.9421 -0.6969  1.7513
   30CHL1   C16 2167   0.786   5.883   8.033 -0.3963  0.2498 -0.1130
   30CHL1  H16A 2168   0.883   5.921   8.072 -0.4271  0.0893  0.1233
   30CHL1  H16B 2169   0.722   5.901   8.122 -1.8591 -0.3459 -1.0063
   30CHL1   C17 2170   0.780   5.727   8.000 -0.2141  0.5501  0.6327
   30CHL1   H17 2171   0.681   5.688   8.033  1.0895 -1.7906  2.0280
   30CHL1   C13 2172   0.785   5.718   7.838 -0.4450  0.1275  0.8267
   30CHL1   C18 2173   0.926   5.747   7.783  0.0301  0.0229  0.3658
   30CHL1  H18A 2174   0.997   5.668   7.816  0.7596  0.3053 -0.4635
   30CHL1  H18B 2175   0.923   5.752   7.672 -0.8090 -2.3728  0.2368
   30CHL1  H18C 2176   0.957   5.841   7.833 -0.8700 -1.1022  3.2203
   30CHL1   C12 2177   0.717   5.598   7.759 -0.3586 -0.6441  0.6648
   30CHL1  H12A 2178   0.770   5.502   7.777 -0.5666 -0.6455  1.2850
   30CHL1  H12B 2179   0.614   5.584   7.799  0.0956  0.0563  2.1677
   30CHL1   C11 2180   0.721   5.617   7.606  0.3407  0.3235  0.0858
   30CHL1  H11A 2181   0.821   5.607   7.560 -0.1603  0.5475 -1.0918
   30CHL1  H11B 2182   0.650   5.551   7.552 -0.2728  0.6569  0.4808
   30CHL1    C9 2183   0.649   5.756   7.567  0.7187  0.3602 -0.5409
   30CHL1    H9 2184   0.546   5.740   7.606  0.3509  1.1947 -1.1573
   30CHL1   C10 2185   0.641   5.799   7.421 -0.8941  0.4817  0.1773
   30CHL1   C19 2186   0.782   5.806   7.368 -0.7575 -0.0634  0.4948
   30CHL1  H19A 2187   0.826   5.705   7.377  1.5818  0.6864 -1.3543
   30CHL1  H19B 2188   0.787   5.835   7.260 -2.7952  0.4653  0.4902
   30CHL1  H19C 2189   0.857   5.874   7.415  2.6217 -1.7781 -2.0043
   30CHL1    C1 2190   0.559   5.702   7.340  0.1459 -0.1123  0.0761
   30CHL1   H1A 2191   0.605   5.600   7.339 -0.9758 -0.7787  3.2522
   30CHL1   H1B 2192   0.462   5.691   7.393 -0.3599  0.8743 -0.6261
   30CHL1    C2 2193   0.525   5.739   7.194  0.8141  0.5080  0.3446
   30CHL1   H2A 2194   0.446   5.668   7.162 -0.1767  0.6849  2.2464
   30CHL1   H2B 2195   0.621   5.733   7.137  0.1439  0.2029 -0.7866
   30CHL1   C20 2196   0.894   5.651   8.068 -0.2966  0.0356  0.2849
   30CHL1   H20 2197   0.990   5.681   8.022  0.4136 -0.4829  1.3867
   30CHL1   C21 2198   0.860   5.503   8.052 -0.7283  0.6614  1.2091
   30CHL1  H21A 2199   0.852   5.465   7.948 -0.6962  0.4719  1.2728
   30CHL1  H21B 2200   0.768   5.472   8.107 -1.1443  1.9249  1.2428
   30CHL1  H21C 2201   0.949   5.442   8.080 -0.0538  0.4520 -1.2066
   30CHL1   C22 2202   0.901   5.676   8.225 -0.1069  0.4808 -0.6241
   30CHL1  H22A 2203   0.913   5.785   8.244 -0.2668  0.2161  1.0656
   30CHL1  H22B 2204   0.800   5.655   8.266  0.6037 -0.0172  0.9325
   30CHL1   C23 2205   1.008   5.596   8.296 -0.0572 -0.7712  0.0522
   30CHL1  H23A 2206   0.986   5.487   8.300 -0.9543 -0.6985 -1.8035
   30CHL1  H23B 2207   1.101   5.605   8.237  0.1001 -0.3296  0.3625
   30CHL1   C24 2208   1.020   5.657   8.434  0.4234 -0.1937 -0.3339
   30CHL1  H24A 2209   1.034   5.766   8.417  0.6218 -0.0349  0.7628
   30CHL1  H24B 2210   0.921   5.651   8.485 -1.0143  1.9698 -2.6117
   30CHL1   C25 2211   1.124   5.597   8.529  1.0374  0.8923  0.2299
   30CHL1   H25 2212   1.112   5.487   8.525 -2.0115  1.1551 -0.2613
   30CHL1   C26 2213   1.265   5.639   8.484  0.1242 -0.5888 -0.2404
   30CHL1  H26A 2214   1.276   5.749   8.486 -1.9908 -0.2883 -1.6178
   30CHL1  H26B 2215   1.333   5.597   8.561 -0.3408 -0.6214  0.1571
   30CHL1  H26C 2216   1.294   5.599   8.384  0.5898 -2.3002  0.5433
   30CHL1   C27 2217   1.099   5.648   8.668 -0.6653  0.3452  0.4599
   30CHL1  H27A 2218   1.177   5.608   8.736 -0.4788 -0.7185 -0.3567
   30CHL1  H27B 2219   1.103   5.759   8.666  1.4002  0.2972 -0.8510
   30CHL1  H27C 2220   1.008   5.606   8.715  0.3930 -2.7557 -0.0269
   31CHL1    C3 2221   5.539   2.129   6.662 -0.1754  0.3794  0.4229
   31CHL1    H3 2222   5.628   2.063   6.669  0.5083  1.3446  1.1956
   31CHL1    O3 2223   5.483   2.144   6.528  0.2789 -0.3194 -0.0876
   31CHL1   H3' 2224   5.392   2.130   6.553  0.8169 -2.2842  0.9985
   31CHL1    C4 2225   5.428   2.070   6.756  0.8378  0.6129 -0.4765
   31CHL1   H4A 2226   5.334   2.126   6.735 -0.1597 -0.9161 -0.2149
   31CHL1   H4B 2227   5.402   1.970   6.716  0.1390  1.4177 -2.1233
   31CHL1    C5 2228   5.459   2.061   6.904  0.5366 -0.0354 -0.1431
   31CHL1    C6 2229   5.451   1.952   6.981 -0.3659  1.0391  0.1794
   31CHL1    H6 2230   5.415   1.857   6.940 -0.2788  0.0730  2.2084
   31CHL1    C7 2231   5.498   1.939   7.120  1.0013  0.3983  0.1388
   31CHL1   H7A 2232   5.416   1.916   7.192  2.6485 -1.0541  1.6521
   31CHL1   H7B 2233   5.571   1.856   7.126  0.5787  0.0275  0.2108
   31CHL1    C8 2234   5.556   2.065   7.178  0.7067 -0.5334 -0.2156
   31CHL1    H8 2235   5.462   2.119   7.205  0.5029 -0.9391 -0.1076
   31CHL1   C14 2236   5.649   2.033   7.288 -1.2997 -0.3778  0.1756
   31CHL1   H14 2237   5.739   1.980   7.249 -0.5600  0.9690 -0.0246
   31CHL1   C15 2238   5.594   1.954   7.411  0.9216 -0.5818  0.2745
   31CHL1  H15A 2239   5.500   2.003   7.444  1.6710  0.3146  1.1241
   31CHL1  H15B 2240   5.570   1.848   7.388 -1.8217  0.2221 -0.9941
   31CHL1   C16 2241   5.692   1.977   7.529 -0.1720 -0.7915 -0.4055
   31CHL1  H16A 2242   5.637   2.015   7.617 -0.4561  0.5712 -1.1501
   31CHL1  H16B 2243   5.752   1.892   7.570  1.0659  0.5255  0.6375
   31CHL1   C17 2244   5.788   2.096   7.479 -1.0441  0.8915  0.3478
   31CHL1   H17 2245   5.874   2.047   7.428 -1.0258  1.5410 -0.2643
   31CHL1   C13 2246   5.718   2.155   7.357  0.6992  0.5347  0.0467
   31CHL1   C18 2247   5.602   2.251   7.415  0.1650 -0.3752  0.7274
   31CHL1  H18A 2248   5.520   2.266   7.343  0.3393  0.3835  0.6811
   31CHL1  H18B 2249   5.555   2.213   7.509  0.6558  1.0950  1.6054
   31CHL1  H18C 2250   5.648   2.350   7.437  2.7780 -1.5425  0.9516
   31CHL1   C12 2251   5.794   2.234   7.257  0.1702  0.4275  0.4741
   31CHL1  H12A 2252   5.836   2.325   7.305  1.5502 -0.0832  0.2951
   31CHL1  H12B 2253   5.880   2.178   7.214  0.5140  1.7300 -0.5816
   31CHL1   C11 2254   5.699   2.273   7.137  0.7258  0.4212 -0.3869
   31CHL1  H11A 2255   5.625   2.353   7.159 -0.8946 -1.2190  0.3807
   31CHL1  H11B 2256   5.770   2.317   7.064  2.2844  1.2924  1.5506
   31CHL1    C9 2257   5.633   2.148   7.069 -0.2401 -0.8426 -0.7483
   31CHL1    H9 2258   5.717   2.084   7.036 -0.4959 -1.4715 -0.2105
   31CHL1   C10 2259   5.539   2.183   6.950  0.2726  0.3575 -0.2164
   31CHL1   C19 2260   5.430   2.283   6.995  0.0876  0.1576 -0.3327
   31CHL1  H19A 2261   5.359   2.284   6.910 -1.3392 -1.8751  0.7327
   31CHL1  H19B 2262   5.359   2.257   7.077  1.6772 -1.5817  0.5720
   31CHL1  H19C 2263   5.472   2.382   7.023  3.0407 -0.9820 -0.4450
   31CHL1    C1 2264   5.631   2.257   6.844 -0.2008  0.3904 -0.4848
   31CHL1   H1A 2265   5.657   2.359   6.878  2.3041 -0.9239  2.0191
   31CHL1   H1B 2266   5.723   2.194   6.840  0.3148  1.0922 -0.0544
   31CHL1    C2 2267   5.569   2.265   6.707  0.7047 -0.1614  0.1042
   31CHL1   H2A 2268   5.633   2.315   6.631 -1.6858  2.4160 -0.4039
   31CHL1   H2B 2269   5.471   2.319   6.707  0.9255  0.2884 -1.1493
   31CHL1   C20 2270   5.854   2.189   7.582  0.5717 -0.1026 -0.5108
   31CHL1   H20 2271   5.860   2.293   7.545 -2.7894  0.9165  1.3605
   31CHL1   C21 2272   5.997   2.129   7.601  0.2159 -0.0710 -0.1627
   31CHL1  H21A 2273   5.989   2.018   7.604 -0.8170  0.0023  1.5647
   31CHL1  H21B 2274   6.056   2.163   7.689  2.1922 -2.0565 -0.6497
   31CHL1  H21C 2275   6.060   2.158   7.515  0.9199  0.2850  0.4656
   31CHL1   C22 2276   5.779   2.209   7.716 -0.0282  0.0029 -0.1958
   31CHL1  H22A 2277   5.673   2.238   7.709 -0.4277 -1.1564  0.7000
   31CHL1  H22B 2278   5.777   2.109   7.765 -2.8657  0.6053  1.1107
   31CHL1   C23 2279   5.839   2.307   7.817  0.1542  0.2283 -0.2185
   31CHL1  H23A 2280   5.941   2.267   7.835 -0.7525 -1.3742  1.7067
   31CHL1  H23B 2281   5.843   2.412   7.782  0.9660  1.2082  2.5537
   31CHL1   C24 2282   5.764   2.314   7.950 -0.4887  0.3824 -0.2208
   31CHL1  H24A 2283   5.658   2.346   7.940 -0.3331  0.6081 -1.2762
   31CHL1  H24B 2284   5.756   2.208   7.981 -1.5983 -0.2539 -2.4502
   31CHL1   C25 2285   5.838   2.374   8.073  0.3520 -0.6221 -0.1513
   31CHL1   H25 2286   5.906   2.296   8.112  0.2610 -0.5992  0.0528
   31CHL1   C26 2287   5.929   2.493   8.040  0.3298  0.0662 -0.3505
   31CHL1  H26A 2288   5.980   2.524   8.134 -1.8219  1.5567  0.3707
   31CHL1  H26B 2289   6.000   2.466   7.959 -0.3323 -1.4117 -0.4821
   31CHL1  H26C 2290   5.879   2.579   7.991 -0.5274 -1.2288 -1.8350
   31CHL1   C27 2291   5.736   2.408   8.191 -0.1583  0.0660 -0.2590
   31CHL1  H27A 2292   5.794   2.440   8.280  0.2801  1.9941 -1.1831
   31CHL1  H27B 2293   5.658   2.332   8.211 -1.0954  1.1671  0.4089
   31CHL1  H27C 2294   5.685   2.500   8.155 -3.8406 -1.0676  1.5132
   32CHL1    C3 2295   1.956   1.739   6.806 -0.2478 -0.2752 -0.3264
   32CHL1    H3 2296   2.055   1.775   6.839  0.1329  1.5067 -3.0845
   32CHL1    O3 2297   1.964   1.729   6.661 -1.0409 -0.3424 -0.2039
   32CHL1   H3' 2298   1.942   1.639   6.638  1.9701 -1.2722  0.2442
   32CHL1    C4 2299   1.911   1.611   6.879 -0.6219  0.5740 -0.7524
   32CHL1   H4A 2300   1.808   1.588   6.845 -0.9798 -0.0545  0.6870
   32CHL1   H4B 2301   1.974   1.527   6.843 -0.8043 -0.6193  1.5293
   32CHL1    C5 2302   1.927   1.638   7.029  0.7901  0.3430 -0.3287
   32CHL1    C6 2303   2.012   1.566   7.103  0.2779 -0.3415  0.0405
   32CHL1    H6 2304   2.072   1.488   7.054  0.8349  0.5888 -0.8102
   32CHL1    C7 2305   2.038   1.586   7.248 -0.2621 -0.2978 -0.2973
   32CHL1   H7A 2306   2.063   1.494   7.305 -0.8750  0.8127  1.8321
   32CHL1   H7B 2307   2.130   1.649   7.254 -1.0666  0.7554  3.2189
   32CHL1    C8 2308   1.920   1.664   7.311 -0.0563  0.1062  0.2452
   32CHL1    H8 2309   1.834   1.594   7.312  0.4236 -0.5423 -1.3637
   32CHL1   C14 2310   1.961   1.711   7.448 -0.6113  0.1558 -0.3185
   32CHL1   H14 2311   2.044   1.785   7.438 -1.1429  1.0795  1.5791
   32CHL1   C15 2312   2.014   1.605   7.548  0.0073  0.2647 -0.3789
   32CHL1  H15A 2313   1.952   1.515   7.530 -0.9404  0.4507  1.6184
   32CHL1  H15B 2314   2.122   1.581   7.538  0.2479  0.2732  1.7415
   32CHL1   C16 2315   1.992   1.669   7.687 -0.4190  0.1262  0.3852
   32CHL1  H16A 2316   1.927   1.602   7.747 -0.9223  2.1895  2.2872
   32CHL1  H16B 2317   2.093   1.675   7.731  0.4097 -1.2219 -1.2520
   32CHL1   C17 2318   1.925   1.801   7.662 -0.1416 -0.9322  0.0839
   32CHL1   H17 2319   2.012   1.869   7.650 -0.8112 -0.0928 -0.1235
   32CHL1   C13 2320   1.857   1.796   7.523 -1.2271 -0.2156  0.1982
   32CHL1   C18 2321   1.721   1.723   7.535 -0.1959  0.5232  0.0208
   32CHL1  H18A 2322   1.739   1.633   7.596  1.2917  0.1471 -0.9171
   32CHL1  H18B 2323   1.657   1.784   7.603  0.0527  0.9839 -0.1498
   32CHL1  H18C 2324   1.676   1.691   7.439  2.0590 -1.3879 -0.5092
   32CHL1   C12 2325   1.842   1.926   7.446 -0.5809 -0.0593  0.1209
   32CHL1  H12A 2326   1.785   2.006   7.498  2.8165  1.2341  2.2052
   32CHL1  H12B 2327   1.941   1.976   7.442 -1.1193  1.0676  0.4662
   32CHL1   C11 2328   1.805   1.906   7.290  0.0442 -0.1788 -0.1633
   32CHL1  H11A 2329   1.697   1.879   7.287 -0.3953  1.4279  0.3021
   32CHL1  H11B 2330   1.823   2.006   7.245 -1.1141  0.9051  1.6402
   32CHL1    C9 2331   1.885   1.792   7.228 -0.4042  0.2342 -0.4848
   32CHL1    H9 2332   1.987   1.834   7.233  0.4233 -1.7899  2.1864
   32CHL1   C10 2333   1.844   1.753   7.087  0.8411 -0.1473  0.1375
   32CHL1   C19 2334   1.697   1.698   7.097  0.5598 -0.3830  0.1316
   32CHL1  H19A 2335   1.666   1.664   6.995  1.0903  0.7955 -0.4409
   32CHL1  H19B 2336   1.691   1.610   7.164 -0.1619 -0.1060  0.4444
   32CHL1  H19C 2337   1.625   1.775   7.134  2.1375  1.1450  0.1567
   32CHL1    C1 2338   1.863   1.884   6.999  0.6072  0.5131  0.1886
   32CHL1   H1A 2339   1.771   1.946   7.011 -0.1683 -0.7291  0.9518
   32CHL1   H1B 2340   1.952   1.940   7.032 -0.3009  0.3885  3.0761
   32CHL1    C2 2341   1.851   1.848   6.847  0.1429 -0.3900 -0.3086
   32CHL1   H2A 2342   1.870   1.938   6.783 -1.2025 -0.0373 -0.2451
   32CHL1   H2B 2343   1.747   1.813   6.832 -0.5226  0.4614  2.0011
   32CHL1   C20 2344   1.839   1.838   7.787 -0.1329 -0.0690 -0.2726
   32CHL1   H20 2345   1.747   1.776   7.790  0.4864 -1.0382 -0.7275
   32CHL1   C21 2346   1.805   1.993   7.774 -0.7158  0.6589 -0.6306
   32CHL1  H21A 2347   1.762   2.021   7.872 -2.4582 -0.2778 -1.1037
   32CHL1  H21B 2348   1.738   2.018   7.690 -1.8759  2.0940  0.6681
   32CHL1  H21C 2349   1.902   2.045   7.756 -0.8193  1.1776  0.2434
   32CHL1   C22 2350   1.898   1.811   7.924  0.6449 -0.0620 -0.1974
   32CHL1  H22A 2351   1.940   1.707   7.924 -1.4684 -0.9632 -1.1868
   32CHL1  H22B 2352   1.985   1.878   7.943  0.5235  0.3149 -0.9613
   32CHL1   C23 2353   1.797   1.819   8.042  0.1709  0.0048 -0.1067
   32CHL1  H23A 2354   1.769   1.924   8.065 -1.9239 -1.0553  2.8042
   32CHL1  H23B 2355   1.707   1.768   8.001  0.4285  0.5318 -1.3769
   32CHL1   C24 2356   1.850   1.762   8.176 -0.0225  0.0159  0.5880
   32CHL1  H24A 2357   1.907   1.667   8.164  0.9381  0.3143  2.3087
   32CHL1  H24B 2358   1.918   1.831   8.231 -1.3259  1.5734  0.3127
   32CHL1   C25 2359   1.744   1.745   8.285 -0.2431  0.3635 -1.0205
   32CHL1   H25 2360   1.660   1.682   8.250 -2.1703  0.7941  2.3565
   32CHL1   C26 2361   1.796   1.660   8.411 -0.1132  0.0414  0.1408
   32CHL1  H26A 2362   1.880   1.719   8.454 -1.5436  0.9246  1.8656
   32CHL1  H26B 2363   1.714   1.640   8.484  0.6190 -2.3966  0.3896
   32CHL1  H26C 2364   1.832   1.562   8.374 -0.1516 -0.5752  1.6618
   32CHL1   C27 2365   1.696   1.881   8.346 -0.3627 -0.2278 -0.3379
   32CHL1  H27A 2366   1.611   1.930   8.295  0.9160  0.8196 -1.5491
   32CHL1  H27B 2367   1.668   1.874   8.453 -0.6112  1.0831 -0.2972
   32CHL1  H27C 2368   1.780   1.954   8.352  1.7047 -2.5968  2.3901
   33CHL1    C3 2369   1.880   0.398   6.678  0.1353  0.4713 -0.9491
   33CHL1    H3 2370   1.952   0.322   6.640  2.1194  2.8514 -2.2589
   33CHL1    O3 2371   1.834   0.471   6.568 -0.2588  0.3961 -0.0587
   33CHL1   H3' 2372   1.841   0.563   6.596 -1.9743  0.0278  1.8663
   33CHL1    C4 2373   1.765   0.316   6.743  0.7359 -0.2911 -0.3508
   33CHL1   H4A 2374   1.673   0.378   6.753 -0.1760 -1.5709 -0.4704
   33CHL1   H4B 2375   1.726   0.238   6.675  0.3170  0.4924 -1.0352
   33CHL1    C5 2376   1.793   0.268   6.883 -0.7420  0.0977 -0.4348
   33CHL1    C6 2377   1.766   0.142   6.924  0.3713 -0.0041  0.3858
   33CHL1    H6 2378   1.733   0.067   6.850  1.4824 -1.3877  1.2349
   33CHL1    C7 2379   1.780   0.088   7.065  0.2250  0.3875  0.0471
   33CHL1   H7A 2380   1.696   0.027   7.105  0.3945  1.0782  1.5223
   33CHL1   H7B 2381   1.876   0.033   7.061  1.6507  2.7656 -0.8144
   33CHL1    C8 2382   1.809   0.202   7.167 -0.5604  0.0048 -0.2915
   33CHL1    H8 2383   1.703   0.230   7.182 -1.4071 -0.8789 -3.7252
   33CHL1   C14 2384   1.867   0.138   7.290  0.2451 -0.1197 -0.2163
   33CHL1   H14 2385   1.973   0.109   7.272  0.8927  0.5309  2.1364
   33CHL1   C15 2386   1.793   0.022   7.360 -0.4693 -0.2529 -0.8156
   33CHL1  H15A 2387   1.683   0.022   7.342 -0.4192 -0.8844 -1.1590
   33CHL1  H15B 2388   1.822  -0.077   7.318 -1.0040 -1.7700  2.1152
   33CHL1   C16 2389   1.837   0.039   7.508 -0.0214  0.5737 -0.1853
   33CHL1  H16A 2390   1.740   0.044   7.562 -0.4169  0.0462 -0.8404
   33CHL1  H16B 2391   1.880  -0.050   7.558  0.3169  0.8983  0.1135
   33CHL1   C17 2392   1.918   0.170   7.533 -0.0112  0.2830 -0.7680
   33CHL1   H17 2393   2.026   0.147   7.519  0.0627  0.5413 -0.6301
   33CHL1   C13 2394   1.881   0.248   7.406 -0.2811 -0.5338 -0.4367
   33CHL1   C18 2395   1.744   0.312   7.429 -0.9571 -0.5720 -0.0802
   33CHL1  H18A 2396   1.718   0.369   7.337 -0.6029  3.1453  1.9054
   33CHL1  H18B 2397   1.661   0.239   7.443 -2.0888  0.5570 -0.7076
   33CHL1  H18C 2398   1.741   0.376   7.520  1.2852 -1.2520  0.5285
   33CHL1   C12 2399   1.987   0.338   7.358  0.2645 -0.3446  1.0953
   33CHL1  H12A 2400   2.003   0.413   7.438  0.8851  0.0348  0.6222
   33CHL1  H12B 2401   2.080   0.277   7.350  1.1076  0.7549  2.0290
   33CHL1   C11 2402   1.958   0.408   7.221  0.1045  0.0992 -0.3863
   33CHL1  H11A 2403   1.881   0.484   7.243 -1.2227 -1.3597  0.2644
   33CHL1  H11B 2404   2.053   0.456   7.189 -1.1411  2.7626 -0.3310
   33CHL1    C9 2405   1.907   0.310   7.113  0.0509  0.2766 -0.6646
   33CHL1    H9 2406   1.991   0.246   7.078 -0.5736 -0.2648 -1.1974
   33CHL1   C10 2407   1.861   0.374   6.978 -0.1421  0.6465  0.5514
   33CHL1   C19 2408   1.763   0.490   7.005 -0.1687  0.0151 -0.1660
   33CHL1  H19A 2409   1.690   0.469   7.085 -0.1360  0.3243 -0.0568
   33CHL1  H19B 2410   1.818   0.584   7.025  0.2717 -0.4139  0.7011
   33CHL1  H19C 2411   1.710   0.527   6.914 -0.8470 -1.0042 -0.2099
   33CHL1    C1 2412   1.984   0.425   6.896  0.1858  0.0823 -0.0185
   33CHL1   H1A 2413   2.047   0.482   6.967  0.5689 -0.5372  0.1368
   33CHL1   H1B 2414   2.044   0.334   6.879 -0.7542 -0.4637 -0.5440
   33CHL1    C2 2415   1.955   0.494   6.764 -0.5388  0.4290  0.2435
   33CHL1   H2A 2416   2.049   0.518   6.710 -0.6130  0.1038 -0.0268
   33CHL1   H2B 2417   1.886   0.582   6.773  0.0684  1.0863 -1.1845
   33CHL1   C20 2418   1.898   0.229   7.678 -0.7564 -0.4315  0.1362
   33CHL1   H20 2419   1.789   0.250   7.689 -0.3801  3.3831 -1.7995
   33CHL1   C21 2420   1.982   0.359   7.699  0.6115 -0.4793  0.5547
   33CHL1  H21A 2421   1.988   0.380   7.808  1.8763  0.5015  0.3171
   33CHL1  H21B 2422   1.930   0.436   7.639  4.2987  0.3221 -1.9446
   33CHL1  H21C 2423   2.089   0.352   7.668  0.3535 -0.6629 -0.3214
   33CHL1   C22 2424   1.941   0.115   7.775  0.1979  0.6852  0.4849
   33CHL1  H22A 2425   1.874   0.027   7.780  1.4459 -0.2673  1.0442
   33CHL1  H22B 2426   2.042   0.075   7.751 -0.4986 -1.9442  1.5226
   33CHL1   C23 2427   1.941   0.170   7.925 -0.2651 -0.3444  0.5377
   33CHL1  H23A 2428   2.039   0.219   7.941  0.5727 -1.6318 -0.4743
   33CHL1  H23B 2429   1.856   0.242   7.926 -1.7753 -1.9864 -1.4561
   33CHL1   C24 2430   1.929   0.052   8.026  0.8485 -0.6829  0.3243
   33CHL1  H24A 2431   1.842  -0.007   7.990  0.2179  1.0847 -1.1880
   33CHL1  H24B 2432   2.018  -0.014   8.017 -0.2753 -1.9257 -3.3598
   33CHL1   C25 2433   1.913   0.085   8.171 -0.1081  0.0395  0.3717
   33CHL1   H25 2434   1.812   0.128   8.181  0.8247  2.2881  0.6970
   33CHL1   C26 2435   1.907  -0.044   8.259 -0.1451 -0.2448  0.6178
   33CHL1  H26A 2436   1.826  -0.108   8.218  2.3887 -2.9113 -0.5258
   33CHL1  H26B 2437   2.009  -0.089   8.263 -0.2137 -0.3425  2.5406
   33CHL1  H26C 2438   1.883  -0.022   8.366 -0.7764 -0.1933  0.4680
   33CHL1   C27 2439   2.020   0.180   8.224  0.6328 -0.1818 -0.0871
   33CHL1  H27A 2440   2.123   0.149   8.200  1.9089  3.4725  0.0714
   33CHL1  H27B 2441   2.017   0.282   8.178 -0.1153 -0.9174 -1.7657
   33CHL1  H27C 2442   2.001   0.188   8.333 -2.9422  1.6062 -0.6522
   34CHL1    C3 2443   3.010   6.127   7.095  0.6214 -0.4165  0.3525
   34CHL1    H3 2444   3.077   6.215   7.100  1.8088 -1.2266 -0.7473
   34CHL1    O3 2445   3.005   6.086   6.956  0.2472  0.2488  0.0507
   34CHL1   H3' 2446   3.007   5.990   6.961 -2.2053  0.1742  0.3859
   34CHL1    C4 2447   3.059   6.017   7.180 -0.5570  0.2431 -0.4386
   34CHL1   H4A 2448   3.004   5.922   7.161  1.3708 -1.0890  0.2587
   34CHL1   H4B 2449   3.165   5.996   7.153 -0.0585  0.1975  1.4535
   34CHL1    C5 2450   3.058   6.048   7.326 -0.5497 -0.2319  0.4576
   34CHL1    C6 2451   3.171   6.042   7.407  1.0024 -0.2113 -0.5611
   34CHL1    H6 2452   3.263   6.013   7.354  0.2546  0.7442 -2.4942
   34CHL1    C7 2453   3.168   6.064   7.552  0.5197 -0.3268  0.5294
   34CHL1   H7A 2454   3.246   5.998   7.594 -0.5834 -1.1076  1.4292
   34CHL1   H7B 2455   3.188   6.172   7.564 -0.3241  0.1985 -2.0020
   34CHL1    C8 2456   3.030   6.038   7.613 -0.4024 -0.5903  0.2743
   34CHL1    H8 2457   3.005   5.930   7.607  1.8471 -1.0894 -1.2138
   34CHL1   C14 2458   3.034   6.073   7.759 -0.1480 -0.1552 -0.0382
   34CHL1   H14 2459   3.071   6.177   7.766 -0.3959 -0.1196  0.9598
   34CHL1   C15 2460   3.128   6.000   7.854  0.1566  0.4908  0.4400
   34CHL1  H15A 2461   3.105   5.892   7.846  0.8276  0.2973  1.0560
   34CHL1  H15B 2462   3.233   6.025   7.829 -0.3111  1.1732 -0.9992
   34CHL1   C16 2463   3.080   6.060   7.993  0.0632  0.0298 -0.1857
   34CHL1  H16A 2464   3.078   5.978   8.069  2.6691  0.2183  0.1796
   34CHL1  H16B 2465   3.155   6.132   8.030  0.2478 -0.0644 -0.3767
   34CHL1   C17 2466   2.942   6.131   7.972  0.8955 -0.2653  0.3391
   34CHL1   H17 2467   2.967   6.237   7.952  0.2921 -0.1321  0.2791
   34CHL1   C13 2468   2.893   6.082   7.834  0.0578  0.8647  1.1765
   34CHL1   C18 2469   2.836   5.940   7.851  0.3599 -0.3813  0.1246
   34CHL1  H18A 2470   2.732   5.954   7.888  0.7912  1.9852  0.6041
   34CHL1  H18B 2471   2.831   5.886   7.753 -1.1486  0.3439 -0.2264
   34CHL1  H18C 2472   2.888   5.883   7.931  2.0901  0.9270 -0.0268
   34CHL1   C12 2473   2.806   6.182   7.743  0.0931  1.0825  0.1591
   34CHL1  H12A 2474   2.709   6.191   7.797 -0.7307 -2.1997 -0.5336
   34CHL1  H12B 2475   2.859   6.279   7.739  0.0288  1.2406  1.9238
   34CHL1   C11 2476   2.793   6.128   7.600 -0.3439  0.0713  0.1082
   34CHL1  H11A 2477   2.731   6.036   7.605 -1.6842  0.9412  0.0288
   34CHL1  H11B 2478   2.734   6.195   7.534  0.4557  0.4279 -0.2597
   34CHL1    C9 2479   2.928   6.120   7.525  1.4354  0.0494 -0.8528
   34CHL1    H9 2480   2.965   6.225   7.520 -0.0703  0.7971  1.9094
   34CHL1   C10 2481   2.920   6.071   7.380 -0.2240 -0.0612 -0.1753
   34CHL1   C19 2482   2.849   5.939   7.378  0.9173 -0.1835  0.2557
   34CHL1  H19A 2483   2.891   5.858   7.441  0.3726  0.7812  1.9381
   34CHL1  H19B 2484   2.743   5.954   7.409  0.6046  0.0469 -0.8667
   34CHL1  H19C 2485   2.839   5.905   7.273 -0.3407  1.4980 -0.2152
   34CHL1    C1 2486   2.860   6.191   7.295  0.9956  0.5426 -0.8967
   34CHL1   H1A 2487   2.753   6.207   7.321  0.9065  0.9286 -1.4732
   34CHL1   H1B 2488   2.926   6.278   7.312  2.4479 -0.5634 -0.6775
   34CHL1    C2 2489   2.872   6.169   7.144 -0.3779  0.0494  0.4820
   34CHL1   H2A 2490   2.842   6.257   7.084 -0.1763  0.4696  0.9853
   34CHL1   H2B 2491   2.796   6.091   7.121 -0.3607  0.6315 -1.7367
   34CHL1   C20 2492   2.862   6.109   8.102 -0.4940 -0.2279 -0.0239
   34CHL1   H20 2493   2.866   5.999   8.118  0.9420 -0.0167  1.3040
   34CHL1   C21 2494   2.709   6.141   8.096  0.5052  0.8754  0.3075
   34CHL1  H21A 2495   2.664   6.081   8.178  1.6879 -0.9911 -0.3351
   34CHL1  H21B 2496   2.659   6.115   8.000  0.2016 -0.6942  0.8605
   34CHL1  H21C 2497   2.695   6.250   8.110  1.4912  1.1923 -0.9648
   34CHL1   C22 2498   2.930   6.180   8.219 -0.2555 -0.3149 -0.1535
   34CHL1  H22A 2499   2.970   6.280   8.192 -3.3987  0.7637 -1.1970
   34CHL1  H22B 2500   2.852   6.209   8.292  3.0154 -0.5742  3.8438
   34CHL1   C23 2501   3.020   6.104   8.322  0.5732  0.5318  0.2424
   34CHL1  H23A 2502   2.993   5.996   8.326  2.3721 -0.0999 -1.9535
   34CHL1  H23B 2503   3.123   6.100   8.279  0.9709 -0.2094  1.2386
   34CHL1   C24 2504   3.041   6.163   8.469 -0.1891  0.1559  0.2028
   34CHL1  H24A 2505   3.050   6.274   8.470 -0.7339  0.2285  2.4413
   34CHL1  H24B 2506   2.952   6.144   8.532  0.2446 -0.6451  0.5904
   34CHL1   C25 2507   3.158   6.093   8.539  0.0527 -0.1639 -0.4844
   34CHL1   H25 2508   3.239   6.140   8.479 -2.2537  0.5861 -3.2173
   34CHL1   C26 2509   3.181   6.141   8.679  0.1044  0.3630  1.0911
   34CHL1  H26A 2510   3.095   6.113   8.744  0.9997  0.6487  2.4385
   34CHL1  H26B 2511   3.276   6.088   8.703 -0.0794 -1.6242 -1.9996
   34CHL1  H26C 2512   3.188   6.251   8.691 -2.4124  0.7959 -0.8175
   34CHL1   C27 2513   3.167   5.939   8.522  1.1172 -0.2745  0.2732
   34CHL1  H27A 2514   3.074   5.888   8.554  0.9205  0.7248  1.3422
   34CHL1  H27B 2515   3.193   5.913   8.417 -1.2731  0.9832 -0.7142
   34CHL1  H27C 2516   3.247   5.894   8.585  0.6894 -2.4688 -0.6542
   35CHL1    C3 2517   6.281   6.635   7.273  0.4135  0.2364  0.0282
   35CHL1    H3 2518   6.370   6.571   7.252 -0.4415 -1.3653  1.0478
   35CHL1    O3 2519   6.249   6.713   7.159 -0.0675 -0.3097  0.1124
   35CHL1   H3' 2520   6.333   6.738   7.118 -0.5210 -0.4554 -0.9340
   35CHL1    C4 2521   6.168   6.536   7.308 -0.2707 -0.0712  0.2165
   35CHL1   H4A 2522   6.074   6.591   7.328  1.0927  1.4339  3.1210
   35CHL1   H4B 2523   6.163   6.476   7.214  0.6543 -0.3288  0.3244
   35CHL1    C5 2524   6.191   6.454   7.432  0.4538 -0.1124 -0.7126
   35CHL1    C6 2525   6.191   6.316   7.432  0.7939 -0.2966 -0.2805
   35CHL1    H6 2526   6.162   6.267   7.338 -4.9546  0.8115  0.5258
   35CHL1    C7 2527   6.218   6.229   7.550 -0.2214  0.1149 -0.2591
   35CHL1   H7A 2528   6.138   6.152   7.555 -0.2206 -0.2093 -3.2108
   35CHL1   H7B 2529   6.309   6.168   7.529 -0.0926 -0.8958  2.7633
   35CHL1    C8 2530   6.237   6.300   7.683  0.0521  0.0244  0.0666
   35CHL1    H8 2531   6.137   6.333   7.720  0.7789 -0.2158  2.3744
   35CHL1   C14 2532   6.302   6.213   7.789 -0.4108 -0.0361 -0.0449
   35CHL1   H14 2533   6.405   6.200   7.751 -1.0732 -1.8704 -1.3837
   35CHL1   C15 2534   6.247   6.072   7.821 -1.1198 -0.0399  0.1957
   35CHL1  H15A 2535   6.139   6.064   7.846 -0.6501 -1.6450  1.9782
   35CHL1  H15B 2536   6.278   5.993   7.749  0.9883 -1.4700  2.4888
   35CHL1   C16 2537   6.314   6.041   7.963  0.3315 -0.4282  0.6985
   35CHL1  H16A 2538   6.228   6.021   8.030 -0.8568 -0.4245 -0.7473
   35CHL1  H16B 2539   6.379   5.952   7.951  4.0062  2.1859 -0.6645
   35CHL1   C17 2540   6.392   6.171   8.013 -0.0848  0.5406  0.1217
   35CHL1   H17 2541   6.495   6.159   7.974 -0.2052 -2.2402  0.4042
   35CHL1   C13 2542   6.325   6.286   7.924 -0.6500  0.7107  0.4949
   35CHL1   C18 2543   6.192   6.321   7.986  0.0739 -0.4292 -0.3442
   35CHL1  H18A 2544   6.128   6.389   7.926 -0.1869  1.0623  1.5332
   35CHL1  H18B 2545   6.127   6.231   7.994  2.2955 -1.9255  2.1746
   35CHL1  H18C 2546   6.202   6.359   8.090  0.0850  1.6497 -1.0649
   35CHL1   C12 2547   6.423   6.403   7.895  1.0384  0.1709  0.2172
   35CHL1  H12A 2548   6.444   6.457   7.990  0.2370 -0.5205  0.8084
   35CHL1  H12B 2549   6.522   6.367   7.861  1.9384  0.4082  2.4064
   35CHL1   C11 2550   6.352   6.500   7.794 -0.4817  0.0979 -0.4340
   35CHL1  H11A 2551   6.263   6.548   7.839 -1.5816 -0.1365 -2.2644
   35CHL1  H11B 2552   6.412   6.592   7.776  0.2596 -0.4668 -0.9222
   35CHL1    C9 2553   6.316   6.434   7.662 -0.3950  0.0075 -0.0756
   35CHL1    H9 2554   6.416   6.409   7.619 -0.0156  1.0804  0.1444
   35CHL1   C10 2555   6.249   6.528   7.557 -0.0954  0.4878  0.4147
   35CHL1   C19 2556   6.134   6.605   7.628 -1.1124 -0.3171 -0.4820
   35CHL1  H19A 2557   6.038   6.556   7.658 -0.4396 -2.1642 -1.1994
   35CHL1  H19B 2558   6.166   6.662   7.718  1.8845 -1.8939 -0.4268
   35CHL1  H19C 2559   6.092   6.680   7.558 -0.0352  0.6929 -0.0664
   35CHL1    C1 2560   6.362   6.632   7.511 -0.0793  0.6008  0.5717
   35CHL1   H1A 2561   6.408   6.691   7.592 -1.4638 -0.0697  1.8948
   35CHL1   H1B 2562   6.447   6.567   7.480 -0.9554  0.1915 -1.0836
   35CHL1    C2 2563   6.320   6.720   7.393 -0.2657  0.7071 -0.2669
   35CHL1   H2A 2564   6.397   6.794   7.364  1.8656 -2.0058 -2.0127
   35CHL1   H2B 2565   6.232   6.783   7.420 -2.2641 -0.9852 -2.4509
   35CHL1   C20 2566   6.403   6.178   8.165 -0.4433 -0.7403  0.3035
   35CHL1   H20 2567   6.297   6.176   8.200 -0.4185  1.8569  0.7335
   35CHL1   C21 2568   6.462   6.314   8.216  0.8934 -0.0848 -0.0140
   35CHL1  H21A 2569   6.494   6.305   8.322  0.3932  0.1517  0.1579
   35CHL1  H21B 2570   6.379   6.388   8.216  0.2645 -0.7558  0.9256
   35CHL1  H21C 2571   6.545   6.352   8.153  2.0241 -1.0057  0.8777
   35CHL1   C22 2572   6.478   6.067   8.229  0.4412  0.0832  0.1912
   35CHL1  H22A 2573   6.479   6.090   8.337 -0.7623  5.3846 -0.6621
   35CHL1  H22B 2574   6.430   5.969   8.205  3.3396 -1.3150 -0.3099
   35CHL1   C23 2575   6.619   6.046   8.183 -0.3158 -0.3256  0.0823
   35CHL1  H23A 2576   6.630   6.005   8.080 -0.0855 -2.8945  1.0560
   35CHL1  H23B 2577   6.677   6.141   8.177  1.4751 -1.3764 -0.0627
   35CHL1   C24 2578   6.700   5.957   8.274 -0.0820  0.0668  0.1347
   35CHL1  H24A 2579   6.807   5.974   8.248 -0.2781  0.3198 -0.5402
   35CHL1  H24B 2580   6.686   5.992   8.378  0.7565  1.4519 -0.1913
   35CHL1   C25 2581   6.646   5.806   8.279 -0.3852 -0.2152  0.3232
   35CHL1   H25 2582   6.545   5.809   8.326  1.3750 -0.2470  4.5750
   35CHL1   C26 2583   6.635   5.743   8.140 -0.6221  0.3644  0.2425
   35CHL1  H26A 2584   6.604   5.637   8.148 -2.4519  0.9230  1.0549
   35CHL1  H26B 2585   6.563   5.804   8.080 -1.8948 -1.7075 -0.4234
   35CHL1  H26C 2586   6.735   5.761   8.095  0.5820  2.2478  3.3558
   35CHL1   C27 2587   6.738   5.710   8.364  0.2492  0.8894  0.7800
   35CHL1  H27A 2588   6.767   5.766   8.455  1.3447  1.6239  0.0080
   35CHL1  H27B 2589   6.827   5.695   8.299 -0.0836  0.6958  0.3579
   35CHL1  H27C 2590   6.696   5.608   8.376  0.2081  0.8457  0.3168
   36CHL1    C3 2591   6.618   6.135   7.021  0.2135 -0.4370  0.0089
   36CHL1    H3 2592   6.635   6.026   7.008 -0.0625 -0.4322 -0.4207
   36CHL1    O3 2593   6.553   6.187   6.910  0.3114  0.1578 -0.0546
   36CHL1   H3' 2594   6.559   6.282   6.920 -0.0647  0.4070 -1.9612
   36CHL1    C4 2595   6.527   6.166   7.150 -0.6781  0.0160  0.2293
   36CHL1   H4A 2596   6.485   6.269   7.145 -1.6655 -0.3088  1.3817
   36CHL1   H4B 2597   6.435   6.105   7.141 -1.2389  1.0834 -1.6546
   36CHL1    C5 2598   6.603   6.138   7.282  0.9001 -1.0462 -0.6920
   36CHL1    C6 2599   6.554   6.052   7.373  0.8282  0.1816 -0.0448
   36CHL1    H6 2600   6.459   6.004   7.346  0.0654  1.2330  0.6782
   36CHL1    C7 2601   6.616   6.019   7.507  0.8922  0.3538 -0.3957
   36CHL1   H7A 2602   6.543   6.021   7.590  0.2233  1.0830 -0.9854
   36CHL1   H7B 2603   6.657   5.915   7.513 -0.9838 -0.4696 -1.1593
   36CHL1    C8 2604   6.724   6.123   7.536 -0.4235 -0.2072 -0.1308
   36CHL1    H8 2605   6.667   6.216   7.556  1.0489  0.7863 -0.4165
   36CHL1   C14 2606   6.799   6.082   7.659 -0.3241  0.0471  0.2172
   36CHL1   H14 2607   6.846   5.982   7.648 -1.9525 -1.0194  2.3518
   36CHL1   C15 2608   6.717   6.065   7.790  0.2127 -0.1341 -0.0483
   36CHL1  H15A 2609   6.656   6.159   7.796 -1.5693 -1.2903  4.4692
   36CHL1  H15B 2610   6.655   5.973   7.791 -0.9154  0.5935  0.3136
   36CHL1   C16 2611   6.824   6.065   7.901  0.7135 -0.7044 -1.2619
   36CHL1  H16A 2612   6.793   6.142   7.975  0.0335 -2.5326  0.4368
   36CHL1  H16B 2613   6.828   5.974   7.963 -1.7131  0.6901  1.1592
   36CHL1   C17 2614   6.962   6.101   7.828 -0.4075  0.0091  0.0106
   36CHL1   H17 2615   7.006   6.006   7.792 -0.4527  0.5846 -1.6429
   36CHL1   C13 2616   6.920   6.170   7.698  0.2734  0.3699 -0.4238
   36CHL1   C18 2617   6.867   6.313   7.732  0.1281  0.4367  0.4850
   36CHL1  H18A 2618   6.820   6.356   7.641  0.1032 -0.1614  0.2132
   36CHL1  H18B 2619   6.799   6.325   7.820 -0.3531 -3.3400  0.7616
   36CHL1  H18C 2620   6.959   6.367   7.763  2.1369 -1.0691 -2.4274
   36CHL1   C12 2621   7.019   6.158   7.584 -0.5907 -0.4158 -0.7183
   36CHL1  H12A 2622   7.104   6.227   7.601 -1.8171  0.5758  1.9890
   36CHL1  H12B 2623   7.052   6.053   7.567 -1.8606 -1.0779  0.6233
   36CHL1   C11 2624   6.954   6.198   7.451  0.5584 -0.3889  0.5884
   36CHL1  H11A 2625   6.932   6.307   7.450 -1.9043 -0.7973 -1.4694
   36CHL1  H11B 2626   7.025   6.182   7.367 -0.2139 -0.2585 -0.1056
   36CHL1    C9 2627   6.818   6.135   7.412  0.7998  0.8077  0.3986
   36CHL1    H9 2628   6.847   6.035   7.374  0.6460  1.1942 -0.7681
   36CHL1   C10 2629   6.745   6.199   7.290 -0.7685  0.1634 -0.3037
   36CHL1   C19 2630   6.721   6.348   7.302  0.0028  0.4359 -0.7745
   36CHL1  H19A 2631   6.817   6.397   7.330  0.1714  0.8938 -2.0842
   36CHL1  H19B 2632   6.680   6.396   7.211  1.2578  0.6488 -1.2557
   36CHL1  H19C 2633   6.655   6.366   7.390  1.4058  0.8972  0.2254
   36CHL1    C1 2634   6.821   6.159   7.158  0.3685 -0.4664 -0.4203
   36CHL1   H1A 2635   6.918   6.214   7.154 -0.0873  0.2944 -1.8067
   36CHL1   H1B 2636   6.850   6.053   7.143 -1.3041 -0.5861 -3.5545
   36CHL1    C2 2637   6.756   6.200   7.025  0.1787 -0.3427  0.1058
   36CHL1   H2A 2638   6.815   6.168   6.936 -0.4251 -1.3711  0.0595
   36CHL1   H2B 2639   6.742   6.310   7.019  1.8475 -0.1183 -0.3754
   36CHL1   C20 2640   7.048   6.169   7.937 -0.0825 -0.6862  0.1926
   36CHL1   H20 2641   6.992   6.252   7.985 -0.3733 -1.6357  1.5655
   36CHL1   C21 2642   7.176   6.212   7.869 -0.6426 -0.1428 -0.1607
   36CHL1  H21A 2643   7.224   6.127   7.815 -0.5821  0.7542 -1.5651
   36CHL1  H21B 2644   7.258   6.239   7.939  0.0929 -0.4115 -0.8970
   36CHL1  H21C 2645   7.161   6.298   7.801  1.2251 -0.5496 -1.1604
   36CHL1   C22 2646   7.076   6.075   8.055 -0.1321 -0.0704 -0.3308
   36CHL1  H22A 2647   6.979   6.050   8.102  0.0455  0.1880  0.1853
   36CHL1  H22B 2648   7.118   5.982   8.011 -1.6256 -0.5362 -0.8346
   36CHL1   C23 2649   7.175   6.134   8.160 -0.6080 -0.0844  0.0460
   36CHL1  H23A 2650   7.275   6.142   8.112 -0.7459  1.2562 -0.0616
   36CHL1  H23B 2651   7.141   6.239   8.177 -1.2406 -0.3667  0.5680
   36CHL1   C24 2652   7.175   6.063   8.296  0.4352 -0.0973  0.8386
   36CHL1  H24A 2653   7.068   6.057   8.327  0.4148  0.5880  0.9232
   36CHL1  H24B 2654   7.208   5.960   8.272 -1.5512 -0.3064 -1.3347
   36CHL1   C25 2655   7.263   6.112   8.412  0.2060  0.6612  0.9539
   36CHL1   H25 2656   7.241   6.042   8.496  1.0450 -2.3394 -1.1645
   36CHL1   C26 2657   7.414   6.108   8.378 -0.1896  0.1751 -0.3021
   36CHL1  H26A 2658   7.484   6.094   8.463  2.3409 -3.0776 -2.6686
   36CHL1  H26B 2659   7.429   6.019   8.313 -2.0660  1.2934 -2.4053
   36CHL1  H26C 2660   7.445   6.191   8.312  1.0490 -0.7551 -0.9289
   36CHL1   C27 2661   7.232   6.259   8.452 -0.0655 -0.1294  0.4008
   36CHL1  H27A 2662   7.125   6.266   8.481  0.1256 -1.2351  1.4796
   36CHL1  H27B 2663   7.280   6.297   8.545  1.4676  0.8635 -0.7441
   36CHL1  H27C 2664   7.250   6.332   8.370 -0.1609  0.1481  0.6249
   37CHL1    C3 2665   4.402   2.125   6.809  0.5221 -0.1151  0.2415
   37CHL1    H3 2666   4.361   2.023   6.829 -0.7313  0.4467  0.6562
   37CHL1    O3 2667   4.432   2.131   6.669 -0.1692  0.5389  0.0326
   37CHL1   H3' 2668   4.519   2.091   6.665 -0.1142  0.4896  1.3804
   37CHL1    C4 2669   4.295   2.227   6.848 -0.4477 -0.3615 -0.0342
   37CHL1   H4A 2670   4.329   2.325   6.808  1.1508  0.8254  3.7551
   37CHL1   H4B 2671   4.204   2.194   6.793  1.3192 -0.5479 -3.0583
   37CHL1    C5 2672   4.266   2.230   6.994 -0.0341  1.5544  0.6766
   37CHL1    C6 2673   4.144   2.209   7.046  0.0888 -0.3820 -0.3501
   37CHL1    H6 2674   4.060   2.180   6.981 -0.4956 -1.2161  0.7516
   37CHL1    C7 2675   4.111   2.212   7.190 -0.2673 -0.3407  0.4085
   37CHL1   H7A 2676   4.025   2.278   7.215  0.3214  0.6764 -0.1563
   37CHL1   H7B 2677   4.078   2.115   7.232 -1.4947 -0.6473 -1.1464
   37CHL1    C8 2678   4.234   2.260   7.272 -0.0218 -0.2370  0.5862
   37CHL1    H8 2679   4.240   2.370   7.256 -0.7219 -0.2354  0.2853
   37CHL1   C14 2680   4.209   2.241   7.420 -0.1649 -0.4135 -0.9076
   37CHL1   H14 2681   4.200   2.133   7.442 -1.8236  0.0238  0.7526
   37CHL1   C15 2682   4.076   2.302   7.481 -0.2547  0.9731  0.4147
   37CHL1  H15A 2683   4.066   2.406   7.443 -1.2861  0.1958 -1.5973
   37CHL1  H15B 2684   3.988   2.239   7.455  1.3604 -1.0616 -0.4355
   37CHL1   C16 2685   4.099   2.302   7.634  0.6847 -0.1576  0.3475
   37CHL1  H16A 2686   4.084   2.406   7.668  2.1345  1.6560 -3.8905
   37CHL1  H16B 2687   4.032   2.225   7.678 -0.5991  0.3675 -0.6192
   37CHL1   C17 2688   4.248   2.260   7.659 -0.4339 -1.1086 -0.0183
   37CHL1   H17 2689   4.244   2.150   7.669 -0.0254 -1.1603 -0.3624
   37CHL1   C13 2690   4.322   2.285   7.516  0.1536  0.4838 -0.6391
   37CHL1   C18 2691   4.352   2.430   7.505 -0.1149  0.0358 -0.1579
   37CHL1  H18A 2692   4.297   2.502   7.570  0.5920 -0.6462  1.2489
   37CHL1  H18B 2693   4.456   2.460   7.528  0.1228 -0.6125 -0.3647
   37CHL1  H18C 2694   4.332   2.462   7.401 -1.7663 -1.7589 -0.4601
   37CHL1   C12 2695   4.451   2.201   7.480  0.2870  0.3390  0.4963
   37CHL1  H12A 2696   4.537   2.230   7.544  0.6169  1.2305 -0.3236
   37CHL1  H12B 2697   4.435   2.092   7.495 -1.5670  0.3955 -0.8386
   37CHL1   C11 2698   4.478   2.230   7.329 -0.3826  0.7604 -0.3160
   37CHL1  H11A 2699   4.510   2.335   7.316 -1.7448  1.2245 -0.0679
   37CHL1  H11B 2700   4.569   2.176   7.296  0.6815  1.7788  0.8605
   37CHL1    C9 2701   4.370   2.194   7.227  0.3590  0.1192 -0.0381
   37CHL1    H9 2702   4.353   2.084   7.234 -0.0122 -0.0980 -3.0015
   37CHL1   C10 2703   4.395   2.229   7.082  0.3346  0.4709  0.2869
   37CHL1   C19 2704   4.450   2.373   7.067 -0.0776 -0.3699  0.0675
   37CHL1  H19A 2705   4.429   2.412   6.965  0.0372  0.4920  0.3655
   37CHL1  H19B 2706   4.411   2.444   7.143  0.9599 -1.4979  1.7018
   37CHL1  H19C 2707   4.560   2.370   7.082 -0.5084 -1.0708  4.0807
   37CHL1    C1 2708   4.504   2.132   7.028 -0.0400  0.0713  1.1704
   37CHL1   H1A 2709   4.604   2.146   7.074  1.0737  2.7883 -1.6611
   37CHL1   H1B 2710   4.463   2.032   7.049 -0.8273 -0.8075 -3.4317
   37CHL1    C2 2711   4.529   2.149   6.881  0.2501  0.6496 -0.2196
   37CHL1   H2A 2712   4.609   2.080   6.845 -1.2333 -0.2324 -1.9527
   37CHL1   H2B 2713   4.535   2.256   6.853 -0.8086  0.7042 -0.2523
   37CHL1   C20 2714   4.309   2.317   7.788 -0.1298  0.2696  1.0842
   37CHL1   H20 2715   4.344   2.421   7.767 -0.2622 -0.6576 -6.4763
   37CHL1   C21 2716   4.437   2.238   7.816  0.1710 -0.1528 -0.2794
   37CHL1  H21A 2717   4.475   2.244   7.921  0.3577 -0.9088 -0.2969
   37CHL1  H21B 2718   4.516   2.276   7.748 -0.4295  0.0152 -0.8885
   37CHL1  H21C 2719   4.416   2.132   7.788 -0.8206  0.1659 -0.7865
   37CHL1   C22 2720   4.207   2.304   7.904  0.3351  0.4480  0.1621
   37CHL1  H22A 2721   4.106   2.345   7.881  0.1386 -0.1836 -0.1229
   37CHL1  H22B 2722   4.197   2.205   7.954 -0.2150  1.8800  3.1566
   37CHL1   C23 2723   4.248   2.394   8.023  0.2773  0.1299  1.0362
   37CHL1  H23A 2724   4.333   2.348   8.076  1.6545 -1.6813 -2.4094
   37CHL1  H23B 2725   4.279   2.485   7.967  1.9337 -1.9987 -1.7384
   37CHL1   C24 2726   4.130   2.415   8.113  0.7193 -0.5614 -0.0043
   37CHL1  H24A 2727   4.042   2.441   8.050  0.1294 -1.7480  0.3051
   37CHL1  H24B 2728   4.101   2.320   8.162 -0.9992  0.6861  1.5677
   37CHL1   C25 2729   4.169   2.525   8.213 -0.8140  0.2397  0.3696
   37CHL1   H25 2730   4.179   2.613   8.146 -2.1447 -0.8084 -1.2992
   37CHL1   C26 2731   4.053   2.530   8.320 -0.3313 -0.3584 -0.4267
   37CHL1  H26A 2732   4.048   2.438   8.383 -0.4380 -0.0935 -0.0447
   37CHL1  H26B 2733   4.069   2.613   8.391  0.0160 -1.6511  1.0611
   37CHL1  H26C 2734   3.950   2.543   8.280 -0.5289  2.1922  0.7345
   37CHL1   C27 2735   4.296   2.489   8.286  0.5874  0.1983  0.2619
   37CHL1  H27A 2736   4.384   2.485   8.218 -0.8399 -0.0486 -1.6269
   37CHL1  H27B 2737   4.327   2.568   8.359 -0.8682  0.6567  0.4021
   37CHL1  H27C 2738   4.284   2.385   8.322 -0.8820  0.0772 -0.5223
   38CHL1    C3 2739   6.115   1.989   6.480  1.2549 -0.1513  0.6977
   38CHL1    H3 2740   6.061   1.893   6.495 -1.8612  1.4435  0.5132
   38CHL1    O3 2741   6.093   2.033   6.346 -0.5870  0.4644 -0.0084
   38CHL1   H3' 2742   6.110   1.953   6.295  0.7101  2.3219 -2.7484
   38CHL1    C4 2743   6.060   2.097   6.577  0.8316 -0.1964  0.9216
   38CHL1   H4A 2744   6.112   2.191   6.552  1.5935 -0.3045  2.0500
   38CHL1   H4B 2745   5.950   2.113   6.564  0.9214 -0.4109 -0.2335
   38CHL1    C5 2746   6.098   2.053   6.720  0.0362 -0.2533 -0.6565
   38CHL1    C6 2747   5.997   2.058   6.815  0.0351  0.7425 -0.3051
   38CHL1    H6 2748   5.895   2.089   6.785  0.2143  0.1448 -1.6070
   38CHL1    C7 2749   6.033   2.034   6.964  1.1256 -0.0361  0.5828
   38CHL1   H7A 2750   5.984   2.107   7.032  1.9632  0.8055  0.3168
   38CHL1   H7B 2751   5.991   1.937   6.997  2.4129 -0.7123  0.3258
   38CHL1    C8 2752   6.184   2.032   6.998  0.1025 -0.8935  0.0937
   38CHL1    H8 2753   6.220   2.137   6.994 -1.2078 -0.4230  0.0334
   38CHL1   C14 2754   6.200   1.955   7.127 -0.0568  0.1723 -0.1560
   38CHL1   H14 2755   6.171   1.850   7.105  0.5505 -0.0494  0.0646
   38CHL1   C15 2756   6.121   1.985   7.257  0.3484  0.5541 -0.8001
   38CHL1  H15A 2757   6.107   2.095   7.270 -3.4890  0.0034  1.6710
   38CHL1  H15B 2758   6.019   1.942   7.250  1.2313 -1.5853 -1.2052
   38CHL1   C16 2759   6.209   1.934   7.374 -0.4174  0.1081  0.4316
   38CHL1  H16A 2760   6.244   2.019   7.437 -2.6063  1.3172  0.1550
   38CHL1  H16B 2761   6.169   1.858   7.444  0.2528 -0.2351  0.4461
   38CHL1   C17 2762   6.336   1.866   7.305  0.4932  0.0459  0.5624
   38CHL1   H17 2763   6.290   1.766   7.290 -0.5643  0.6283 -0.2684
   38CHL1   C13 2764   6.351   1.934   7.169  0.4673  0.7929  0.3137
   38CHL1   C18 2765   6.418   2.068   7.200 -0.4378  0.5523 -0.4449
   38CHL1  H18A 2766   6.523   2.066   7.236 -0.4079 -0.0779 -0.5451
   38CHL1  H18B 2767   6.426   2.126   7.106 -0.4776  1.1134 -0.1018
   38CHL1  H18C 2768   6.358   2.133   7.268  0.8086  2.3529 -0.9974
   38CHL1   C12 2769   6.423   1.857   7.064  0.3943  0.1226 -0.0463
   38CHL1  H12A 2770   6.530   1.846   7.096  0.1159 -3.9398  0.0916
   38CHL1  H12B 2771   6.374   1.758   7.056  0.5277  0.0037  0.5288
   38CHL1   C11 2772   6.406   1.923   6.923  0.3112 -0.0904 -0.4779
   38CHL1  H11A 2773   6.478   2.008   6.915 -0.2464  0.6508  1.6388
   38CHL1  H11B 2774   6.432   1.851   6.843  0.0583  0.4257 -1.0317
   38CHL1    C9 2775   6.261   1.963   6.888 -0.1306  0.3978  0.0293
   38CHL1    H9 2776   6.216   1.862   6.876  1.6594 -0.3626 -0.5446
   38CHL1   C10 2777   6.247   2.021   6.751  0.3968 -0.3853  0.3472
   38CHL1   C19 2778   6.323   2.154   6.733 -0.0934  0.2206 -0.0226
   38CHL1  H19A 2779   6.430   2.160   6.762 -0.1628 -0.1321  0.3143
   38CHL1  H19B 2780   6.322   2.171   6.623  1.4027 -1.7024 -0.3881
   38CHL1  H19C 2781   6.277   2.239   6.787 -0.0446  0.2904 -0.0886
   38CHL1    C1 2782   6.295   1.922   6.643 -0.0482  0.0122 -0.2502
   38CHL1   H1A 2783   6.405   1.911   6.651 -0.3158 -2.6539  0.6593
   38CHL1   H1B 2784   6.253   1.820   6.652  0.1226 -0.1499 -1.2348
   38CHL1    C2 2785   6.267   1.968   6.496  0.0839  0.7237 -0.4341
   38CHL1   H2A 2786   6.288   1.878   6.435 -0.7429 -2.2611  3.2897
   38CHL1   H2B 2787   6.317   2.060   6.457  2.4863 -1.2625 -2.3813
   38CHL1   C20 2788   6.449   1.839   7.407  0.0860 -0.1246 -0.5387
   38CHL1   H20 2789   6.475   1.937   7.453  0.2513 -0.2036 -0.4622
   38CHL1   C21 2790   6.578   1.781   7.347  0.0535  0.4550  0.3212
   38CHL1  H21A 2791   6.560   1.683   7.298  0.4871 -0.3243  1.6669
   38CHL1  H21B 2792   6.647   1.760   7.432 -1.7599 -0.1469  1.7162
   38CHL1  H21C 2793   6.619   1.856   7.276 -3.0576  0.8043 -1.2972
   38CHL1   C22 2794   6.387   1.750   7.529 -0.2813  0.0630  0.0228
   38CHL1  H22A 2795   6.290   1.787   7.567 -0.4104 -0.7307  0.4973
   38CHL1  H22B 2796   6.356   1.652   7.485 -0.4575 -0.3135  0.9543
   38CHL1   C23 2797   6.484   1.724   7.644  0.3322  0.6350  0.1547
   38CHL1  H23A 2798   6.573   1.664   7.614  0.7915  0.8162  1.1143
   38CHL1  H23B 2799   6.524   1.823   7.676  1.3571  0.9978 -2.0102
   38CHL1   C24 2800   6.417   1.642   7.749  0.9536 -0.0032  0.2957
   38CHL1  H24A 2801   6.310   1.669   7.754  0.5305 -1.7390  4.1121
   38CHL1  H24B 2802   6.418   1.533   7.728  0.9799  0.0972 -0.2344
   38CHL1   C25 2803   6.461   1.660   7.894 -1.0779 -0.0252 -0.2124
   38CHL1   H25 2804   6.462   1.769   7.917  2.4431 -0.6917  3.9124
   38CHL1   C26 2805   6.360   1.591   7.996 -0.1923  0.3393 -0.1163
   38CHL1  H26A 2806   6.259   1.579   7.950  0.2922 -0.8812 -0.9247
   38CHL1  H26B 2807   6.403   1.490   8.013 -0.6797  0.1622  0.0654
   38CHL1  H26C 2808   6.354   1.650   8.090  2.0734 -0.4014  0.5523
   38CHL1   C27 2809   6.607   1.604   7.914 -0.6195 -0.1363 -0.2942
   38CHL1  H27A 2810   6.675   1.660   7.847  0.0597  1.4643  1.6211
   38CHL1  H27B 2811   6.637   1.604   8.021 -1.8585 -1.9607  0.1194
   38CHL1  H27C 2812   6.628   1.499   7.885  2.4061 -0.3065  1.9877
   39CHL1    C3 2813   6.224   1.510   6.861  0.2393 -0.2622  0.3592
   39CHL1    H3 2814   6.233   1.620   6.868 -0.5757 -0.2340  1.0326
   39CHL1    O3 2815   6.149   1.490   6.738 -1.0929 -0.4318 -0.2514
   39CHL1   H3' 2816   6.198   1.529   6.665 -0.6439  1.6353  1.0569
   39CHL1    C4 2817   6.353   1.427   6.864  0.8324 -0.1202  0.5024
   39CHL1   H4A 2818   6.309   1.330   6.832 -0.2360  0.2462  0.8333
   39CHL1   H4B 2819   6.424   1.442   6.780  0.8404 -1.6953  0.1972
   39CHL1    C5 2820   6.423   1.406   6.998 -0.2846 -0.2196 -0.4520
   39CHL1    C6 2821   6.554   1.431   7.015 -0.0327  0.5524  0.3631
   39CHL1    H6 2822   6.614   1.460   6.928 -1.6659  1.5232 -0.4988
   39CHL1    C7 2823   6.631   1.395   7.137  0.1804 -0.0309 -0.2295
   39CHL1   H7A 2824   6.725   1.340   7.116 -0.3563 -1.1525  0.2062
   39CHL1   H7B 2825   6.663   1.488   7.188  0.1266 -0.5763  0.8457
   39CHL1    C8 2826   6.544   1.314   7.241 -0.1913  0.6238 -0.0444
   39CHL1    H8 2827   6.554   1.208   7.208  1.6314  0.6798  0.2114
   39CHL1   C14 2828   6.610   1.315   7.377 -0.8990 -0.2134  0.0047
   39CHL1   H14 2829   6.604   1.424   7.395 -0.0408 -0.5206  2.5820
   39CHL1   C15 2830   6.757   1.267   7.392  0.0758  0.2267  0.5827
   39CHL1  H15A 2831   6.769   1.181   7.322 -0.6997 -0.2519  1.0210
   39CHL1  H15B 2832   6.841   1.336   7.373  0.2388  0.1880  1.1630
   39CHL1   C16 2833   6.769   1.211   7.535 -0.4014 -0.1489 -0.0424
   39CHL1  H16A 2834   6.780   1.102   7.516  1.3463  0.1178 -0.7244
   39CHL1  H16B 2835   6.861   1.249   7.584 -1.0048  2.3053 -0.6745
   39CHL1   C17 2836   6.631   1.239   7.602 -0.0009 -0.2757 -0.1121
   39CHL1   H17 2837   6.633   1.342   7.644  3.6460 -0.7997  1.4300
   39CHL1   C13 2838   6.533   1.239   7.487  0.3045  0.7660 -0.0179
   39CHL1   C18 2839   6.496   1.087   7.455 -0.0810 -0.6231 -0.3969
   39CHL1  H18A 2840   6.477   1.064   7.349 -0.8518  0.5692 -0.5423
   39CHL1  H18B 2841   6.573   1.010   7.475  0.4875 -0.5518 -2.1469
   39CHL1  H18C 2842   6.398   1.062   7.502 -0.1097  0.9888  0.4878
   39CHL1   C12 2843   6.399   1.322   7.505  0.0496 -0.0776 -0.8014
   39CHL1  H12A 2844   6.333   1.269   7.578  1.3486 -0.6791 -0.0288
   39CHL1  H12B 2845   6.420   1.429   7.526  0.5132 -0.4069  0.5248
   39CHL1   C11 2846   6.320   1.325   7.371  0.3998  0.2176 -0.6244
   39CHL1  H11A 2847   6.256   1.235   7.366 -0.4714  0.6453  1.6547
   39CHL1  H11B 2848   6.238   1.399   7.384  1.2993  0.8713  2.1129
   39CHL1    C9 2849   6.400   1.367   7.245  0.2592 -1.4206  1.2688
   39CHL1    H9 2850   6.416   1.475   7.263  1.1171 -1.7812  2.8305
   39CHL1   C10 2851   6.329   1.358   7.107  0.0332  0.2215  0.5116
   39CHL1   C19 2852   6.271   1.216   7.085 -0.0741  0.0367  0.6067
   39CHL1  H19A 2853   6.184   1.202   7.153 -1.5446  2.9924 -0.4885
   39CHL1  H19B 2854   6.237   1.206   6.980  3.2265  0.4024 -0.6139
   39CHL1  H19C 2855   6.359   1.149   7.094  0.1950  0.2684 -0.2107
   39CHL1    C1 2856   6.209   1.461   7.110  0.2741  0.4795  0.5385
   39CHL1   H1A 2857   6.129   1.433   7.182 -1.9042  0.9082 -1.5699
   39CHL1   H1B 2858   6.254   1.561   7.125  0.1886  0.6615 -0.3334
   39CHL1    C2 2859   6.128   1.468   6.980 -0.4017  0.5614  0.0674
   39CHL1   H2A 2860   6.042   1.538   6.977 -0.5124  0.4058 -0.5693
   39CHL1   H2B 2861   6.088   1.370   6.948 -1.2203  0.8652  0.1437
   39CHL1   C20 2862   6.615   1.151   7.726  0.0514  0.2035 -0.2222
   39CHL1   H20 2863   6.591   1.047   7.693  4.1347 -0.8627 -0.3823
   39CHL1   C21 2864   6.491   1.189   7.809 -0.4056  0.3070  0.1215
   39CHL1  H21A 2865   6.493   1.298   7.830  1.0674  0.1095  1.1832
   39CHL1  H21B 2866   6.484   1.129   7.903 -1.8041 -1.2149 -0.8856
   39CHL1  H21C 2867   6.391   1.183   7.760  0.1886  0.8692 -1.1921
   39CHL1   C22 2868   6.737   1.134   7.826  0.9240  0.2485 -0.3274
   39CHL1  H22A 2869   6.711   1.078   7.918  2.6564  0.7213  0.4876
   39CHL1  H22B 2870   6.815   1.080   7.769 -0.3593 -0.7685 -1.1822
   39CHL1   C23 2871   6.780   1.264   7.894 -0.2458 -0.2609  0.1959
   39CHL1  H23A 2872   6.798   1.343   7.819 -1.4709  0.4306  0.5940
   39CHL1  H23B 2873   6.705   1.311   7.961  0.1860  1.9385 -0.7868
   39CHL1   C24 2874   6.903   1.254   7.990 -0.2279  0.3909 -0.8702
   39CHL1  H24A 2875   6.978   1.211   7.920  0.3684  2.7437 -1.7790
   39CHL1  H24B 2876   6.934   1.357   8.016 -1.8267  0.8261 -0.5558
   39CHL1   C25 2877   6.880   1.176   8.115 -0.4384 -0.3099  0.0527
   39CHL1   H25 2878   6.810   1.097   8.082 -1.4730  0.6364 -0.0598
   39CHL1   C26 2879   7.007   1.105   8.170 -0.1380 -0.0611 -0.3672
   39CHL1  H26A 2880   7.046   1.038   8.091 -0.4876 -0.2234 -0.4052
   39CHL1  H26B 2881   7.084   1.183   8.186 -1.7497  1.4906  0.2027
   39CHL1  H26C 2882   6.995   1.047   8.264  0.6159  0.3198 -0.0306
   39CHL1   C27 2883   6.825   1.258   8.232 -0.3629  0.2524  0.4692
   39CHL1  H27A 2884   6.728   1.307   8.206  0.4719  1.0414 -1.3504
   39CHL1  H27B 2885   6.807   1.190   8.317  0.1405 -0.1919  0.2255
   39CHL1  H27C 2886   6.889   1.338   8.277  2.2401 -0.0443 -2.3636
   40CHL1    C3 2887   2.687   0.815   7.069 -0.9385 -0.5227  0.1976
   40CHL1    H3 2888   2.628   0.904   7.038 -0.4034 -0.2491 -0.0535
   40CHL1    O3 2889   2.664   0.722   6.965  0.1748  0.4369  0.0544
   40CHL1   H3' 2890   2.695   0.642   7.008 -1.9090  0.2829  1.4144
   40CHL1    C4 2891   2.835   0.847   7.092 -0.2107 -0.2856  0.1681
   40CHL1   H4A 2892   2.897   0.755   7.091  0.0009 -0.1414  0.0678
   40CHL1   H4B 2893   2.874   0.896   7.001 -0.8681 -0.1599 -0.0481
   40CHL1    C5 2894   2.857   0.936   7.214  0.6287  0.9685  0.2259
   40CHL1    C6 2895   2.920   1.055   7.206 -1.0887 -0.2856 -0.3830
   40CHL1    H6 2896   2.951   1.104   7.112 -3.9159  2.6182  0.0140
   40CHL1    C7 2897   2.949   1.145   7.320 -0.3028  0.4818  1.1868
   40CHL1   H7A 2898   3.052   1.179   7.297  0.1401 -1.4358  0.1749
   40CHL1   H7B 2899   2.880   1.232   7.311  0.7209  1.0552 -2.4823
   40CHL1    C8 2900   2.927   1.067   7.449  0.5024  0.4289 -0.3095
   40CHL1    H8 2901   3.008   0.993   7.463  0.3973  0.2502 -0.6422
   40CHL1   C14 2902   2.931   1.160   7.570 -0.2437  0.8717 -0.5336
   40CHL1   H14 2903   2.844   1.229   7.565  1.1627  2.7991  0.1141
   40CHL1   C15 2904   3.057   1.256   7.575 -0.6161 -0.0454 -0.0977
   40CHL1  H15A 2905   3.155   1.209   7.553  0.2921 -1.0130  4.7967
   40CHL1  H15B 2906   3.051   1.340   7.502  1.5736 -0.2154 -0.5269
   40CHL1   C16 2907   3.063   1.294   7.718  0.8676 -0.6272 -0.0077
   40CHL1  H16A 2908   3.157   1.250   7.757  0.4047  0.4431  2.5048
   40CHL1  H16B 2909   3.057   1.402   7.743  0.7727 -0.9378  1.4451
   40CHL1   C17 2910   2.943   1.220   7.794  0.5686  0.8600  0.0273
   40CHL1   H17 2911   2.849   1.279   7.789 -0.8150 -1.3045 -0.6643
   40CHL1   C13 2912   2.911   1.094   7.708 -0.1176 -0.0490 -0.1499
   40CHL1   C18 2913   3.019   0.986   7.734  0.4992  0.4799  0.1409
   40CHL1  H18A 2914   3.010   0.901   7.663 -1.0113  1.3126 -0.7211
   40CHL1  H18B 2915   3.126   1.017   7.743  1.1448 -0.6679 -2.6412
   40CHL1  H18C 2916   2.999   0.935   7.830  1.5138 -1.7774 -0.7804
   40CHL1   C12 2917   2.767   1.043   7.701  0.1580 -0.1717 -0.4794
   40CHL1  H12A 2918   2.737   0.987   7.792 -1.6316  0.2122 -0.8140
   40CHL1  H12B 2919   2.702   1.131   7.687  0.6245 -0.0136 -1.8790
   40CHL1   C11 2920   2.750   0.944   7.582  0.1702 -0.2780  0.0521
   40CHL1  H11A 2921   2.801   0.854   7.621 -1.0846 -1.9473 -1.9296
   40CHL1  H11B 2922   2.640   0.929   7.573 -0.1885  1.9373  0.0392
   40CHL1    C9 2923   2.793   1.001   7.448 -0.5030 -0.2276  0.4760
   40CHL1    H9 2924   2.728   1.085   7.413  2.3255  1.9098 -0.0034
   40CHL1   C10 2925   2.788   0.886   7.343  0.9529 -0.2935  0.7459
   40CHL1   C19 2926   2.867   0.757   7.388 -0.5970 -0.3329 -0.0191
   40CHL1  H19A 2927   2.809   0.705   7.468  2.4191 -3.1881  0.5163
   40CHL1  H19B 2928   2.882   0.683   7.307 -0.4584  0.0416 -0.3412
   40CHL1  H19C 2929   2.964   0.785   7.433 -1.2898  0.9919  0.7140
   40CHL1    C1 2930   2.643   0.854   7.307 -0.2191  0.2782  0.0315
   40CHL1   H1A 2931   2.586   0.820   7.396  0.6532  1.0718  0.9160
   40CHL1   H1B 2932   2.582   0.943   7.283 -1.9154 -0.4574  1.3243
   40CHL1    C2 2933   2.627   0.759   7.197  0.1668  0.0645  0.0539
   40CHL1   H2A 2934   2.519   0.736   7.182  0.3858 -0.6016 -0.5773
   40CHL1   H2B 2935   2.668   0.659   7.223  0.6257  0.4498  0.8597
   40CHL1   C20 2936   2.973   1.207   7.944  0.1715 -0.6204  0.3079
   40CHL1   H20 2937   3.022   1.109   7.965  0.7304 -1.0175 -2.4475
   40CHL1   C21 2938   2.833   1.189   8.015 -0.7438  0.4929  0.6170
   40CHL1  H21A 2939   2.757   1.267   7.996  0.3065  0.9717 -2.0077
   40CHL1  H21B 2940   2.841   1.174   8.125 -0.0695  2.9129  0.9609
   40CHL1  H21C 2941   2.791   1.091   7.984  1.5708 -0.6478  0.7961
   40CHL1   C22 2942   3.058   1.321   8.000 -0.2376 -0.0434  0.7222
   40CHL1  H22A 2943   3.159   1.331   7.956 -0.9678  2.9835 -0.5578
   40CHL1  H22B 2944   3.019   1.424   7.980  0.6920  0.4731  1.4829
   40CHL1   C23 2945   3.076   1.303   8.152  0.3561  0.3398  0.3588
   40CHL1  H23A 2946   2.979   1.303   8.207  0.9745  2.9738  1.5672
   40CHL1  H23B 2947   3.136   1.212   8.176  2.5943  1.9071  0.9835
   40CHL1   C24 2948   3.163   1.415   8.214  0.2660 -0.3601 -0.4765
   40CHL1  H24A 2949   3.257   1.422   8.156  0.7113 -0.8245  0.1787
   40CHL1  H24B 2950   3.109   1.511   8.198  0.2881 -0.4082 -0.8437
   40CHL1   C25 2951   3.191   1.396   8.368 -0.2502  0.1070 -0.4909
   40CHL1   H25 2952   3.257   1.308   8.384  0.2271  0.8372  1.9433
   40CHL1   C26 2953   3.281   1.508   8.417 -0.7356  0.3952 -0.6122
   40CHL1  H26A 2954   3.224   1.603   8.414 -1.6665 -0.1771 -1.6867
   40CHL1  H26B 2955   3.305   1.484   8.523 -0.9648 -0.1972 -0.6861
   40CHL1  H26C 2956   3.372   1.531   8.358  0.4437 -0.6994  0.6992
   40CHL1   C27 2957   3.063   1.376   8.447  0.1692 -0.7781 -0.2555
   40CHL1  H27A 2958   3.017   1.280   8.416 -2.5704  0.2019  0.4661
   40CHL1  H27B 2959   3.086   1.378   8.556  0.5520 -1.8320 -0.3012
   40CHL1  H27C 2960   3.000   1.466   8.431 -1.4164 -2.1000 -1.7941
   41CHL1    C3 2961   3.410   1.824   7.112  0.9945  0.0631 -0.3920
   41CHL1    H3 2962   3.443   1.920   7.156 -0.3505  0.3294  0.0897
   41CHL1    O3 2963   3.416   1.824   6.969  0.2071 -0.4088  0.2562
   41CHL1   H3' 2964   3.507   1.838   6.941  0.2492 -1.9885 -0.5313
   41CHL1    C4 2965   3.500   1.714   7.169 -0.5203 -0.1533  0.4302
   41CHL1   H4A 2966   3.471   1.616   7.125 -0.8067 -0.4054  1.1689
   41CHL1   H4B 2967   3.604   1.736   7.138 -0.9842  2.7528  0.5934
   41CHL1    C5 2968   3.485   1.704   7.316  0.2639  0.4070  0.4726
   41CHL1    C6 2969   3.597   1.718   7.390 -0.5279 -0.3071  0.2963
   41CHL1    H6 2970   3.692   1.741   7.340 -2.1277  0.9981 -2.3102
   41CHL1    C7 2971   3.599   1.734   7.539  0.0849  0.4104  0.2106
   41CHL1   H7A 2972   3.674   1.665   7.583 -2.4085 -3.8226 -1.5906
   41CHL1   H7B 2973   3.634   1.835   7.570  2.3501 -0.0323 -0.7553
   41CHL1    C8 2974   3.465   1.688   7.603 -0.4046  0.1636 -0.6147
   41CHL1    H8 2975   3.454   1.578   7.613  0.8533  0.2497  2.8646
   41CHL1   C14 2976   3.458   1.736   7.744 -0.3206 -0.7663  0.4140
   41CHL1   H14 2977   3.462   1.847   7.730  1.5781 -1.0424 -1.8420
   41CHL1   C15 2978   3.578   1.712   7.842 -0.0612 -0.0899  0.3296
   41CHL1  H15A 2979   3.605   1.605   7.845  1.3678  0.1341 -1.9337
   41CHL1  H15B 2980   3.673   1.762   7.811  0.0167 -0.8888 -0.8055
   41CHL1   C16 2981   3.519   1.763   7.978 -0.0191 -0.5299  0.6018
   41CHL1  H16A 2982   3.546   1.694   8.061 -0.0920  0.8095  1.7918
   41CHL1  H16B 2983   3.562   1.862   8.003  0.6789 -0.4040 -1.0089
   41CHL1   C17 2984   3.370   1.788   7.957 -0.3564 -0.2041  0.2139
   41CHL1   H17 2985   3.350   1.890   7.917 -0.2825 -0.9529 -1.8196
   41CHL1   C13 2986   3.328   1.714   7.830 -0.4773  0.8966 -0.2758
   41CHL1   C18 2987   3.325   1.560   7.853  0.0627 -0.6507 -1.0165
   41CHL1  H18A 2988   3.417   1.523   7.903 -0.4519 -1.1871 -0.4543
   41CHL1  H18B 2989   3.251   1.545   7.934  0.3385  1.4902 -0.3110
   41CHL1  H18C 2990   3.283   1.499   7.770  0.4841 -0.7670 -1.1474
   41CHL1   C12 2991   3.206   1.758   7.743 -0.0048 -0.1480 -0.7186
   41CHL1  H12A 2992   3.119   1.716   7.798  0.2504  0.0694 -0.1405
   41CHL1  H12B 2993   3.198   1.869   7.742  0.0192 -0.1211  0.4274
   41CHL1   C11 2994   3.212   1.705   7.597 -0.1785  0.9573  0.2744
   41CHL1  H11A 2995   3.189   1.597   7.598  0.6709  0.7332 -1.5207
   41CHL1  H11B 2996   3.126   1.757   7.551 -1.4604 -0.6428  0.7651
   41CHL1    C9 2997   3.340   1.739   7.524 -0.2279  0.3522 -0.0687
   41CHL1    H9 2998   3.353   1.849   7.530  1.4061  0.1059  3.8040
   41CHL1   C10 2999   3.333   1.692   7.378 -0.2290 -0.2647  0.2663
   41CHL1   C19 3000   3.284   1.553   7.355 -0.0980 -0.3496  0.6672
   41CHL1  H19A 3001   3.350   1.480   7.406  0.3812 -0.7847 -0.5360
   41CHL1  H19B 3002   3.182   1.535   7.396 -0.3027 -4.2971 -1.1395
   41CHL1  H19C 3003   3.278   1.512   7.251 -0.3920 -1.2277  1.0200
   41CHL1    C1 3004   3.249   1.802   7.302 -0.5824 -0.0103  0.0006
   41CHL1   H1A 3005   3.141   1.782   7.319 -0.3473 -1.5311 -0.1390
   41CHL1   H1B 3006   3.270   1.905   7.337 -0.2888 -0.3835  0.9426
   41CHL1    C2 3007   3.269   1.804   7.153  0.2880  0.5001  0.1867
   41CHL1   H2A 3008   3.200   1.873   7.099  1.2143  0.6004 -0.9305
   41CHL1   H2B 3009   3.256   1.701   7.112 -2.4543  1.0464 -0.5450
   41CHL1   C20 3010   3.297   1.761   8.093  0.0680 -0.2627  0.2022
   41CHL1   H20 3011   3.318   1.660   8.134 -1.9025  0.0680  2.2114
   41CHL1   C21 3012   3.142   1.766   8.065 -0.8881 -0.0051 -0.1185
   41CHL1  H21A 3013   3.109   1.865   8.029 -2.1938 -1.0299 -1.9031
   41CHL1  H21B 3014   3.077   1.719   8.142  0.3013 -1.6563 -0.0752
   41CHL1  H21C 3015   3.126   1.698   7.978  0.1188  0.5474 -0.7482
   41CHL1   C22 3016   3.338   1.867   8.202  0.4245 -0.0604 -0.0567
   41CHL1  H22A 3017   3.348   1.963   8.147 -0.7089  1.1116  1.6743
   41CHL1  H22B 3018   3.245   1.892   8.259  0.8704 -1.9692  1.6369
   41CHL1   C23 3019   3.460   1.847   8.295  0.6546 -0.1921 -0.0019
   41CHL1  H23A 3020   3.455   1.753   8.353 -1.2592  1.2990  2.4700
   41CHL1  H23B 3021   3.554   1.860   8.239  0.3625 -0.4035 -0.5436
   41CHL1   C24 3022   3.464   1.951   8.408  0.4781  0.1418  0.6463
   41CHL1  H24A 3023   3.465   2.044   8.347  3.2467  0.0929  0.5110
   41CHL1  H24B 3024   3.377   1.941   8.476  0.3509 -2.6992  0.1755
   41CHL1   C25 3025   3.591   1.978   8.495  0.3246  0.2982 -0.1480
   41CHL1   H25 3026   3.682   1.996   8.433  1.2182  0.0860  1.0766
   41CHL1   C26 3027   3.585   2.108   8.577 -0.0421 -0.2557 -0.3999
   41CHL1  H26A 3028   3.569   2.200   8.518 -0.0443 -0.7419 -1.1735
   41CHL1  H26B 3029   3.510   2.116   8.659  0.3618 -0.7766  0.0268
   41CHL1  H26C 3030   3.686   2.113   8.624 -0.0943 -1.2460 -0.1589
   41CHL1   C27 3031   3.606   1.847   8.579 -0.7417 -0.4468  0.3645
   41CHL1  H27A 3032   3.703   1.853   8.633 -0.6517  0.1093  0.1527
   41CHL1  H27B 3033   3.526   1.837   8.654 -1.6666 -0.4527 -0.6019
   41CHL1  H27C 3034   3.603   1.753   8.520 -1.0199 -0.3192  0.1752
   42CHL1    C3 3035   3.146   5.338   6.847  0.3501 -0.3348 -0.0860
   42CHL1    H3 3036   3.061   5.271   6.869 -0.4439  0.6822 -0.0094
   42CHL1    O3 3037   3.158   5.349   6.707  0.0934 -0.2809 -0.3376
   42CHL1   H3' 3038   3.227   5.416   6.697 -0.0405 -0.2353 -1.0073
   42CHL1    C4 3039   3.096   5.479   6.895  0.0311  0.7620  0.3358
   42CHL1   H4A 3040   3.165   5.556   6.854 -0.4193  1.6795  1.2406
   42CHL1   H4B 3041   2.998   5.490   6.842  0.2765 -1.1291 -0.5964
   42CHL1    C5 3042   3.085   5.492   7.043 -0.2173 -0.9723  0.8610
   42CHL1    C6 3043   2.973   5.530   7.112  0.5503 -0.0915 -0.0060
   42CHL1    H6 3044   2.886   5.555   7.049 -0.7985 -1.1964  1.3180
   42CHL1    C7 3045   2.958   5.543   7.258 -0.0875 -0.5553  0.2112
   42CHL1   H7A 3046   2.901   5.636   7.281  0.7345 -0.1654  0.6852
   42CHL1   H7B 3047   2.894   5.460   7.296 -2.8816  1.0606 -0.6522
   42CHL1    C8 3048   3.093   5.549   7.338  0.7163 -0.0320  0.4877
   42CHL1    H8 3049   3.131   5.653   7.326 -2.5591  1.1031 -1.7138
   42CHL1   C14 3050   3.064   5.509   7.477 -0.3888 -0.1791 -0.4539
   42CHL1   H14 3051   3.030   5.404   7.467  2.2926 -0.9676 -2.3908
   42CHL1   C15 3052   2.948   5.585   7.555 -0.6263  0.5424  0.6383
   42CHL1  H15A 3053   2.967   5.695   7.551  1.0269  0.2947  0.8402
   42CHL1  H15B 3054   2.845   5.562   7.520 -0.1578 -0.9610  0.1766
   42CHL1   C16 3055   2.976   5.536   7.698  0.2411  0.0998 -0.5331
   42CHL1  H16A 3056   2.971   5.623   7.767 -0.2668  1.2011 -1.9260
   42CHL1  H16B 3057   2.898   5.461   7.722  0.2895 -0.0340 -0.7943
   42CHL1   C17 3058   3.121   5.472   7.700 -0.2781 -0.1484 -0.1720
   42CHL1   H17 3059   3.103   5.363   7.689  0.9092 -0.4293  0.4930
   42CHL1   C13 3060   3.189   5.513   7.568 -0.7382  0.7837 -0.2589
   42CHL1   C18 3061   3.247   5.655   7.579 -0.2078  0.5219  0.1256
   42CHL1  H18A 3062   3.343   5.644   7.634 -0.0274 -2.7898 -0.6417
   42CHL1  H18B 3063   3.272   5.693   7.478 -2.0369 -0.1862 -0.6315
   42CHL1  H18C 3064   3.185   5.734   7.627 -0.5657  0.0856  0.4030
   42CHL1   C12 3065   3.288   5.410   7.510 -0.1242  0.5551  0.5260
   42CHL1  H12A 3066   3.390   5.409   7.554  1.2045 -0.4305 -2.2877
   42CHL1  H12B 3067   3.240   5.310   7.524 -0.4072  0.4317 -1.0357
   42CHL1   C11 3068   3.321   5.434   7.358 -0.2958  0.4235  0.0838
   42CHL1  H11A 3069   3.380   5.528   7.353  1.7436 -0.8280 -0.0550
   42CHL1  H11B 3070   3.389   5.353   7.325  1.4879  0.8032  2.6014
   42CHL1    C9 3071   3.189   5.448   7.277  0.3740  0.7127 -0.8414
   42CHL1    H9 3072   3.135   5.353   7.295  3.0260 -0.8409 -0.5163
   42CHL1   C10 3073   3.217   5.461   7.122  0.2783  0.0246  0.3402
   42CHL1   C19 3074   3.298   5.583   7.099 -0.4564 -0.0755  0.1403
   42CHL1  H19A 3075   3.322   5.616   6.996  2.4024  0.3011  0.8543
   42CHL1  H19B 3076   3.250   5.671   7.146  0.2122  2.1116 -2.9627
   42CHL1  H19C 3077   3.400   5.576   7.142 -0.0210  1.1690 -0.6319
   42CHL1    C1 3078   3.279   5.327   7.065  1.0166 -0.3576 -0.8301
   42CHL1   H1A 3079   3.377   5.301   7.110  1.8182  2.1509 -0.9708
   42CHL1   H1B 3080   3.205   5.251   7.096  0.4564  0.9407  1.2548
   42CHL1    C2 3081   3.288   5.315   6.914 -0.4908 -0.2270 -0.1898
   42CHL1   H2A 3082   3.323   5.215   6.882 -0.3729 -0.3876  0.4330
   42CHL1   H2B 3083   3.369   5.384   6.884  0.5213  0.2557  3.2099
   42CHL1   C20 3084   3.202   5.495   7.828  0.4240  1.3100 -0.1521
   42CHL1   H20 3085   3.212   5.606   7.833 -0.2685  1.3556  0.2440
   42CHL1   C21 3086   3.336   5.425   7.827  0.0978 -0.1286  0.0710
   42CHL1  H21A 3087   3.390   5.448   7.921 -0.5708 -0.9516  0.6642
   42CHL1  H21B 3088   3.405   5.463   7.748 -0.0504 -1.1713 -0.5864
   42CHL1  H21C 3089   3.341   5.316   7.806  1.6629 -0.0500 -0.1322
   42CHL1   C22 3090   3.130   5.448   7.963 -0.3836 -0.3119 -0.4526
   42CHL1  H22A 3091   3.021   5.465   7.944 -0.4994 -1.4164 -0.8476
   42CHL1  H22B 3092   3.136   5.340   7.988 -2.2357  0.1858  2.6993
   42CHL1   C23 3093   3.177   5.529   8.088  0.4333 -0.4168 -0.4322
   42CHL1  H23A 3094   3.287   5.535   8.100  0.5929 -0.4598 -1.7070
   42CHL1  H23B 3095   3.147   5.633   8.064  0.3329 -0.5255 -0.7872
   42CHL1   C24 3096   3.117   5.495   8.223  0.2674 -0.3253  1.0232
   42CHL1  H24A 3097   3.012   5.519   8.194  1.0335 -1.5636 -3.4850
   42CHL1  H24B 3098   3.127   5.391   8.262 -2.7860 -1.1478 -0.0937
   42CHL1   C25 3099   3.156   5.588   8.337 -0.0919  0.0163  0.6234
   42CHL1   H25 3100   3.134   5.691   8.302  0.2519  0.4919  1.7554
   42CHL1   C26 3101   3.066   5.558   8.458 -0.4686  0.7154  0.7858
   42CHL1  H26A 3102   2.966   5.594   8.425  0.9602  2.0950 -2.3648
   42CHL1  H26B 3103   3.052   5.449   8.473 -3.3355  0.9531  0.3363
   42CHL1  H26C 3104   3.105   5.603   8.552  0.7929 -2.0109  1.6798
   42CHL1   C27 3105   3.304   5.591   8.376  0.0279  0.7046  0.2151
   42CHL1  H27A 3106   3.375   5.627   8.298  1.2556  0.6496  1.2730
   42CHL1  H27B 3107   3.329   5.488   8.410 -1.7905  0.3705  0.6231
   42CHL1  H27C 3108   3.311   5.649   8.471 -1.5627 -0.9118  1.3917
   43CHL1    C3 3109   4.067   2.702   6.819 -0.1371  0.3704  0.0115
   43CHL1    H3 3110   3.967   2.663   6.844 -0.9688  1.5484 -1.3019
   43CHL1    O3 3111   4.083   2.691   6.682 -0.2803  0.5562  0.8212
   43CHL1   H3' 3112   4.005   2.730   6.641 -0.7391 -1.2925 -0.2026
   43CHL1    C4 3113   4.085   2.856   6.860  0.7839  0.5221  0.0271
   43CHL1   H4A 3114   4.189   2.880   6.830  1.7174 -3.6373 -0.6588
   43CHL1   H4B 3115   4.012   2.916   6.801 -1.3088 -1.3792  0.5241
   43CHL1    C5 3116   4.054   2.881   7.009 -0.0598 -0.8826  0.0892
   43CHL1    C6 3117   3.961   2.973   7.047  0.2845  0.3990  0.1235
   43CHL1    H6 3118   3.920   3.042   6.972 -1.4611  0.0268  0.7076
   43CHL1    C7 3119   3.940   3.012   7.190  0.3249  0.4621  0.1755
   43CHL1   H7A 3120   3.951   3.122   7.203  0.2419  0.3360  1.4539
   43CHL1   H7B 3121   3.840   2.991   7.232  1.0056 -1.2565  1.0225
   43CHL1    C8 3122   4.037   2.941   7.286  0.6238  0.3198 -0.4045
   43CHL1    H8 3123   4.133   2.997   7.285  2.2221 -2.1451  1.5351
   43CHL1   C14 3124   3.974   2.935   7.425  0.1608  0.1783  0.4082
   43CHL1   H14 3125   3.885   2.868   7.425  0.8779 -0.7848  1.2298
   43CHL1   C15 3126   3.921   3.072   7.489 -0.4745 -0.6306 -0.5162
   43CHL1  H15A 3127   3.984   3.158   7.458 -0.9876 -0.6886 -1.7958
   43CHL1  H15B 3128   3.811   3.082   7.479 -0.8304 -1.7947  1.6913
   43CHL1   C16 3129   3.934   3.051   7.642  0.5674 -0.5752  0.7638
   43CHL1  H16A 3130   4.019   3.114   7.673  0.7152  0.4675 -1.5182
   43CHL1  H16B 3131   3.840   3.074   7.697  0.7220 -1.5618  1.4503
   43CHL1   C17 3132   3.979   2.904   7.664 -0.3403  0.4173 -0.3944
   43CHL1   H17 3133   3.886   2.846   7.648  0.5480 -0.6385 -2.1569
   43CHL1   C13 3134   4.058   2.875   7.530 -0.6493 -0.6307 -0.1355
   43CHL1   C18 3135   4.199   2.947   7.536  0.3112  0.3732  0.0535
   43CHL1  H18A 3136   4.182   3.052   7.569  0.5268  0.3559  0.2176
   43CHL1  H18B 3137   4.270   2.909   7.611  2.6278 -0.2372 -2.2837
   43CHL1  H18C 3138   4.249   2.948   7.437 -0.7777 -0.9008 -0.5438
   43CHL1   C12 3139   4.085   2.726   7.502  0.8816 -0.9662  0.1426
   43CHL1  H12A 3140   4.170   2.684   7.560 -0.2222 -2.3400  0.8332
   43CHL1  H12B 3141   3.994   2.671   7.532 -1.0862  1.8024 -0.3045
   43CHL1   C11 3142   4.134   2.712   7.358 -0.1030  0.1205  0.2528
   43CHL1  H11A 3143   4.242   2.737   7.350  0.2850 -1.8647 -1.5894
   43CHL1  H11B 3144   4.116   2.607   7.326 -2.0874  1.2579 -2.7858
   43CHL1    C9 3145   4.065   2.795   7.247 -0.1244 -0.4858  0.0491
   43CHL1    H9 3146   3.970   2.738   7.236  1.2419 -2.5481 -2.0096
   43CHL1   C10 3147   4.134   2.789   7.103  0.2750 -0.6976 -0.4971
   43CHL1   C19 3148   4.279   2.843   7.114  0.1206 -0.0555  0.4281
   43CHL1  H19A 3149   4.343   2.784   7.184 -0.1912 -0.0734  0.7013
   43CHL1  H19B 3150   4.322   2.828   7.013 -1.2652 -1.6758  0.0428
   43CHL1  H19C 3151   4.291   2.952   7.133 -2.1118  0.2309  0.3927
   43CHL1    C1 3152   4.139   2.641   7.047  0.1829  0.0018 -0.2203
   43CHL1   H1A 3153   4.214   2.580   7.102  0.6826 -0.3475 -1.2578
   43CHL1   H1B 3154   4.039   2.596   7.064  0.0308  0.6140  0.5844
   43CHL1    C2 3155   4.176   2.635   6.900 -0.7319 -0.1015  0.6752
   43CHL1   H2A 3156   4.178   2.526   6.878  1.2349 -0.3859  2.0114
   43CHL1   H2B 3157   4.274   2.681   6.877 -0.4887  0.4476  2.6826
   43CHL1   C20 3158   4.046   2.872   7.800 -0.0547  0.3378 -0.2472
   43CHL1   H20 3159   4.148   2.916   7.797  0.3021 -0.4519  0.1376
   43CHL1   C21 3160   4.071   2.720   7.820 -0.0594  0.4368 -0.0030
   43CHL1  H21A 3161   4.107   2.706   7.925 -2.1942  0.9123  0.8454
   43CHL1  H21B 3162   4.152   2.688   7.751 -1.6331  1.3980 -2.4318
   43CHL1  H21C 3163   3.972   2.676   7.796 -0.1440  0.5914  0.0571
   43CHL1   C22 3164   3.975   2.929   7.922  0.3534 -0.1013 -0.2984
   43CHL1  H22A 3165   3.935   3.031   7.904 -0.9690 -0.4884  0.3142
   43CHL1  H22B 3166   3.886   2.868   7.950  2.2663 -1.3138  3.9703
   43CHL1   C23 3167   4.052   2.947   8.057 -0.0746 -0.3540 -0.5845
   43CHL1  H23A 3168   4.072   2.840   8.080  0.7125 -0.1241 -0.1549
   43CHL1  H23B 3169   4.146   3.004   8.042 -0.4017  0.1540 -0.7297
   43CHL1   C24 3170   3.961   2.994   8.170 -0.8865 -0.5981 -0.0468
   43CHL1  H24A 3171   3.911   3.087   8.135 -1.0478 -0.2711  1.0093
   43CHL1  H24B 3172   3.880   2.922   8.194 -0.2304 -1.1912  0.4285
   43CHL1   C25 3173   4.035   3.019   8.305 -0.8677 -0.5107 -1.1460
   43CHL1   H25 3174   4.136   3.056   8.277 -0.7302  1.2550  1.3808
   43CHL1   C26 3175   3.961   3.119   8.390  0.7275 -0.1405 -0.2751
   43CHL1  H26A 3176   3.860   3.078   8.410  0.0345  2.1003  1.1335
   43CHL1  H26B 3177   4.010   3.152   8.484 -0.6639  0.0473  0.4125
   43CHL1  H26C 3178   3.955   3.211   8.327  0.3995 -0.4270 -0.6639
   43CHL1   C27 3179   4.045   2.891   8.388 -0.0263  0.4345  0.4181
   43CHL1  H27A 3180   4.114   2.826   8.330  1.4281  0.9098  1.5660
   43CHL1  H27B 3181   4.101   2.899   8.483 -0.9430 -1.2398  1.1274
   43CHL1  H27C 3182   3.947   2.841   8.401 -0.9512  1.7381 -1.0461
   44CHL1    C3 3183   5.119   0.592   6.809  0.2228 -0.1474  0.0094
   44CHL1    H3 3184   5.211   0.530   6.800 -0.7193 -1.3697 -1.8970
   44CHL1    O3 3185   5.079   0.612   6.677 -0.0959 -0.0850  0.1090
   44CHL1   H3' 3186   5.065   0.707   6.668 -0.6717 -0.2213 -0.5158
   44CHL1    C4 3187   5.008   0.504   6.870 -0.8560  0.1360 -0.1087
   44CHL1   H4A 3188   4.906   0.539   6.841 -0.5474  0.2453 -1.1026
   44CHL1   H4B 3189   5.009   0.401   6.829 -2.2748  0.6628 -1.5855
   44CHL1    C5 3190   5.018   0.497   7.021  0.1714 -0.1259  0.6233
   44CHL1    C6 3191   5.014   0.381   7.089  0.5639  0.6644 -0.4467
   44CHL1    H6 3192   4.996   0.290   7.030  0.4773  1.4682 -1.7138
   44CHL1    C7 3193   5.002   0.370   7.237  0.2789  0.2158  0.1432
   44CHL1   H7A 3194   4.914   0.307   7.264 -0.1030  0.2777 -0.9229
   44CHL1   H7B 3195   5.097   0.331   7.279 -0.1729 -1.3736 -0.2288
   44CHL1    C8 3196   4.975   0.512   7.309 -0.2735  0.5707  0.1454
   44CHL1    H8 3197   4.870   0.546   7.301 -0.0722  1.0747 -0.4705
   44CHL1   C14 3198   4.998   0.513   7.458 -0.1803 -0.4895 -0.2272
   44CHL1   H14 3199   5.106   0.485   7.465  0.0461  0.2510 -0.6704
   44CHL1   C15 3200   4.928   0.415   7.546  0.2436 -0.1520  0.1003
   44CHL1  H15A 3201   4.822   0.421   7.514 -0.0659 -1.9713  0.6812
   44CHL1  H15B 3202   4.971   0.313   7.532 -1.6257 -0.6739 -2.8001
   44CHL1   C16 3203   4.930   0.469   7.687  0.2019 -0.7111  0.1469
   44CHL1  H16A 3204   4.823   0.476   7.716 -0.2019 -0.7309 -1.2478
   44CHL1  H16B 3205   4.981   0.405   7.761  1.8973  1.3209  0.8219
   44CHL1   C17 3206   5.004   0.603   7.677  1.0097  0.7196  0.0570
   44CHL1   H17 3207   5.108   0.564   7.677  0.5024 -0.6894  0.1867
   44CHL1   C13 3208   4.979   0.648   7.530 -0.1306  0.5500  0.0872
   44CHL1   C18 3209   4.841   0.696   7.517  0.4685 -0.0987 -0.0965
   44CHL1  H18A 3210   4.805   0.717   7.414  0.4149  2.0938  0.3310
   44CHL1  H18B 3211   4.771   0.617   7.552 -1.8512  1.4882 -0.9948
   44CHL1  H18C 3212   4.832   0.790   7.574 -0.2941 -0.4959  0.4506
   44CHL1   C12 3213   5.087   0.740   7.473  0.0810  0.3427 -0.6192
   44CHL1  H12A 3214   5.084   0.837   7.527 -0.6977  0.7211 -1.3241
   44CHL1  H12B 3215   5.185   0.693   7.495 -1.1075 -1.9061  0.2296
   44CHL1   C11 3216   5.071   0.757   7.323  0.4035 -0.0904  0.5628
   44CHL1  H11A 3217   4.972   0.806   7.307  0.0332 -1.1284 -0.5108
   44CHL1  H11B 3218   5.145   0.827   7.281  0.8373 -1.0416 -0.2974
   44CHL1    C9 3219   5.071   0.618   7.244 -0.6629  0.1952  0.3862
   44CHL1    H9 3220   5.171   0.571   7.254 -0.2573  0.9155 -0.1668
   44CHL1   C10 3221   5.043   0.634   7.094  0.0125 -0.1325  0.5690
   44CHL1   C19 3222   4.919   0.718   7.070  0.2041 -0.3482  0.4222
   44CHL1  H19A 3223   4.883   0.716   6.964 -1.6227  0.7429  0.9709
   44CHL1  H19B 3224   4.825   0.697   7.125 -1.7919 -1.3526 -3.0284
   44CHL1  H19C 3225   4.943   0.826   7.075 -1.6909  0.0788  1.1463
   44CHL1    C1 3226   5.162   0.706   7.024  0.0899 -0.4584  0.0321
   44CHL1   H1A 3227   5.174   0.805   7.073 -2.1312 -0.5233  0.8082
   44CHL1   H1B 3228   5.259   0.654   7.040 -0.2293 -1.2977 -0.7233
   44CHL1    C2 3229   5.138   0.726   6.877 -0.1680  0.0309  0.6793
   44CHL1   H2A 3230   5.222   0.783   6.832  0.3334  0.3575  1.9694
   44CHL1   H2B 3231   5.044   0.779   6.850  0.1703 -0.7983 -2.4719
   44CHL1   C20 3232   4.976   0.693   7.793  0.1363 -0.0548  0.4089
   44CHL1   H20 3233   4.867   0.710   7.804  0.1927  1.1406 -0.6824
   44CHL1   C21 3234   5.044   0.835   7.778 -0.6466  0.0606  0.3329
   44CHL1  H21A 3235   4.996   0.902   7.704 -0.9652  0.2286  0.6885
   44CHL1  H21B 3236   5.145   0.813   7.738  0.3133 -1.2923  3.2285
   44CHL1  H21C 3237   5.053   0.889   7.875 -0.4640  2.2257 -0.8386
   44CHL1   C22 3238   5.014   0.622   7.932  0.0945  0.5932  0.4058
   44CHL1  H22A 3239   4.972   0.520   7.946  2.0694 -0.4749 -0.9837
   44CHL1  H22B 3240   5.123   0.601   7.930  0.4798  2.3427  1.2378
   44CHL1   C23 3241   4.993   0.696   8.061 -0.4596  0.2276 -0.0569
   44CHL1  H23A 3242   5.056   0.788   8.061  1.6544 -1.1475 -0.3414
   44CHL1  H23B 3243   4.889   0.734   8.070 -0.3404  0.2633  1.2692
   44CHL1   C24 3244   5.028   0.606   8.182 -0.3663  0.2218  0.3875
   44CHL1  H24A 3245   4.953   0.531   8.215  2.4326 -2.0986  2.0006
   44CHL1  H24B 3246   5.108   0.539   8.144 -1.2837  0.5150 -2.2960
   44CHL1   C25 3247   5.059   0.684   8.311 -0.4850 -0.1506  0.1074
   44CHL1   H25 3248   4.986   0.767   8.303 -0.7507 -0.4046 -0.1527
   44CHL1   C26 3249   5.032   0.603   8.438  0.0803 -0.2547  0.3215
   44CHL1  H26A 3250   5.057   0.663   8.528 -2.0228 -1.2706  1.6566
   44CHL1  H26B 3251   4.932   0.554   8.444  0.7555 -1.8750 -0.9668
   44CHL1  H26C 3252   5.109   0.524   8.443 -0.5099 -0.8347  0.2814
   44CHL1   C27 3253   5.207   0.732   8.325 -0.3345  0.3265  0.4003
   44CHL1  H27A 3254   5.241   0.750   8.429  0.4737 -1.8290  0.5664
   44CHL1  H27B 3255   5.267   0.645   8.289 -1.5008 -1.4485  2.4961
   44CHL1  H27C 3256   5.216   0.815   8.252 -0.5221  0.1901  0.2194
   45CHL1    C3 3257   3.983   0.069   6.681  0.8375  0.1135 -0.2046
   45CHL1    H3 3258   3.952   0.174   6.700  0.6838 -0.3429  2.5344
   45CHL1    O3 3259   4.019   0.047   6.549  0.6751  0.0439  0.1383
   45CHL1   H3' 3260   4.085   0.114   6.530  0.8731 -0.1239  0.2330
   45CHL1    C4 3261   4.107   0.026   6.760 -0.5161 -0.4373 -0.5714
   45CHL1   H4A 3262   4.137  -0.074   6.722  0.3618  0.1948 -1.6057
   45CHL1   H4B 3263   4.189   0.094   6.730  1.1707 -1.2851  1.8360
   45CHL1    C5 3264   4.084   0.029   6.914  0.4319  0.8606 -0.3330
   45CHL1    C6 3265   4.146   0.112   6.997 -0.8647 -0.2266  0.1506
   45CHL1    H6 3266   4.233   0.171   6.966  0.7313 -1.9622  1.1325
   45CHL1    C7 3267   4.122   0.112   7.144  0.4992 -0.9810  0.1741
   45CHL1   H7A 3268   4.218   0.126   7.199 -0.3736  0.5771  1.4023
   45CHL1   H7B 3269   4.069   0.206   7.170  0.8669 -0.8674  0.5370
   45CHL1    C8 3270   4.037  -0.003   7.201  0.6884  0.9343 -0.0584
   45CHL1    H8 3271   4.104  -0.092   7.199  0.1378  0.5153 -0.2361
   45CHL1   C14 3272   3.985   0.022   7.340  0.1265 -0.0514  0.5747
   45CHL1   H14 3273   3.921   0.111   7.321  0.3083  0.2488  1.3174
   45CHL1   C15 3274   4.077   0.075   7.451 -0.2964  0.1898 -0.2026
   45CHL1  H15A 3275   4.165   0.009   7.462  1.1293  2.0993  0.3426
   45CHL1  H15B 3276   4.099   0.180   7.420 -0.4665  0.4391  0.4988
   45CHL1   C16 3277   3.985   0.073   7.572  0.2975 -0.1505 -0.3393
   45CHL1  H16A 3278   4.034   0.020   7.657  1.8504  3.2972  1.1094
   45CHL1  H16B 3279   3.953   0.172   7.609 -0.7865 -0.3706 -0.6382
   45CHL1   C17 3280   3.857  -0.015   7.538 -0.9674 -0.4435  0.1284
   45CHL1   H17 3281   3.786   0.065   7.508 -1.3543 -1.0945 -0.7386
   45CHL1   C13 3282   3.885  -0.081   7.404 -0.3747 -0.0246  0.0643
   45CHL1   C18 3283   3.953  -0.217   7.427  0.2983  0.4814 -0.0071
   45CHL1  H18A 3284   3.992  -0.268   7.336 -0.2976 -1.2980  0.6867
   45CHL1  H18B 3285   4.045  -0.210   7.488  1.2576 -0.5051 -1.2619
   45CHL1  H18C 3286   3.870  -0.283   7.461 -0.1764 -0.2027 -2.3218
   45CHL1   C12 3287   3.775  -0.096   7.305 -0.0898 -0.5892  0.2410
   45CHL1  H12A 3288   3.714  -0.182   7.341 -1.9516  0.8137  0.5900
   45CHL1  H12B 3289   3.722   0.001   7.310  0.4493 -0.3210  0.9255
   45CHL1   C11 3290   3.818  -0.135   7.164 -0.5820  0.2814 -0.5034
   45CHL1  H11A 3291   3.871  -0.233   7.164 -2.3189 -0.6904  0.2992
   45CHL1  H11B 3292   3.737  -0.157   7.091  2.0515 -1.4220 -3.1551
   45CHL1    C9 3293   3.921  -0.026   7.104  0.1208 -0.2939 -1.2988
   45CHL1    H9 3294   3.863   0.069   7.110  1.5292  0.5609 -0.6694
   45CHL1   C10 3295   3.965  -0.059   6.960  0.5818 -0.2213  0.2789
   45CHL1   C19 3296   4.000  -0.210   6.937  0.3335 -0.0601  0.4091
   45CHL1  H19A 3297   4.024  -0.243   6.834  0.5941 -0.0740  0.4730
   45CHL1  H19B 3298   4.077  -0.245   7.009  1.3735  2.4090  0.5847
   45CHL1  H19C 3299   3.907  -0.269   6.954  0.5143 -0.5772 -0.3641
   45CHL1    C1 3300   3.842  -0.020   6.862  0.4194  0.2361  0.5390
   45CHL1   H1A 3301   3.764  -0.093   6.894  0.9230 -1.2562 -1.4553
   45CHL1   H1B 3302   3.804   0.082   6.883 -3.3404 -0.3866 -2.0790
   45CHL1    C2 3303   3.868  -0.029   6.712 -0.6600 -0.4607  0.6593
   45CHL1   H2A 3304   3.778   0.003   6.655  0.6624 -0.9293 -1.8339
   45CHL1   H2B 3305   3.906  -0.127   6.675  1.0293  0.0730  0.9051
   45CHL1   C20 3306   3.800  -0.094   7.657  0.3368 -0.2450 -0.4019
   45CHL1   H20 3307   3.873  -0.174   7.679 -0.0913 -1.3006 -2.5545
   45CHL1   C21 3308   3.671  -0.161   7.628  0.6223 -0.4788  0.8339
   45CHL1  H21A 3309   3.632  -0.214   7.718  0.9340  0.5624  1.6064
   45CHL1  H21B 3310   3.684  -0.238   7.549 -1.2382 -0.3132  0.3114
   45CHL1  H21C 3311   3.590  -0.089   7.601 -0.7117 -3.1019 -3.0017
   45CHL1   C22 3312   3.769  -0.003   7.782  0.3872  0.9357  0.2752
   45CHL1  H22A 3313   3.849   0.072   7.800 -0.0595  1.8912 -1.5113
   45CHL1  H22B 3314   3.683   0.063   7.757 -0.2805  0.1498  0.4282
   45CHL1   C23 3315   3.732  -0.069   7.917 -0.3009 -0.4380  0.2416
   45CHL1  H23A 3316   3.642  -0.134   7.908 -1.0289  0.6570 -0.7519
   45CHL1  H23B 3317   3.808  -0.132   7.967  0.6806  1.4639  1.2595
   45CHL1   C24 3318   3.724   0.044   8.025 -0.6798  0.9584  0.0158
   45CHL1  H24A 3319   3.827   0.085   8.023  0.5866 -1.9637 -1.2104
   45CHL1  H24B 3320   3.669   0.132   7.986 -2.3014  0.9061  2.0415
   45CHL1   C25 3321   3.677   0.014   8.167  0.0831  0.7009  0.2439
   45CHL1   H25 3322   3.759  -0.052   8.202  1.6246  1.6250 -1.4684
   45CHL1   C26 3323   3.687   0.141   8.246 -0.5124 -0.2988 -0.0096
   45CHL1  H26A 3324   3.794   0.171   8.245  0.0866 -2.2103  1.4152
   45CHL1  H26B 3325   3.634   0.228   8.201  1.3071  2.0761  2.1593
   45CHL1  H26C 3326   3.649   0.125   8.349  2.1086 -2.0976  0.7764
   45CHL1   C27 3327   3.537  -0.058   8.172 -0.1670 -0.2366  0.0875
   45CHL1  H27A 3328   3.492  -0.058   8.274  0.2830  1.9341  0.3374
   45CHL1  H27B 3329   3.470   0.001   8.105  1.1387 -1.3299 -2.2950
   45CHL1  H27C 3330   3.538  -0.160   8.130 -0.3630  0.8627 -2.8211
   46CHL1    C3 3331   4.911   6.765   7.025 -1.0433 -0.0429  0.4938
   46CHL1    H3 3332   4.926   6.875   7.029  3.1606 -0.4808  0.8104
   46CHL1    O3 3333   4.887   6.713   6.893 -0.0811  0.6247 -0.3807
   46CHL1   H3' 3334   4.875   6.621   6.918  0.2052  0.2325 -1.6314
   46CHL1    C4 3335   5.023   6.693   7.097 -0.2257  0.3413 -0.2011
   46CHL1   H4A 3336   5.021   6.583   7.091  0.9033  0.3682 -2.2122
   46CHL1   H4B 3337   5.112   6.717   7.034  0.4614 -1.6183 -0.0182
   46CHL1    C5 3338   5.038   6.735   7.246 -0.7014 -0.2344  0.2829
   46CHL1    C6 3339   5.156   6.778   7.294 -0.5501  0.2023 -0.3118
   46CHL1    H6 3340   5.249   6.778   7.235 -0.5218 -0.4523 -0.2710
   46CHL1    C7 3341   5.185   6.806   7.439 -0.7347  0.2656 -0.1476
   46CHL1   H7A 3342   5.283   6.767   7.475 -1.2458 -0.8008  0.1381
   46CHL1   H7B 3343   5.191   6.917   7.443  0.3179  0.2293 -0.5645
   46CHL1    C8 3344   5.067   6.763   7.538  0.1742  0.0328 -0.1483
   46CHL1    H8 3345   5.072   6.653   7.557  2.4874  0.0938 -0.1522
   46CHL1   C14 3346   5.094   6.838   7.670  0.3124 -0.1652  0.6125
   46CHL1   H14 3347   5.094   6.949   7.662  3.1593 -0.0685  0.9237
   46CHL1   C15 3348   5.224   6.814   7.742  0.3161 -0.1534 -0.4658
   46CHL1  H15A 3349   5.249   6.705   7.741 -0.5188 -0.3548 -0.4278
   46CHL1  H15B 3350   5.300   6.874   7.688 -0.7128  1.8567  0.2325
   46CHL1   C16 3351   5.188   6.847   7.889  0.6968  0.4419 -0.7778
   46CHL1  H16A 3352   5.213   6.760   7.954 -0.6833  0.8936  0.4209
   46CHL1  H16B 3353   5.249   6.929   7.934  1.4161 -0.0794 -0.7896
   46CHL1   C17 3354   5.035   6.886   7.896  0.4718  0.5903  0.1040
   46CHL1   H17 3355   5.030   6.995   7.877  0.2527  0.3586 -1.3335
   46CHL1   C13 3356   4.978   6.815   7.773  0.0494 -0.2873  0.6262
   46CHL1   C18 3357   4.958   6.665   7.801 -0.1810 -0.1239 -0.4763
   46CHL1  H18A 3358   4.924   6.613   7.709  0.6415  1.2021 -1.5748
   46CHL1  H18B 3359   5.047   6.613   7.842 -0.1925 -0.8115 -1.2864
   46CHL1  H18C 3360   4.873   6.656   7.872 -0.6450 -1.8735 -1.2099
   46CHL1   C12 3361   4.846   6.869   7.716 -0.5819  0.4992 -0.1987
   46CHL1  H12A 3362   4.759   6.841   7.780 -0.5534  0.8374 -0.0079
   46CHL1  H12B 3363   4.854   6.980   7.714  2.5781  0.3416 -0.8444
   46CHL1   C11 3364   4.818   6.812   7.572 -0.3259  0.0757  0.5341
   46CHL1  H11A 3365   4.772   6.711   7.582 -1.7508  0.7499  1.1299
   46CHL1  H11B 3366   4.737   6.878   7.534 -0.1776  0.8872  1.5769
   46CHL1    C9 3367   4.938   6.812   7.470 -0.8527 -0.1630  0.3734
   46CHL1    H9 3368   4.977   6.912   7.443 -0.3079 -0.2793  0.7123
   46CHL1   C10 3369   4.907   6.726   7.328 -0.2944  0.0833  0.0911
   46CHL1   C19 3370   4.873   6.577   7.358  0.2590 -0.1040  0.2493
   46CHL1  H19A 3371   4.889   6.508   7.272 -0.8801  0.4669 -0.4488
   46CHL1  H19B 3372   4.941   6.537   7.437  0.2311  1.2182  0.9666
   46CHL1  H19C 3373   4.768   6.562   7.391  0.3442 -0.7153  0.2627
   46CHL1    C1 3374   4.794   6.796   7.252 -0.0881  0.0407  0.7640
   46CHL1   H1A 3375   4.703   6.793   7.316 -0.0426 -1.7466  0.8101
   46CHL1   H1B 3376   4.828   6.902   7.245 -1.0217  0.4071  1.6020
   46CHL1    C2 3377   4.780   6.748   7.108  0.3722 -0.0372 -0.0259
   46CHL1   H2A 3378   4.699   6.799   7.053 -0.6747 -1.9485 -0.3267
   46CHL1   H2B 3379   4.746   6.643   7.098  2.0146 -0.4632 -1.7735
   46CHL1   C20 3380   4.985   6.856   8.038  0.0525  0.1302  0.4477
   46CHL1   H20 3381   4.964   6.747   8.043 -1.5485  0.3496 -0.7086
   46CHL1   C21 3382   4.852   6.931   8.048 -0.0713 -1.2186 -0.3438
   46CHL1  H21A 3383   4.781   6.875   7.983  0.7331 -2.3116 -0.3192
   46CHL1  H21B 3384   4.860   7.040   8.029  0.6937 -0.9010  1.5595
   46CHL1  H21C 3385   4.801   6.925   8.147  1.0764  1.1273  0.4634
   46CHL1   C22 3386   5.079   6.894   8.157 -0.5151 -0.3883 -0.3111
   46CHL1  H22A 3387   5.185   6.861   8.152  0.0541  1.4632 -1.4399
   46CHL1  H22B 3388   5.071   7.005   8.155  0.1797 -0.3000  1.0545
   46CHL1   C23 3389   5.030   6.851   8.299 -0.1508 -0.2183 -0.6258
   46CHL1  H23A 3390   4.922   6.874   8.307  0.0217  0.1232  1.1650
   46CHL1  H23B 3391   5.037   6.741   8.311 -0.3577  0.0064  2.3335
   46CHL1   C24 3392   5.115   6.920   8.399  0.5503  0.7557  0.5468
   46CHL1  H24A 3393   5.223   6.898   8.383  0.2515  0.0025 -0.6630
   46CHL1  H24B 3394   5.103   7.029   8.381 -0.5588  0.8231  1.6015
   46CHL1   C25 3395   5.077   6.882   8.543 -0.0201  0.4327  0.0052
   46CHL1   H25 3396   4.966   6.888   8.541  0.0252  2.3454  0.6531
   46CHL1   C26 3397   5.126   6.742   8.573 -0.2176  0.1847  0.3101
   46CHL1  H26A 3398   5.081   6.670   8.502 -3.3641  2.1240  0.0959
   46CHL1  H26B 3399   5.236   6.749   8.562 -0.1851  1.5570  1.1978
   46CHL1  H26C 3400   5.101   6.711   8.676  0.0323  1.0458  0.6453
   46CHL1   C27 3401   5.118   6.976   8.650  0.2906 -0.7882  0.4471
   46CHL1  H27A 3402   5.226   6.991   8.672  0.1094 -0.9229  1.4762
   46CHL1  H27B 3403   5.074   7.076   8.629 -2.7328 -1.8193  1.3678
   46CHL1  H27C 3404   5.062   6.948   8.742 -0.1741 -1.6027 -0.0715
   47CHL1    C3 3405   4.511   0.383   6.747  0.3321 -1.0968  0.1082
   47CHL1    H3 3406   4.417   0.324   6.741  0.9090 -2.1172  1.0384
   47CHL1    O3 3407   4.543   0.422   6.615  0.0708  0.0283  0.0018
   47CHL1   H3' 3408   4.618   0.481   6.614 -1.5112  2.1690 -1.3361
   47CHL1    C4 3409   4.477   0.510   6.828  0.4432 -0.5954 -0.1630
   47CHL1   H4A 3410   4.569   0.570   6.837 -1.0104  2.2301 -2.4991
   47CHL1   H4B 3411   4.399   0.569   6.774  0.2206  1.0608  1.8282
   47CHL1    C5 3412   4.429   0.482   6.970  0.1280 -0.3142 -0.0444
   47CHL1    C6 3413   4.309   0.524   7.012  0.1447 -0.0436 -1.2216
   47CHL1    H6 3414   4.254   0.591   6.944 -0.5979 -1.1814 -1.7682
   47CHL1    C7 3415   4.253   0.485   7.148  0.3876 -0.6036 -0.1751
   47CHL1   H7A 3416   4.199   0.571   7.195  0.9421  0.2839 -1.1243
   47CHL1   H7B 3417   4.179   0.404   7.130 -1.4874  0.7665  0.9911
   47CHL1    C8 3418   4.365   0.448   7.248  0.3950  0.5476  0.0108
   47CHL1    H8 3419   4.433   0.536   7.256 -0.3826  1.0652  1.3878
   47CHL1   C14 3420   4.312   0.409   7.388 -0.0005 -0.1012 -0.1454
   47CHL1   H14 3421   4.233   0.334   7.369 -1.2407  0.9306  0.7832
   47CHL1   C15 3422   4.244   0.529   7.465  0.0160 -0.0609  0.5120
   47CHL1  H15A 3423   4.290   0.627   7.438  1.6701 -0.7564  0.6811
   47CHL1  H15B 3424   4.137   0.527   7.434  0.0706 -1.5789  0.3714
   47CHL1   C16 3425   4.278   0.499   7.613  0.1794 -0.2410  0.5421
   47CHL1  H16A 3426   4.345   0.576   7.656 -1.1694  0.6025  1.2080
   47CHL1  H16B 3427   4.185   0.509   7.673  0.7295  2.2413  1.0888
   47CHL1   C17 3428   4.340   0.357   7.613  0.0717 -0.7217  0.0081
   47CHL1   H17 3429   4.257   0.284   7.603  0.1419 -0.8193  0.1374
   47CHL1   C13 3430   4.416   0.353   7.480  0.1509 -0.0274 -0.0533
   47CHL1   C18 3431   4.534   0.453   7.486 -0.8168 -1.0454 -0.0377
   47CHL1  H18A 3432   4.592   0.449   7.391 -1.2329 -1.0891 -0.2927
   47CHL1  H18B 3433   4.507   0.560   7.499  0.5423 -0.6864 -0.0192
   47CHL1  H18C 3434   4.603   0.420   7.567  1.0303  1.9935 -0.1918
   47CHL1   C12 3435   4.464   0.219   7.420  0.0562  0.3603 -0.0932
   47CHL1  H12A 3436   4.541   0.176   7.487  0.3458 -0.1115 -0.7265
   47CHL1  H12B 3437   4.374   0.154   7.419 -1.3364  2.2071 -0.0393
   47CHL1   C11 3438   4.527   0.248   7.276  0.4184 -0.4771 -0.5509
   47CHL1  H11A 3439   4.629   0.290   7.287 -0.3009  1.7235 -1.6907
   47CHL1  H11B 3440   4.543   0.145   7.236 -0.3129 -1.2000  0.9200
   47CHL1    C9 3441   4.443   0.339   7.182 -0.2898  0.0649 -0.0151
   47CHL1    H9 3442   4.367   0.264   7.149  1.0953 -0.8509 -1.2103
   47CHL1   C10 3443   4.512   0.380   7.045 -0.3285 -0.1096  0.0451
   47CHL1   C19 3444   4.643   0.450   7.079 -0.1411 -0.1258  0.2308
   47CHL1  H19A 3445   4.624   0.532   7.151  0.8778 -0.6654  1.1328
   47CHL1  H19B 3446   4.720   0.383   7.121 -0.6931 -0.4457  0.7467
   47CHL1  H19C 3447   4.684   0.495   6.985 -2.4117  1.0213 -0.3019
   47CHL1    C1 3448   4.554   0.255   6.963  0.2137  0.1202  0.0334
   47CHL1   H1A 3449   4.630   0.208   7.029 -0.5312 -2.1638 -0.6357
   47CHL1   H1B 3450   4.477   0.181   6.933 -0.6085  0.6483  0.7982
   47CHL1    C2 3451   4.612   0.291   6.824 -0.3150 -0.6606  0.3350
   47CHL1   H2A 3452   4.617   0.197   6.764  1.0377 -0.0135 -0.6112
   47CHL1   H2B 3453   4.709   0.345   6.827  0.3554 -1.8571  1.5352
   47CHL1   C20 3454   4.420   0.330   7.743  0.2322 -0.6323 -0.3793
   47CHL1   H20 3455   4.494   0.412   7.756 -1.3782  0.4782  3.0556
   47CHL1   C21 3456   4.505   0.205   7.740 -0.0341  0.9799 -0.4066
   47CHL1  H21A 3457   4.525   0.165   7.842 -2.3367  0.4733 -0.0981
   47CHL1  H21B 3458   4.605   0.220   7.694  0.5877 -0.9960  0.1949
   47CHL1  H21C 3459   4.452   0.121   7.689  1.0418  0.3935 -0.5893
   47CHL1   C22 3460   4.324   0.323   7.872  0.4486  0.3259 -0.3431
   47CHL1  H22A 3461   4.386   0.275   7.950  0.1658 -0.5666 -0.6606
   47CHL1  H22B 3462   4.315   0.423   7.921  0.3899 -0.6251  1.6537
   47CHL1   C23 3463   4.192   0.250   7.848  0.5538  0.0298  0.1854
   47CHL1  H23A 3464   4.117   0.313   7.796  0.7329 -0.5835 -0.8410
   47CHL1  H23B 3465   4.218   0.161   7.786  1.3320  0.0445  0.4745
   47CHL1   C24 3466   4.131   0.206   7.983  0.3300  0.3888 -0.0660
   47CHL1  H24A 3467   4.148   0.274   8.069  2.7229  1.6407 -1.4203
   47CHL1  H24B 3468   4.020   0.199   7.974  0.4767 -0.7916 -1.3256
   47CHL1   C25 3469   4.190   0.073   8.027  0.0028 -0.5395  0.8009
   47CHL1   H25 3470   4.301   0.077   8.018  0.2268  0.1604  3.1074
   47CHL1   C26 3471   4.159   0.039   8.173  0.1330  0.3737 -0.2366
   47CHL1  H26A 3472   4.054   0.056   8.208 -0.0231 -0.5673 -0.2316
   47CHL1  H26B 3473   4.180  -0.067   8.198  1.6779  0.4095 -1.2870
   47CHL1  H26C 3474   4.211   0.103   8.248 -1.6689  1.7465 -0.0693
   47CHL1   C27 3475   4.148  -0.053   7.945  0.8725  0.1103 -0.4967
   47CHL1  H27A 3476   4.041  -0.075   7.966  1.1897 -0.7619  0.2590
   47CHL1  H27B 3477   4.164  -0.046   7.835  2.7090 -0.8041 -0.3252
   47CHL1  H27C 3478   4.207  -0.141   7.977  1.2066 -0.2330 -1.9742
   48CHL1    C3 3479   1.504   2.933   6.516  0.4572 -0.2258 -0.7594
   48CHL1    H3 3480   1.491   2.824   6.532 -0.0846  0.0255  0.6602
   48CHL1    O3 3481   1.533   2.968   6.382 -0.0327  0.4903 -0.1434
   48CHL1   H3' 3482   1.529   2.883   6.339 -0.0422 -0.5649  1.8129
   48CHL1    C4 3483   1.367   3.002   6.547 -0.0179 -0.2446 -0.0367
   48CHL1   H4A 3484   1.370   3.106   6.510  2.5362 -0.0307  0.5339
   48CHL1   H4B 3485   1.288   2.951   6.489 -0.2852 -0.1895  0.2741
   48CHL1    C5 3486   1.331   2.999   6.694  0.5317  0.2883  0.4131
   48CHL1    C6 3487   1.210   2.955   6.738  0.4084  0.3569 -0.1703
   48CHL1    H6 3488   1.134   2.920   6.665  0.0874 -0.2824  0.4599
   48CHL1    C7 3489   1.167   2.965   6.882  0.1488  0.3166 -0.1552
   48CHL1   H7A 3490   1.070   3.019   6.893  0.2179  0.3076  0.5529
   48CHL1   H7B 3491   1.150   2.863   6.923 -0.0133  0.6750  0.6841
   48CHL1    C8 3492   1.262   3.046   6.976  0.0250  0.2020  0.0663
   48CHL1    H8 3493   1.253   3.156   6.964  2.0818  0.2670 -1.2712
   48CHL1   C14 3494   1.233   3.006   7.127  0.2664 -0.5625 -0.1235
   48CHL1   H14 3495   1.262   2.898   7.128  1.4780 -0.2652 -1.0609
   48CHL1   C15 3496   1.094   3.017   7.184  0.3388  0.9468 -0.2129
   48CHL1  H15A 3497   1.055   3.115   7.149  0.3269  0.6789 -0.9483
   48CHL1  H15B 3498   1.025   2.935   7.156  2.5486 -1.1612  0.2028
   48CHL1   C16 3499   1.120   3.017   7.338  0.5197 -0.0138  0.6508
   48CHL1  H16A 3500   1.069   3.109   7.373  0.6370  0.1083  0.4999
   48CHL1  H16B 3501   1.071   2.933   7.393  0.0685  0.1401  0.4829
   48CHL1   C17 3502   1.266   3.030   7.361 -0.1036 -0.3385  1.0332
   48CHL1   H17 3503   1.300   2.925   7.372  0.0591 -0.3189  0.7141
   48CHL1   C13 3504   1.327   3.079   7.224  0.4986 -0.1381  0.1527
   48CHL1   C18 3505   1.317   3.234   7.211 -0.1510 -0.1680  1.0874
   48CHL1  H18A 3506   1.385   3.289   7.279  2.0487  1.2165 -2.0111
   48CHL1  H18B 3507   1.347   3.279   7.114 -0.5448  0.1379  1.1018
   48CHL1  H18C 3508   1.221   3.280   7.243  0.5806  2.3058 -0.0293
   48CHL1   C12 3509   1.470   3.040   7.194  0.2136 -0.3684 -0.1690
   48CHL1  H12A 3510   1.542   3.099   7.255 -0.2344 -1.1887  1.2090
   48CHL1  H12B 3511   1.490   2.932   7.209  1.9631  0.0384  0.6989
   48CHL1   C11 3512   1.505   3.072   7.041  0.3071 -0.0459  0.1022
   48CHL1  H11A 3513   1.510   3.183   7.044 -0.5789 -0.0221  2.1650
   48CHL1  H11B 3514   1.608   3.032   7.030  0.1825 -0.6488  1.0022
   48CHL1    C9 3515   1.406   3.021   6.937  0.5789  0.2918 -0.1263
   48CHL1    H9 3516   1.424   2.911   6.938 -0.7760  0.0389  1.7605
   48CHL1   C10 3517   1.447   3.049   6.796  0.2045 -0.3333 -0.3406
   48CHL1   C19 3518   1.462   3.202   6.783  1.0998  0.4193  0.4992
   48CHL1  H19A 3519   1.563   3.230   6.820  1.5270 -0.5653  0.1178
   48CHL1  H19B 3520   1.465   3.230   6.675  1.5194 -0.3281  0.3090
   48CHL1  H19C 3521   1.381   3.249   6.842  0.2062 -0.9626  0.4173
   48CHL1    C1 3522   1.579   2.975   6.759  0.1152  0.4376  0.0226
   48CHL1   H1A 3523   1.673   3.016   6.801  0.8038 -0.1985 -0.8554
   48CHL1   H1B 3524   1.572   2.869   6.793  0.9617 -0.4894 -2.4760
   48CHL1    C2 3525   1.613   2.984   6.609 -0.1482 -0.2207 -0.6411
   48CHL1   H2A 3526   1.705   2.926   6.590  0.5026  0.7100 -0.4024
   48CHL1   H2B 3527   1.636   3.090   6.583 -0.5001  0.0846  0.2501
   48CHL1   C20 3528   1.295   3.118   7.488  0.6231  0.1841  0.0437
   48CHL1   H20 3529   1.259   3.222   7.478 -1.5262 -0.3130  1.8366
   48CHL1   C21 3530   1.450   3.113   7.528  0.0082 -0.2639  0.1906
   48CHL1  H21A 3531   1.483   3.013   7.562  0.1464  0.2452  1.5895
   48CHL1  H21B 3532   1.469   3.178   7.616 -1.1819 -0.5795  0.6964
   48CHL1  H21C 3533   1.520   3.149   7.448 -0.2580 -0.6934 -0.2402
   48CHL1   C22 3534   1.218   3.060   7.606 -0.9480  0.4262 -0.7286
   48CHL1  H22A 3535   1.107   3.060   7.595 -0.8929  0.3819 -1.3274
   48CHL1  H22B 3536   1.234   2.951   7.619 -0.8639  0.6385  1.2981
   48CHL1   C23 3537   1.253   3.134   7.741 -0.6350 -0.1780  0.4527
   48CHL1  H23A 3538   1.356   3.107   7.772  0.7140  1.7791 -1.8940
   48CHL1  H23B 3539   1.243   3.243   7.721 -0.4824 -0.0526  1.0501
   48CHL1   C24 3540   1.152   3.105   7.852  0.1982  0.1612 -0.2571
   48CHL1  H24A 3541   1.050   3.138   7.822 -1.4844 -2.9083  1.5505
   48CHL1  H24B 3542   1.155   2.995   7.863  0.9368  0.3432  1.7721
   48CHL1   C25 3543   1.176   3.178   7.984 -0.7843  0.4874 -0.5459
   48CHL1   H25 3544   1.189   3.286   7.963 -3.5578  1.7133  2.9320
   48CHL1   C26 3545   1.064   3.157   8.087 -0.5569 -0.0362  0.3698
   48CHL1  H26A 3546   1.062   3.049   8.112  0.3769 -0.4719 -1.3125
   48CHL1  H26B 3547   1.093   3.206   8.183 -1.5546  1.6175 -0.1288
   48CHL1  H26C 3548   0.969   3.204   8.055  0.1986  1.3510  0.0751
   48CHL1   C27 3549   1.308   3.124   8.043  0.3785  0.2325 -0.4268
   48CHL1  H27A 3550   1.311   3.014   8.027  0.9991  0.2128 -0.2072
   48CHL1  H27B 3551   1.393   3.170   7.989 -1.1734  0.5074 -2.7735
   48CHL1  H27C 3552   1.306   3.156   8.150 -4.5078  1.8726 -0.7758
   49CHL1    C3 3553   5.479   2.757   6.571 -0.2552 -0.0528 -0.7240
   49CHL1    H3 3554   5.372   2.731   6.586 -0.2453 -2.0395 -3.2754
   49CHL1    O3 3555   5.500   2.760   6.432  0.3269 -0.2564  0.3692
   49CHL1   H3' 3556   5.584   2.716   6.415  0.3087 -1.7163  3.3551
   49CHL1    C4 3557   5.516   2.892   6.637 -0.1439  0.0997  0.6657
   49CHL1   H4A 3558   5.612   2.913   6.586 -1.7444  0.6891 -2.3171
   49CHL1   H4B 3559   5.444   2.968   6.599  0.7215  1.7963  2.2322
   49CHL1    C5 3560   5.523   2.890   6.783 -0.0359 -0.2199 -0.1475
   49CHL1    C6 3561   5.458   2.981   6.853  0.4333  0.3522 -0.2796
   49CHL1    H6 3562   5.403   3.061   6.801  1.0174  0.1921 -1.1725
   49CHL1    C7 3563   5.481   2.996   7.002 -0.3014  0.1965 -0.4696
   49CHL1   H7A 3564   5.501   3.106   7.009 -0.1554  0.2446 -1.5569
   49CHL1   H7B 3565   5.391   2.955   7.053  0.9975 -1.6230  0.4843
   49CHL1    C8 3566   5.597   2.913   7.064  0.3768 -0.2639  0.8285
   49CHL1    H8 3567   5.690   2.967   7.035 -1.0623  2.5507  1.0478
   49CHL1   C14 3568   5.593   2.902   7.221  0.0730 -0.7595  0.4555
   49CHL1   H14 3569   5.493   2.857   7.239 -0.9834  0.6152 -1.5676
   49CHL1   C15 3570   5.587   3.035   7.308 -0.1726 -0.4342  0.4853
   49CHL1  H15A 3571   5.670   3.107   7.292 -0.8299 -0.1598 -2.4072
   49CHL1  H15B 3572   5.488   3.086   7.303  0.1490  0.3637  1.7134
   49CHL1   C16 3573   5.615   2.985   7.453  0.4104 -0.4348  0.3829
   49CHL1  H16A 3574   5.691   3.049   7.502  0.3499  1.3139 -1.6711
   49CHL1  H16B 3575   5.511   2.990   7.494 -0.2485  0.3799 -1.2802
   49CHL1   C17 3576   5.662   2.826   7.438 -0.6912 -0.9875  0.3727
   49CHL1   H17 3577   5.573   2.760   7.445  0.5271 -2.8482 -0.6872
   49CHL1   C13 3578   5.695   2.816   7.289  0.3560 -0.0304 -0.2101
   49CHL1   C18 3579   5.832   2.870   7.263 -0.2705 -0.6625 -0.2865
   49CHL1  H18A 3580   5.844   2.879   7.153 -2.1308  1.5702 -0.4043
   49CHL1  H18B 3581   5.845   2.976   7.294 -1.6823 -0.1229 -1.3706
   49CHL1  H18C 3582   5.901   2.801   7.315  0.8687  1.0714  0.6070
   49CHL1   C12 3583   5.686   2.677   7.225 -0.1551 -0.7821 -0.2771
   49CHL1  H12A 3584   5.778   2.626   7.260  0.8081  0.0010 -1.5769
   49CHL1  H12B 3585   5.592   2.623   7.246  0.8331 -3.7616 -2.7803
   49CHL1   C11 3586   5.703   2.681   7.068  0.3558  0.5647 -0.3419
   49CHL1  H11A 3587   5.810   2.699   7.046  0.6321 -1.7046 -1.1686
   49CHL1  H11B 3588   5.702   2.576   7.031 -2.8590 -0.0850  1.2454
   49CHL1    C9 3589   5.600   2.774   6.995 -0.1819 -1.0723  0.4168
   49CHL1    H9 3590   5.503   2.722   7.010 -0.8247 -0.7703 -2.1922
   49CHL1   C10 3591   5.620   2.783   6.840  0.4459  0.1110 -0.4148
   49CHL1   C19 3592   5.769   2.823   6.809 -0.3468 -0.0527 -0.3145
   49CHL1  H19A 3593   5.779   2.820   6.698  2.2082 -1.8614 -0.1523
   49CHL1  H19B 3594   5.795   2.925   6.844 -0.5873  0.1957 -0.8425
   49CHL1  H19C 3595   5.852   2.756   6.841  0.5115  1.6301  1.1443
   49CHL1    C1 3596   5.577   2.647   6.777  0.2712 -0.4980  0.5906
   49CHL1   H1A 3597   5.648   2.567   6.805  1.8515  1.2135  1.6780
   49CHL1   H1B 3598   5.474   2.618   6.809  0.6285  0.4376  2.7823
   49CHL1    C2 3599   5.569   2.644   6.622  0.3723 -0.7946 -0.6298
   49CHL1   H2A 3600   5.515   2.557   6.579 -3.1705 -0.4029  2.4429
   49CHL1   H2B 3601   5.674   2.647   6.588  0.5119 -2.2440 -0.4075
   49CHL1   C20 3602   5.767   2.790   7.544  0.6004  0.7308 -0.0587
   49CHL1   H20 3603   5.866   2.837   7.529  1.3296 -0.2859  1.3286
   49CHL1   C21 3604   5.796   2.639   7.544 -0.7996  0.3738  0.0385
   49CHL1  H21A 3605   5.701   2.581   7.538 -0.3198 -0.6881  1.8377
   49CHL1  H21B 3606   5.851   2.605   7.635 -0.0664 -3.8564 -1.7359
   49CHL1  H21C 3607   5.863   2.607   7.461 -1.9822  0.4966 -0.9896
   49CHL1   C22 3608   5.727   2.823   7.698 -0.5395 -0.5171  0.4898
   49CHL1  H22A 3609   5.802   2.773   7.762 -1.7950 -4.0000 -0.5412
   49CHL1  H22B 3610   5.738   2.931   7.722 -1.4008 -0.5111  0.9032
   49CHL1   C23 3611   5.589   2.778   7.739  0.2686 -0.1923  0.5994
   49CHL1  H23A 3612   5.511   2.839   7.689  0.8280  0.6346  0.7215
   49CHL1  H23B 3613   5.568   2.678   7.694 -0.9542 -0.0555  0.8353
   49CHL1   C24 3614   5.565   2.782   7.891  0.4962  0.3656  0.3390
   49CHL1  H24A 3615   5.640   2.720   7.946 -2.1363 -1.7949  1.7338
   49CHL1  H24B 3616   5.584   2.883   7.934  0.5233 -0.8506  3.4789
   49CHL1   C25 3617   5.417   2.741   7.937 -0.6702 -0.5178 -0.4688
   49CHL1   H25 3618   5.384   2.653   7.877 -1.2921 -0.6034 -0.0114
   49CHL1   C26 3619   5.418   2.704   8.087  0.4468 -0.8686 -0.9163
   49CHL1  H26A 3620   5.317   2.701   8.134  0.7739  4.6422  0.8825
   49CHL1  H26B 3621   5.462   2.607   8.118 -1.8440 -1.7579 -0.2284
   49CHL1  H26C 3622   5.464   2.787   8.144 -2.0114  0.3208 -0.5076
   49CHL1   C27 3623   5.331   2.862   7.902  0.4981  0.1772  0.0246
   49CHL1  H27A 3624   5.227   2.831   7.924  0.6109  0.9621  1.8857
   49CHL1  H27B 3625   5.361   2.948   7.966  0.0121  0.6887 -0.4332
   49CHL1  H27C 3626   5.338   2.905   7.800  2.2657 -0.6995 -0.2617
   50CHL1    C3 3627   1.192   5.454   6.987 -0.6789  0.2177  0.1445
   50CHL1    H3 3628   1.294   5.412   6.970 -1.2772 -1.5384  0.6649
   50CHL1    O3 3629   1.151   5.474   6.853  0.3738 -0.6091 -0.2128
   50CHL1   H3' 3630   1.071   5.526   6.864  0.8975  0.2631 -0.4481
   50CHL1    C4 3631   1.104   5.355   7.056  0.5044 -0.2827  0.2194
   50CHL1   H4A 3632   1.002   5.399   7.049  0.1573 -1.2500 -1.3002
   50CHL1   H4B 3633   1.093   5.264   6.994  0.4124 -1.8500  2.4269
   50CHL1    C5 3634   1.140   5.326   7.194  0.1226  0.0073  0.0376
   50CHL1    C6 3635   1.181   5.202   7.232  0.9820  0.1387  0.2696
   50CHL1    H6 3636   1.179   5.121   7.158  0.3211  0.6594 -0.3047
   50CHL1    C7 3637   1.246   5.179   7.363  0.3623  0.5258 -0.2069
   50CHL1   H7A 3638   1.224   5.076   7.397  0.4643  0.2602 -0.9158
   50CHL1   H7B 3639   1.355   5.197   7.374 -0.4371  4.8674  3.0199
   50CHL1    C8 3640   1.199   5.279   7.472  0.3842 -0.1602  0.1730
   50CHL1    H8 3641   1.089   5.266   7.480  0.3568 -1.0521 -1.2917
   50CHL1   C14 3642   1.266   5.248   7.604 -0.3247 -0.3990  0.4014
   50CHL1   H14 3643   1.375   5.261   7.583 -1.1097  1.3716 -3.3425
   50CHL1   C15 3644   1.237   5.118   7.662 -0.1269  0.2862 -0.2256
   50CHL1  H15A 3645   1.135   5.088   7.629  0.3667 -0.3813 -1.1935
   50CHL1  H15B 3646   1.312   5.044   7.627 -0.6198 -0.5543  0.4561
   50CHL1   C16 3647   1.251   5.140   7.813  0.0170  0.2942 -0.1504
   50CHL1  H16A 3648   1.152   5.129   7.862  0.4585 -1.2480  0.4461
   50CHL1  H16B 3649   1.315   5.062   7.860  2.9747  1.8362 -1.3630
   50CHL1   C17 3650   1.293   5.291   7.837  0.6042  0.2799 -0.4424
   50CHL1   H17 3651   1.403   5.297   7.823  0.5814  0.6379 -0.4887
   50CHL1   C13 3652   1.234   5.353   7.711 -0.4126  0.0898 -0.8512
   50CHL1   C18 3653   1.076   5.376   7.741  0.2032 -0.6651  0.0656
   50CHL1  H18A 3654   1.068   5.463   7.809  2.3450 -0.0287 -0.4197
   50CHL1  H18B 3655   1.029   5.396   7.642 -1.3654 -2.6364  0.3621
   50CHL1  H18C 3656   1.021   5.284   7.770  0.0630  0.0506  2.2096
   50CHL1   C12 3657   1.289   5.489   7.662  0.9796 -0.0043  0.0982
   50CHL1  H12A 3658   1.262   5.565   7.738 -0.1076  0.2510 -0.5263
   50CHL1  H12B 3659   1.399   5.485   7.650  1.6732  0.0140  4.5030
   50CHL1   C11 3660   1.218   5.534   7.526 -0.0605 -0.2200 -0.4512
   50CHL1  H11A 3661   1.116   5.565   7.556 -0.5288 -0.9043 -1.2878
   50CHL1  H11B 3662   1.269   5.619   7.478  0.4045 -1.2091 -1.7785
   50CHL1    C9 3663   1.228   5.421   7.422  0.1787 -0.7906 -0.1265
   50CHL1    H9 3664   1.337   5.405   7.404  0.8045  0.5741  2.0816
   50CHL1   C10 3665   1.170   5.454   7.282 -0.3073 -0.5726  0.4408
   50CHL1   C19 3666   1.030   5.513   7.308 -0.1066 -0.0153 -0.1821
   50CHL1  H19A 3667   0.963   5.450   7.370  0.3978  1.2801  1.7479
   50CHL1  H19B 3668   1.053   5.611   7.353 -0.0314  0.5885 -1.4820
   50CHL1  H19C 3669   0.974   5.527   7.213  1.4582 -1.9159 -1.4770
   50CHL1    C1 3670   1.259   5.555   7.204  0.0171  0.2574 -0.3452
   50CHL1   H1A 3671   1.268   5.650   7.259 -2.4409  0.3881 -0.0728
   50CHL1   H1B 3672   1.360   5.510   7.196 -0.1480  0.1684 -2.8572
   50CHL1    C2 3673   1.200   5.581   7.072 -0.4002 -0.9264  0.1176
   50CHL1   H2A 3674   1.270   5.643   7.012 -1.4030 -0.3625 -0.4882
   50CHL1   H2B 3675   1.102   5.634   7.069 -0.2758 -0.7199 -2.6324
   50CHL1   C20 3676   1.250   5.343   7.982  0.2637 -0.3935 -0.2964
   50CHL1   H20 3677   1.142   5.325   8.001  0.6723 -1.4914  1.1554
   50CHL1   C21 3678   1.270   5.497   8.007 -0.0346 -0.1694 -0.3695
   50CHL1  H21A 3679   1.201   5.546   7.936 -0.3109 -0.8403 -0.5771
   50CHL1  H21B 3680   1.379   5.519   8.003 -0.3837  1.4829 -1.9173
   50CHL1  H21C 3681   1.225   5.516   8.107 -0.8574 -1.1446 -0.5286
   50CHL1   C22 3682   1.325   5.264   8.092 -0.1597  0.3654  0.1163
   50CHL1  H22A 3683   1.433   5.257   8.067 -0.5064  0.7281 -1.5420
   50CHL1  H22B 3684   1.339   5.323   8.185  0.0983  0.7247 -0.1517
   50CHL1   C23 3685   1.257   5.127   8.138 -0.2755 -0.4027 -0.1378
   50CHL1  H23A 3686   1.153   5.149   8.169 -0.2332 -0.1156 -0.1996
   50CHL1  H23B 3687   1.257   5.053   8.055  4.4764 -1.7629  0.7441
   50CHL1   C24 3688   1.336   5.061   8.247  0.0663 -1.0347  0.0857
   50CHL1  H24A 3689   1.435   5.026   8.209 -0.4950 -0.9374 -1.5354
   50CHL1  H24B 3690   1.357   5.132   8.330  0.8781 -1.7436  0.5032
   50CHL1   C25 3691   1.253   4.952   8.322  0.0531  0.0115  0.5128
   50CHL1   H25 3692   1.159   5.002   8.355  0.2454  1.8478 -1.4892
   50CHL1   C26 3693   1.189   4.849   8.230 -0.0477  0.8819 -0.1605
   50CHL1  H26A 3694   1.129   4.772   8.284 -1.2636  1.1982 -1.0048
   50CHL1  H26B 3695   1.129   4.903   8.154 -1.7338 -0.2941  0.2638
   50CHL1  H26C 3696   1.269   4.788   8.183 -1.3499 -0.0273 -1.2618
   50CHL1   C27 3697   1.322   4.902   8.449  0.7888  0.1353  0.7738
   50CHL1  H27A 3698   1.276   4.814   8.499 -1.0604 -0.5573 -1.9365
   50CHL1  H27B 3699   1.425   4.870   8.423  1.2570  1.1029  1.3628
   50CHL1  H27C 3700   1.336   4.983   8.524 -1.0661  1.0680  0.1711
   51CHL1    C3 3701   0.036   4.459   6.837 -0.4145 -0.4130 -0.6169
   51CHL1    H3 3702  -0.071   4.440   6.863 -0.1162 -0.0174  1.0224
   51CHL1    O3 3703   0.051   4.497   6.701 -0.0025 -0.2603  0.2143
   51CHL1   H3' 3704   0.121   4.563   6.693 -1.2054  0.8649 -1.9120
   51CHL1    C4 3705   0.070   4.574   6.938  0.5673  0.1255 -0.1783
   51CHL1   H4A 3706   0.176   4.595   6.915  0.2350  0.3169 -1.6576
   51CHL1   H4B 3707   0.003   4.657   6.908 -0.2167 -1.1651 -2.2883
   51CHL1    C5 3708   0.051   4.530   7.082  0.2498  0.1425  0.1912
   51CHL1    C6 3709  -0.049   4.590   7.153 -0.3737 -0.1341 -0.4099
   51CHL1    H6 3710  -0.108   4.679   7.127  0.8024  1.2021  1.2019
   51CHL1    C7 3711  -0.070   4.547   7.292 -0.3647  0.6869 -0.3124
   51CHL1   H7A 3712  -0.085   4.638   7.355  0.6697  0.0944  0.8422
   51CHL1   H7B 3713  -0.147   4.469   7.310  0.0541  0.5805  1.1388
   51CHL1    C8 3714   0.059   4.476   7.351  0.1122  0.2103  0.5928
   51CHL1    H8 3715   0.139   4.550   7.370 -0.2329  1.2107 -1.5194
   51CHL1   C14 3716   0.032   4.418   7.495 -0.3917  0.6155  0.6179
   51CHL1   H14 3717  -0.046   4.341   7.479  0.4585  0.2618 -2.4248
   51CHL1   C15 3718  -0.021   4.519   7.595 -0.0806  0.5620 -0.0236
   51CHL1  H15A 3719   0.044   4.609   7.581 -1.1381  1.0122 -2.6625
   51CHL1  H15B 3720  -0.127   4.540   7.569 -0.3944 -1.4944 -0.5671
   51CHL1   C16 3721   0.002   4.451   7.731 -0.0395  0.1770  0.2520
   51CHL1  H16A 3722   0.058   4.519   7.798  0.4045  1.1586 -1.0630
   51CHL1  H16B 3723  -0.093   4.423   7.782 -0.9552  2.0147 -0.3532
   51CHL1   C17 3724   0.079   4.316   7.697 -0.1021 -0.0616 -0.0046
   51CHL1   H17 3725  -0.002   4.245   7.670 -0.5760  0.0522  1.0767
   51CHL1   C13 3726   0.145   4.333   7.559 -0.6632  0.0456 -0.3719
   51CHL1   C18 3727   0.279   4.417   7.569 -0.2493  0.9249 -0.3834
   51CHL1  H18A 3728   0.261   4.499   7.642  2.3668  0.5566  0.7893
   51CHL1  H18B 3729   0.356   4.351   7.613 -1.5254  1.3748  2.7545
   51CHL1  H18C 3730   0.317   4.449   7.469 -0.0634 -0.3416 -0.7314
   51CHL1   C12 3731   0.158   4.214   7.464  0.0052 -0.1387  0.0471
   51CHL1  H12A 3732   0.246   4.151   7.489  2.2244  3.0575  0.7433
   51CHL1  H12B 3733   0.068   4.148   7.463 -0.0301 -0.0857 -0.3133
   51CHL1   C11 3734   0.190   4.253   7.320 -0.3501  0.5526 -0.3456
   51CHL1  H11A 3735   0.291   4.298   7.332  0.2617 -1.0891  1.0635
   51CHL1  H11B 3736   0.198   4.165   7.252  0.9670  1.7576 -1.8399
   51CHL1    C9 3737   0.093   4.364   7.257  0.2547 -0.4966  0.5207
   51CHL1    H9 3738   0.000   4.305   7.243 -0.5347  1.0758 -1.4679
   51CHL1   C10 3739   0.133   4.410   7.117 -0.9383  0.7098 -0.6161
   51CHL1   C19 3740   0.292   4.436   7.115  0.3782 -0.1349  0.3540
   51CHL1  H19A 3741   0.318   4.473   7.014  2.6082 -0.6496  0.6876
   51CHL1  H19B 3742   0.318   4.503   7.199 -1.1979 -0.3724  1.0592
   51CHL1  H19C 3743   0.346   4.342   7.143  3.4653  2.0878  2.4841
   51CHL1    C1 3744   0.099   4.300   7.009  0.6128  0.2889  0.1805
   51CHL1   H1A 3745   0.159   4.208   7.024  2.4664  1.4613  0.2315
   51CHL1   H1B 3746  -0.006   4.265   7.019  0.1678  1.5492  0.0643
   51CHL1    C2 3747   0.115   4.338   6.861  0.3458  0.1973  0.0784
   51CHL1   H2A 3748   0.091   4.260   6.786 -1.4923  0.7514  0.0429
   51CHL1   H2B 3749   0.222   4.362   6.844  0.3562  0.6169  0.7066
   51CHL1   C20 3750   0.167   4.254   7.811  0.4476  0.5626 -0.0213
   51CHL1   H20 3751   0.237   4.334   7.843  0.3398  1.3210 -1.5804
   51CHL1   C21 3752   0.250   4.136   7.765 -0.2010  0.0007 -0.9009
   51CHL1  H21A 3753   0.188   4.059   7.714 -0.1637 -0.1146 -0.7712
   51CHL1  H21B 3754   0.297   4.090   7.854 -0.8918 -1.8741 -1.4517
   51CHL1  H21C 3755   0.326   4.178   7.695  0.1757  0.0273 -0.4861
   51CHL1   C22 3756   0.088   4.221   7.937 -0.1272  0.7134  0.3089
   51CHL1  H22A 3757   0.013   4.300   7.959  1.3591  1.3797  3.5705
   51CHL1  H22B 3758   0.032   4.127   7.921 -0.7238  0.7278  2.1259
   51CHL1   C23 3759   0.171   4.204   8.065 -0.0576 -0.3968 -0.4874
   51CHL1  H23A 3760   0.257   4.135   8.051  1.8773  1.5481  1.1365
   51CHL1  H23B 3761   0.220   4.302   8.084 -1.6054  0.3121 -0.0352
   51CHL1   C24 3762   0.095   4.157   8.198 -0.2685 -0.6301 -0.1307
   51CHL1  H24A 3763   0.081   4.047   8.201  0.7637 -0.7878 -0.6290
   51CHL1  H24B 3764   0.167   4.184   8.279 -0.5288  2.1526 -0.7218
   51CHL1   C25 3765  -0.025   4.251   8.226 -0.2142  0.8157 -0.2216
   51CHL1   H25 3766  -0.098   4.217   8.150 -0.7414  0.4329  0.4422
   51CHL1   C26 3767  -0.071   4.228   8.366 -0.4101  0.9940 -0.2952
   51CHL1  H26A 3768  -0.157   4.291   8.400  0.2943  0.8542  1.8546
   51CHL1  H26B 3769  -0.111   4.125   8.372 -3.8786  1.9874 -2.8509
   51CHL1  H26C 3770   0.007   4.240   8.444  0.2558 -1.0577 -0.5917
   51CHL1   C27 3771   0.016   4.396   8.215 -0.7413  0.1298  0.7611
   51CHL1  H27A 3772   0.081   4.427   8.299 -1.0208  2.4924  0.1759
   51CHL1  H27B 3773   0.052   4.440   8.119 -0.0357 -0.2877  0.8339
   51CHL1  H27C 3774  -0.077   4.454   8.235 -1.6557 -0.7416 -0.7398
   52CHL1    C3 3775   2.387   4.087   6.968  0.1536  0.6492 -0.2758
   52CHL1    H3 3776   2.298   4.140   7.008  0.0565  0.0824  0.2750
   52CHL1    O3 3777   2.384   4.098   6.828 -1.0061 -0.6415  0.3671
   52CHL1   H3' 3778   2.446   4.040   6.784  0.0848  0.3948  0.4971
   52CHL1    C4 3779   2.522   4.141   7.028  0.7255 -0.0806 -0.4054
   52CHL1   H4A 3780   2.606   4.072   7.009  2.2369  1.5526  0.0276
   52CHL1   H4B 3781   2.547   4.236   6.975  1.6173  0.0346  0.2031
   52CHL1    C5 3782   2.502   4.153   7.179  0.6913 -0.5285  0.8699
   52CHL1    C6 3783   2.522   4.268   7.244 -0.5439 -0.0534  0.0482
   52CHL1    H6 3784   2.550   4.356   7.185  1.8687 -1.3296 -0.8462
   52CHL1    C7 3785   2.516   4.295   7.392 -0.2346  0.1476  0.2301
   52CHL1   H7A 3786   2.602   4.352   7.434  0.5100 -0.5747 -0.2726
   52CHL1   H7B 3787   2.421   4.349   7.408 -1.8437 -2.4710  0.1307
   52CHL1    C8 3788   2.505   4.154   7.468 -0.0858  0.3856  0.3159
   52CHL1    H8 3789   2.603   4.102   7.478 -0.6891 -0.6113  1.3097
   52CHL1   C14 3790   2.449   4.165   7.605  1.0200 -0.0618 -0.5468
   52CHL1   H14 3791   2.342   4.195   7.594  1.1251  0.3490 -0.4994
   52CHL1   C15 3792   2.504   4.276   7.700  0.2234 -0.0342  0.8608
   52CHL1  H15A 3793   2.615   4.270   7.702  0.3572  1.3221 -0.3573
   52CHL1  H15B 3794   2.470   4.376   7.664  0.0071 -0.6953 -0.8747
   52CHL1   C16 3795   2.437   4.244   7.831  0.3461 -0.4012 -0.4506
   52CHL1  H16A 3796   2.501   4.264   7.919 -1.9382  1.3070  0.9270
   52CHL1  H16B 3797   2.343   4.303   7.831 -0.6252 -1.6339  3.6564
   52CHL1   C17 3798   2.388   4.090   7.827 -0.0415  0.1546  0.0694
   52CHL1   H17 3799   2.277   4.097   7.819  0.1230  1.8165 -1.5990
   52CHL1   C13 3800   2.441   4.039   7.693  0.6545 -0.2590 -0.7940
   52CHL1   C18 3801   2.576   3.972   7.718  0.3075  0.0351 -0.2851
   52CHL1  H18A 3802   2.644   4.045   7.766 -2.1741  2.0290  0.4182
   52CHL1  H18B 3803   2.559   3.881   7.780 -0.3806  1.8680  2.3511
   52CHL1  H18C 3804   2.607   3.944   7.615 -1.9190 -1.6934 -0.5562
   52CHL1   C12 3805   2.353   3.944   7.615 -0.0916  0.2073 -0.1620
   52CHL1  H12A 3806   2.351   3.857   7.684  1.1137  1.1390  1.1008
   52CHL1  H12B 3807   2.248   3.978   7.605 -0.1970 -0.0158  0.1724
   52CHL1   C11 3808   2.402   3.919   7.471 -0.3355 -0.3313  0.9593
   52CHL1  H11A 3809   2.502   3.871   7.477 -0.7331 -1.4831 -0.6599
   52CHL1  H11B 3810   2.338   3.840   7.425 -1.0563 -0.1949  1.7041
   52CHL1    C9 3811   2.414   4.049   7.389 -0.2413 -0.2229 -0.0602
   52CHL1    H9 3812   2.313   4.096   7.380  0.2661  1.1854  1.3262
   52CHL1   C10 3813   2.467   4.016   7.240 -0.1864  0.2938 -0.5325
   52CHL1   C19 3814   2.588   3.924   7.242  0.6913 -0.3605  0.5027
   52CHL1  H19A 3815   2.569   3.827   7.293  1.6846 -0.6656  0.3248
   52CHL1  H19B 3816   2.619   3.889   7.140 -1.0128 -4.3689  1.1600
   52CHL1  H19C 3817   2.675   3.968   7.295  1.0655  1.7356 -1.6544
   52CHL1    C1 3818   2.348   3.946   7.166 -0.0671 -0.0880  0.4792
   52CHL1   H1A 3819   2.321   3.847   7.208  0.5222 -0.2745  0.4297
   52CHL1   H1B 3820   2.257   4.006   7.185  0.4978  0.4610  1.5774
   52CHL1    C2 3821   2.354   3.939   7.013 -0.9453 -0.0949  0.2490
   52CHL1   H2A 3822   2.261   3.913   6.958  0.2405 -1.7617 -1.1054
   52CHL1   H2B 3823   2.432   3.868   6.978 -0.5442  0.4311  0.0635
   52CHL1   C20 3824   2.409   4.012   7.956  0.0796 -0.0288  0.1379
   52CHL1   H20 3825   2.513   3.974   7.965 -0.1907 -1.3334 -1.6913
   52CHL1   C21 3826   2.327   3.883   7.952  0.2735  0.8244 -0.7585
   52CHL1  H21A 3827   2.219   3.905   7.938  0.3874  1.1702 -1.0893
   52CHL1  H21B 3828   2.329   3.822   8.045 -2.0214  0.1610 -1.0626
   52CHL1  H21C 3829   2.366   3.818   7.871 -0.3203 -2.5752  1.4224
   52CHL1   C22 3830   2.360   4.098   8.075 -0.3346  0.3853  0.1781
   52CHL1  H22A 3831   2.346   4.206   8.055 -0.9827  0.5960  1.6171
   52CHL1  H22B 3832   2.266   4.059   8.121  0.7555 -0.3715  1.9024
   52CHL1   C23 3833   2.458   4.068   8.194 -0.4550 -0.7951  0.9275
   52CHL1  H23A 3834   2.458   3.958   8.211 -0.3621 -1.3933 -2.3196
   52CHL1  H23B 3835   2.562   4.091   8.163 -0.3664 -0.8155  1.2051
   52CHL1   C24 3836   2.421   4.133   8.323 -0.1922  0.2164 -0.0316
   52CHL1  H24A 3837   2.496   4.118   8.403 -1.7524  1.8377  1.8383
   52CHL1  H24B 3838   2.418   4.243   8.310 -0.3847 -0.0224 -2.4826
   52CHL1   C25 3839   2.285   4.102   8.387  0.3506 -0.3937 -0.1014
   52CHL1   H25 3840   2.207   4.114   8.309  1.3612 -1.2384 -1.2863
   52CHL1   C26 3841   2.264   3.962   8.436  0.6878  0.2498  0.4846
   52CHL1  H26A 3842   2.269   3.901   8.344  1.0956  0.0517  0.6354
   52CHL1  H26B 3843   2.351   3.931   8.498 -0.0107  0.4662  1.6158
   52CHL1  H26C 3844   2.168   3.956   8.491  0.8928 -0.7036  0.7578
   52CHL1   C27 3845   2.259   4.197   8.507  0.1838 -0.1052  0.6979
   52CHL1  H27A 3846   2.279   4.301   8.470  0.8310 -0.5939 -0.3823
   52CHL1  H27B 3847   2.160   4.171   8.550 -0.3187 -0.0268 -0.3719
   52CHL1  H27C 3848   2.334   4.174   8.586  0.7553  1.0073  0.5091
   53CHL1    C3 3849   4.667   2.796   7.128  0.2986 -0.8159 -0.3791
   53CHL1    H3 3850   4.771   2.799   7.089 -0.1710 -0.7908 -1.6913
   53CHL1    O3 3851   4.586   2.831   7.018  0.2160 -0.2040 -0.3414
   53CHL1   H3' 3852   4.605   2.765   6.951 -0.7756 -0.6233 -0.2395
   53CHL1    C4 3853   4.617   2.667   7.188 -0.2359 -0.4136 -0.1015
   53CHL1   H4A 3854   4.507   2.673   7.203 -0.1066  1.5010  0.2677
   53CHL1   H4B 3855   4.637   2.583   7.117  2.9744 -2.1948  2.6292
   53CHL1    C5 3856   4.692   2.627   7.317  0.8968 -0.0022 -0.3822
   53CHL1    C6 3857   4.754   2.510   7.339  0.0829  0.1622 -0.3774
   53CHL1    H6 3858   4.763   2.433   7.261 -1.5501  0.6930 -1.1341
   53CHL1    C7 3859   4.818   2.474   7.470  0.3337  0.1678 -0.3721
   53CHL1   H7A 3860   4.798   2.369   7.500 -2.1012  0.9381  0.9905
   53CHL1   H7B 3861   4.927   2.474   7.450  0.6956  1.1942  1.3848
   53CHL1    C8 3862   4.779   2.570   7.589  0.5392 -0.3047 -0.9565
   53CHL1    H8 3863   4.675   2.537   7.612  0.3042  1.4245  0.8095
   53CHL1   C14 3864   4.869   2.557   7.705  0.9319 -0.9109 -0.2772
   53CHL1   H14 3865   4.973   2.582   7.676  0.7842 -0.2893 -0.2758
   53CHL1   C15 3866   4.876   2.415   7.756  0.1690 -0.0895  0.4475
   53CHL1  H15A 3867   4.774   2.371   7.756 -0.0704  0.4401 -0.6622
   53CHL1  H15B 3868   4.948   2.356   7.695 -0.7409  0.5246 -1.2856
   53CHL1   C16 3869   4.932   2.433   7.906 -0.0891 -0.2423  0.2794
   53CHL1  H16A 3870   4.864   2.383   7.979 -1.2915 -0.2861 -0.8300
   53CHL1  H16B 3871   5.028   2.379   7.920 -0.9745 -2.1804 -0.5821
   53CHL1   C17 3872   4.925   2.588   7.929 -0.1526 -0.1227  0.5331
   53CHL1   H17 3873   5.022   2.633   7.901 -1.4183  3.1961  0.9841
   53CHL1   C13 3874   4.831   2.650   7.820 -0.7137  0.1177  0.2899
   53CHL1   C18 3875   4.686   2.621   7.863 -0.1975  0.4296  0.2776
   53CHL1  H18A 3876   4.608   2.630   7.784  0.3446  0.3393 -0.2850
   53CHL1  H18B 3877   4.683   2.518   7.903 -0.8636  0.2045 -0.3259
   53CHL1  H18C 3878   4.664   2.695   7.943  1.1185  2.5444 -1.2009
   53CHL1   C12 3879   4.850   2.792   7.785 -0.5638 -0.0416 -0.4832
   53CHL1  H12A 3880   4.807   2.861   7.861 -0.5568  0.6856 -1.1286
   53CHL1  H12B 3881   4.960   2.804   7.776 -0.3392 -2.3159 -1.7157
   53CHL1   C11 3882   4.786   2.826   7.646  0.5294  1.4302  0.8609
   53CHL1  H11A 3883   4.679   2.847   7.668 -0.0591  0.7857 -1.1804
   53CHL1  H11B 3884   4.821   2.925   7.612 -1.7365  3.2783  3.4269
   53CHL1    C9 3885   4.793   2.713   7.538 -0.0373  0.0553 -0.0059
   53CHL1    H9 3886   4.896   2.718   7.498  0.0736 -2.1840 -0.1454
   53CHL1   C10 3887   4.692   2.747   7.421 -0.8330  0.7456  0.2202
   53CHL1   C19 3888   4.544   2.753   7.462  0.2209 -0.2001 -0.1770
   53CHL1  H19A 3889   4.519   2.851   7.507  0.1866 -0.0498 -0.5198
   53CHL1  H19B 3890   4.481   2.777   7.373  1.4221  0.5321 -0.8493
   53CHL1  H19C 3891   4.511   2.665   7.521  1.2473 -0.8326 -0.5239
   53CHL1    C1 3892   4.725   2.879   7.351  0.2585 -0.3659 -0.4070
   53CHL1   H1A 3893   4.707   2.958   7.426  0.1078 -0.3230 -0.4876
   53CHL1   H1B 3894   4.834   2.870   7.329  0.1104 -0.1697 -1.2671
   53CHL1    C2 3895   4.644   2.909   7.226 -0.5410 -0.1650 -0.1043
   53CHL1   H2A 3896   4.684   3.008   7.197 -1.8076  0.1091 -1.0102
   53CHL1   H2B 3897   4.538   2.922   7.260  0.0068 -0.5627  1.9030
   53CHL1   C20 3898   4.914   2.612   8.074  0.5833 -0.7446  0.0327
   53CHL1   H20 3899   4.815   2.578   8.110  0.1212  2.0039  1.5966
   53CHL1   C21 3900   4.932   2.761   8.105 -0.0407 -0.3554 -0.3626
   53CHL1  H21A 3901   4.937   2.779   8.214  1.1089  0.1616 -0.4821
   53CHL1  H21B 3902   4.840   2.811   8.068 -1.2342 -1.1018  1.4609
   53CHL1  H21C 3903   5.023   2.791   8.048 -0.0157 -2.5365 -1.6230
   53CHL1   C22 3904   5.012   2.521   8.161  0.2240  0.0933  0.2127
   53CHL1  H22A 3905   4.984   2.414   8.151  0.1117  0.2983 -2.2641
   53CHL1  H22B 3906   5.120   2.524   8.134  0.4784  0.1420  1.1821
   53CHL1   C23 3907   5.005   2.547   8.317  0.2236 -0.2533  0.4817
   53CHL1  H23A 3908   5.039   2.647   8.352 -3.0460  1.0869  0.1519
   53CHL1  H23B 3909   4.899   2.541   8.351  0.2466  0.9732  0.8204
   53CHL1   C24 3910   5.100   2.456   8.398 -0.6562  0.5289 -0.7323
   53CHL1  H24A 3911   5.071   2.350   8.381  2.2586 -0.4322 -0.4150
   53CHL1  H24B 3912   5.208   2.463   8.371 -0.5342 -0.2668 -0.4767
   53CHL1   C25 3913   5.087   2.479   8.558 -0.7964 -0.1707  0.2484
   53CHL1   H25 3914   5.117   2.585   8.575  0.1146  0.1611 -2.9150
   53CHL1   C26 3915   4.949   2.452   8.626  0.2744 -0.6097  0.4890
   53CHL1  H26A 3916   4.877   2.513   8.568  1.8325  2.7300  1.8300
   53CHL1  H26B 3917   4.915   2.346   8.618 -1.5050  0.0825 -2.9029
   53CHL1  H26C 3918   4.942   2.493   8.729 -0.6733  1.1106 -0.2224
   53CHL1   C27 3919   5.182   2.389   8.629 -0.6163 -0.3372 -0.0030
   53CHL1  H27A 3920   5.164   2.394   8.739  1.5042  4.3364  0.4138
   53CHL1  H27B 3921   5.185   2.284   8.594  0.6224 -0.2642 -0.1707
   53CHL1  H27C 3922   5.289   2.405   8.601  0.0683 -2.9990  0.7880
   54CHL1    C3 3923   4.502   4.137   6.927  0.1258 -0.3324  0.5297
   54CHL1    H3 3924   4.430   4.201   6.984 -1.7178 -1.5176 -0.3614
   54CHL1    O3 3925   4.511   4.189   6.793 -0.1054  0.1779 -0.1887
   54CHL1   H3' 3926   4.433   4.151   6.752  0.4292 -1.9573  0.6390
   54CHL1    C4 3927   4.640   4.139   6.995  0.3347  0.2353  0.5838
   54CHL1   H4A 3928   4.705   4.070   6.937 -0.8876 -0.3124 -0.1915
   54CHL1   H4B 3929   4.687   4.238   6.979  2.8443 -0.4564  2.9349
   54CHL1    C5 3930   4.647   4.088   7.133  1.0919 -0.0733 -0.0484
   54CHL1    C6 3931   4.708   4.156   7.225 -0.5092 -0.9110 -0.5874
   54CHL1    H6 3932   4.759   4.250   7.198  0.7339 -1.7146 -1.1512
   54CHL1    C7 3933   4.720   4.110   7.363 -0.9210 -0.7442 -0.2002
   54CHL1   H7A 3934   4.827   4.114   7.392 -0.7045 -2.4395 -0.6761
   54CHL1   H7B 3935   4.677   4.194   7.421  1.6801 -0.0809  0.8801
   54CHL1    C8 3936   4.665   3.970   7.397 -0.7863 -0.9358  0.0153
   54CHL1    H8 3937   4.752   3.905   7.377  1.0138  0.8026  1.7386
   54CHL1   C14 3938   4.626   3.965   7.547  0.1364  0.3665  0.4005
   54CHL1   H14 3939   4.549   4.044   7.554 -0.4920 -0.3663  2.1388
   54CHL1   C15 3940   4.722   4.013   7.650  0.4316 -0.5580  0.0636
   54CHL1  H15A 3941   4.824   3.976   7.627 -0.2399 -2.0355 -0.6738
   54CHL1  H15B 3942   4.728   4.124   7.652  0.1387 -0.5320 -0.3148
   54CHL1   C16 3943   4.669   3.962   7.787  0.1109 -0.2220  0.3897
   54CHL1  H16A 3944   4.745   3.896   7.833  0.6640 -0.3385 -0.6690
   54CHL1  H16B 3945   4.646   4.040   7.863  1.2340 -0.8913  1.4349
   54CHL1   C17 3946   4.545   3.874   7.748 -0.2868 -0.6975 -0.6643
   54CHL1   H17 3947   4.464   3.950   7.750  1.5298  1.3240 -0.1693
   54CHL1   C13 3948   4.569   3.839   7.599 -0.3751  0.2282 -0.8118
   54CHL1   C18 3949   4.676   3.726   7.602 -0.3971  0.2370  0.5888
   54CHL1  H18A 3950   4.661   3.636   7.666  1.9687  0.3192  1.3457
   54CHL1  H18B 3951   4.697   3.678   7.505  0.9315 -2.2209  1.9892
   54CHL1  H18C 3952   4.771   3.769   7.640 -0.4845 -1.8875  3.5916
   54CHL1   C12 3953   4.446   3.803   7.515 -0.4599  0.1413 -0.1385
   54CHL1  H12A 3954   4.419   3.696   7.525 -1.7215 -0.1076 -4.1268
   54CHL1  H12B 3955   4.357   3.868   7.533 -1.0944 -0.3427 -1.3654
   54CHL1   C11 3956   4.472   3.802   7.357 -0.3223  0.1437  0.5159
   54CHL1  H11A 3957   4.547   3.720   7.352 -1.2189 -1.0109  3.4096
   54CHL1  H11B 3958   4.378   3.787   7.298  1.3006  0.9247 -2.4812
   54CHL1    C9 3959   4.540   3.937   7.316 -0.5075 -0.0999  0.1387
   54CHL1    H9 3960   4.467   4.015   7.348 -0.0153 -0.8099  3.3133
   54CHL1   C10 3961   4.568   3.954   7.161 -0.8393  0.0223 -0.5712
   54CHL1   C19 3962   4.662   3.836   7.117  0.2768  0.3554 -0.4379
   54CHL1  H19A 3963   4.605   3.741   7.123  0.2907  0.3752  0.0785
   54CHL1  H19B 3964   4.702   3.844   7.014 -1.5803  0.0259 -1.2174
   54CHL1  H19C 3965   4.753   3.831   7.181  0.1571 -1.7051 -0.3748
   54CHL1    C1 3966   4.434   3.956   7.080  0.3694  0.5517 -0.4283
   54CHL1   H1A 3967   4.396   3.852   7.077 -0.8263  0.6195  4.3195
   54CHL1   H1B 3968   4.351   4.018   7.121 -0.3140 -0.3906 -0.3678
   54CHL1    C2 3969   4.441   3.999   6.935  0.5375  0.5331 -0.0967
   54CHL1   H2A 3970   4.342   4.001   6.885  1.2503 -0.0235 -1.6039
   54CHL1   H2B 3971   4.507   3.940   6.868  2.4500  0.6322  1.6038
   54CHL1   C20 3972   4.522   3.778   7.861  0.8715  0.6679 -0.5675
   54CHL1   H20 3973   4.593   3.697   7.886 -1.2513 -0.5538  2.0748
   54CHL1   C21 3974   4.396   3.691   7.833  0.0510 -0.1443 -0.3349
   54CHL1  H21A 3975   4.310   3.760   7.843  1.6893  2.0598 -0.5939
   54CHL1  H21B 3976   4.384   3.615   7.913  1.3994 -0.2058 -0.1638
   54CHL1  H21C 3977   4.393   3.627   7.742  0.0967 -1.5136  0.6001
   54CHL1   C22 3978   4.495   3.864   7.987  0.8410  0.1406  0.1482
   54CHL1  H22A 3979   4.591   3.908   8.024  0.4961  1.2525 -0.2478
   54CHL1  H22B 3980   4.433   3.953   7.966  0.9192 -0.1428 -1.4003
   54CHL1   C23 3981   4.423   3.786   8.099 -0.1978  0.2901  0.3136
   54CHL1  H23A 3982   4.316   3.761   8.079 -0.1473  1.2599 -1.3920
   54CHL1  H23B 3983   4.472   3.687   8.112 -1.4758 -0.1808  2.0098
   54CHL1   C24 3984   4.443   3.839   8.239 -0.8106  0.1963  0.3324
   54CHL1  H24A 3985   4.407   3.769   8.318 -0.6528 -1.0470 -0.6772
   54CHL1  H24B 3986   4.550   3.851   8.268 -0.7008 -2.4373  1.2597
   54CHL1   C25 3987   4.366   3.970   8.256 -0.5632 -0.4027 -0.4172
   54CHL1   H25 3988   4.407   4.036   8.177 -0.4121  0.8229  0.6476
   54CHL1   C26 3989   4.215   3.956   8.236 -0.4403  0.8224  0.6659
   54CHL1  H26A 3990   4.190   3.927   8.131  2.8472  2.1950 -0.6285
   54CHL1  H26B 3991   4.189   3.881   8.313 -0.8752  1.9839  1.6787
   54CHL1  H26C 3992   4.168   4.056   8.246  0.5584  2.0299 -4.1328
   54CHL1   C27 3993   4.401   4.041   8.390  0.6892 -0.6238 -0.1103
   54CHL1  H27A 3994   4.363   4.146   8.393  1.6411 -0.2706 -0.1367
   54CHL1  H27B 3995   4.368   3.977   8.475  2.1173  0.1886  1.0992
   54CHL1  H27C 3996   4.509   4.060   8.405  0.3656  0.2405  1.4463
   55CHL1    C3 3997   4.608   5.633   7.090  0.0449  0.5729 -0.4495
   55CHL1    H3 3998   4.574   5.530   7.114 -2.8901  1.0148 -2.2113
   55CHL1    O3 3999   4.559   5.665   6.962  0.5838 -0.5075 -0.5813
   55CHL1   H3' 4000   4.635   5.693   6.911  0.6246  1.0553  0.2777
   55CHL1    C4 4001   4.556   5.735   7.190  0.3310 -0.0193 -0.4260
   55CHL1   H4A 4002   4.587   5.837   7.158 -1.2623  0.7688  0.4061
   55CHL1   H4B 4003   4.446   5.747   7.200  0.2004 -1.5334  0.1961
   55CHL1    C5 4004   4.619   5.704   7.327  0.3282  0.2493 -0.3888
   55CHL1    C6 4005   4.539   5.669   7.433  0.0117  0.6712  0.0418
   55CHL1    H6 4006   4.430   5.677   7.421  0.1510  2.9111 -0.1421
   55CHL1    C7 4007   4.580   5.623   7.571 -0.0745  0.3029  0.1392
   55CHL1   H7A 4008   4.529   5.673   7.656  0.2387 -2.0230  1.7810
   55CHL1   H7B 4009   4.572   5.514   7.585 -0.6406 -0.1915 -3.3287
   55CHL1    C8 4010   4.727   5.655   7.589 -0.6473  0.1460 -0.2435
   55CHL1    H8 4011   4.741   5.763   7.610 -2.4863  0.4673 -0.5255
   55CHL1   C14 4012   4.786   5.580   7.703 -0.1005 -0.0701 -0.1160
   55CHL1   H14 4013   4.769   5.474   7.675  0.7074  0.1173 -1.3988
   55CHL1   C15 4014   4.718   5.601   7.840  0.7620  0.7742  0.0727
   55CHL1  H15A 4015   4.704   5.709   7.863  3.2891  0.7239  2.3311
   55CHL1  H15B 4016   4.624   5.542   7.832 -0.3582  2.4988 -0.2138
   55CHL1   C16 4017   4.814   5.529   7.936 -0.2454  0.0927  0.7901
   55CHL1  H16A 4018   4.832   5.602   8.018  1.2487  1.3896 -0.6183
   55CHL1  H16B 4019   4.765   5.437   7.975  0.3713 -1.0274 -0.9844
   55CHL1   C17 4020   4.952   5.510   7.860  0.4621 -0.3352 -0.4471
   55CHL1   H17 4021   4.959   5.402   7.832 -1.6776 -1.0589  1.4623
   55CHL1   C13 4022   4.938   5.597   7.732 -0.9972  0.2309 -0.1462
   55CHL1   C18 4023   4.963   5.744   7.769  0.0191  0.4401  0.1248
   55CHL1  H18A 4024   4.924   5.807   7.687  1.6363  1.4195  0.0851
   55CHL1  H18B 4025   4.909   5.771   7.863  0.8509  0.7841  0.5150
   55CHL1  H18C 4026   5.070   5.766   7.786  0.1307 -1.1824  1.8928
   55CHL1   C12 4027   5.015   5.554   7.603  0.0513  0.0578  0.1973
   55CHL1  H12A 4028   5.126   5.557   7.608  0.2720 -1.6387 -2.0831
   55CHL1  H12B 4029   4.980   5.449   7.590  0.6892 -0.1044 -0.2589
   55CHL1   C11 4030   4.973   5.634   7.482 -0.6682 -0.0717 -0.0169
   55CHL1  H11A 4031   5.004   5.740   7.496  0.4321  0.0999 -2.9528
   55CHL1  H11B 4032   5.018   5.590   7.390 -1.0601  1.5232 -1.0105
   55CHL1    C9 4033   4.817   5.627   7.466 -0.6194  0.1674  0.5786
   55CHL1    H9 4034   4.792   5.520   7.448 -1.7431  0.7088 -1.4917
   55CHL1   C10 4035   4.774   5.696   7.332  0.3677 -0.2886 -0.1607
   55CHL1   C19 4036   4.814   5.846   7.328  0.3726  0.3004 -0.2021
   55CHL1  H19A 4037   4.925   5.849   7.322  0.3465  1.3161 -0.3029
   55CHL1  H19B 4038   4.774   5.907   7.244  1.8998  1.9319  0.2054
   55CHL1  H19C 4039   4.785   5.888   7.426  2.1728 -1.0652  0.9946
   55CHL1    C1 4040   4.823   5.615   7.214  0.2876 -0.2167  0.2325
   55CHL1   H1A 4041   4.933   5.628   7.203  0.5949 -1.4225  1.5342
   55CHL1   H1B 4042   4.800   5.507   7.230  0.1718  0.0720  2.2453
   55CHL1    C2 4043   4.758   5.641   7.077  0.0102 -0.4081  0.5793
   55CHL1   H2A 4044   4.796   5.561   7.009 -1.4333 -1.5826  1.1165
   55CHL1   H2B 4045   4.794   5.741   7.044  2.9954 -1.0531  1.5518
   55CHL1   C20 4046   5.071   5.529   7.956 -0.0925  0.7183 -0.0479
   55CHL1   H20 4047   5.065   5.635   7.992  0.1057  0.2094  1.5871
   55CHL1   C21 4048   5.198   5.533   7.873  0.7822  0.9013 -0.9620
   55CHL1  H21A 4049   5.221   5.633   7.831  2.8383  0.4604 -0.9454
   55CHL1  H21B 4050   5.183   5.456   7.794 -0.9048 -0.0030  0.1784
   55CHL1  H21C 4051   5.287   5.501   7.930  0.9300  2.6758 -0.1407
   55CHL1   C22 4052   5.073   5.434   8.071 -0.2210  0.4045 -1.0099
   55CHL1  H22A 4053   4.970   5.434   8.112  0.0174 -2.3123 -0.2495
   55CHL1  H22B 4054   5.112   5.335   8.043  0.8294  0.1597  1.1228
   55CHL1   C23 4055   5.163   5.491   8.183 -0.1410  0.3893  0.1380
   55CHL1  H23A 4056   5.268   5.464   8.162 -0.4319 -3.0210  2.2920
   55CHL1  H23B 4057   5.159   5.600   8.204  3.1802  0.3129  1.8551
   55CHL1   C24 4058   5.159   5.415   8.320 -0.1918 -0.1560 -0.1562
   55CHL1  H24A 4059   5.055   5.413   8.361 -0.1922 -3.1397 -0.1015
   55CHL1  H24B 4060   5.188   5.311   8.295 -0.0097  0.2551 -1.7719
   55CHL1   C25 4061   5.252   5.462   8.441  0.3010  0.5142 -0.5181
   55CHL1   H25 4062   5.237   5.571   8.455 -2.9592  0.1250 -0.2562
   55CHL1   C26 4063   5.198   5.394   8.574  0.1401  0.8763 -0.3681
   55CHL1  H26A 4064   5.267   5.411   8.659  0.9771 -0.5380 -0.7313
   55CHL1  H26B 4065   5.094   5.431   8.588  0.1726  0.6929  0.4322
   55CHL1  H26C 4066   5.211   5.284   8.565  1.6549  0.8796  1.2738
   55CHL1   C27 4067   5.402   5.430   8.415  0.6238 -0.5516  0.2997
   55CHL1  H27A 4068   5.475   5.472   8.488  1.9769  0.4837 -1.5810
   55CHL1  H27B 4069   5.428   5.322   8.409  0.0994 -0.6680  0.1174
   55CHL1  H27C 4070   5.436   5.476   8.320 -0.5520 -0.5151 -0.1202
   56CHL1    C3 4071   3.445   4.044   6.698 -0.0764  0.0979 -0.2825
   56CHL1    H3 4072   3.407   4.146   6.719 -0.7114 -0.2882  0.5098
   56CHL1    O3 4073   3.450   4.027   6.559  0.0930  0.2110  0.0816
   56CHL1   H3' 4074   3.474   3.936   6.543  0.9003 -0.0849  2.5065
   56CHL1    C4 4075   3.589   4.045   6.755 -0.0349  0.1999 -0.3025
   56CHL1   H4A 4076   3.634   3.944   6.747  0.6784  0.3089  1.8152
   56CHL1   H4B 4077   3.660   4.123   6.719  1.8327 -0.9886  0.6550
   56CHL1    C5 4078   3.587   4.072   6.905  1.0724 -0.1402 -0.6332
   56CHL1    C6 4079   3.661   4.170   6.961  0.3833 -0.4530 -0.0079
   56CHL1    H6 4080   3.716   4.247   6.905 -1.1195  1.0256  0.4522
   56CHL1    C7 4081   3.657   4.204   7.110 -0.5695 -0.2565  0.1236
   56CHL1   H7A 4082   3.757   4.220   7.157 -1.3898 -0.2327  1.9318
   56CHL1   H7B 4083   3.605   4.296   7.143 -0.2709 -0.8240  2.3364
   56CHL1    C8 4084   3.603   4.083   7.192 -0.0775  0.4406  0.0650
   56CHL1    H8 4085   3.680   4.003   7.180  1.1032  1.8289 -2.0530
   56CHL1   C14 4086   3.572   4.128   7.343  0.2034 -0.1465  0.1438
   56CHL1   H14 4087   3.514   4.221   7.326  1.1165  0.6232  1.1320
   56CHL1   C15 4088   3.693   4.179   7.429  0.3838 -0.4952 -0.3100
   56CHL1  H15A 4089   3.785   4.117   7.419  0.5258 -0.2033 -0.8337
   56CHL1  H15B 4090   3.715   4.286   7.409  4.0359 -1.3858 -1.9492
   56CHL1   C16 4091   3.644   4.166   7.568 -0.0732 -0.2241 -0.3026
   56CHL1  H16A 4092   3.716   4.104   7.627  0.2651  1.9618  1.7663
   56CHL1  H16B 4093   3.631   4.261   7.625 -0.8610 -0.2644 -0.4177
   56CHL1   C17 4094   3.510   4.090   7.571 -0.0812 -1.0281 -0.0756
   56CHL1   H17 4095   3.425   4.162   7.573  0.1917 -0.6923  2.3129
   56CHL1   C13 4096   3.504   4.021   7.432 -0.8675  0.1332 -0.8750
   56CHL1   C18 4097   3.597   3.889   7.443  0.3209 -0.6948  0.3913
   56CHL1  H18A 4098   3.544   3.811   7.502 -0.4921  0.4338  1.2102
   56CHL1  H18B 4099   3.620   3.859   7.339 -0.6140 -2.2299  0.5903
   56CHL1  H18C 4100   3.693   3.914   7.494  0.4914 -1.0877  0.2665
   56CHL1   C12 4101   3.375   3.984   7.369  0.6675 -0.7093  0.5728
   56CHL1  H12A 4102   3.321   3.904   7.424 -1.4785  0.1895 -0.1255
   56CHL1  H12B 4103   3.314   4.076   7.383  1.5025 -0.2169  1.0768
   56CHL1   C11 4104   3.390   3.938   7.220  0.5310  0.5984 -0.4626
   56CHL1  H11A 4105   3.431   3.835   7.224 -0.1736  0.2380  4.4919
   56CHL1  H11B 4106   3.294   3.922   7.168  0.6149 -1.4507 -0.0688
   56CHL1    C9 4107   3.477   4.028   7.128 -0.1391 -0.2195 -0.1581
   56CHL1    H9 4108   3.411   4.118   7.121  0.4304  0.2927  0.7984
   56CHL1   C10 4109   3.488   3.985   6.982 -0.2203  0.5448  0.6409
   56CHL1   C19 4110   3.538   3.843   6.976 -0.2107  0.2250  0.1838
   56CHL1  H19A 4111   3.487   3.760   7.028  0.6381 -0.8888 -0.7119
   56CHL1  H19B 4112   3.546   3.805   6.872 -1.0384  3.1898 -1.0617
   56CHL1  H19C 4113   3.640   3.830   7.020 -0.1801 -1.3888 -0.3160
   56CHL1    C1 4114   3.344   3.977   6.910  0.0817 -0.2651  0.0165
   56CHL1   H1A 4115   3.276   3.899   6.951 -1.5263  0.1299 -1.7051
   56CHL1   H1B 4116   3.294   4.076   6.921 -0.3194 -0.5151  0.4820
   56CHL1    C2 4117   3.344   3.947   6.755  0.7166  0.4366  0.2499
   56CHL1   H2A 4118   3.240   3.965   6.719  0.1906 -0.2298  1.3887
   56CHL1   H2B 4119   3.380   3.843   6.738  1.5574  0.6700  0.5270
   56CHL1   C20 4120   3.494   3.999   7.697 -0.1772 -0.8643 -0.1373
   56CHL1   H20 4121   3.582   3.932   7.698  0.7996  0.3436  1.6170
   56CHL1   C21 4122   3.365   3.918   7.690  0.7823  0.4104 -0.2481
   56CHL1  H21A 4123   3.357   3.858   7.783 -0.9285  1.0988  0.0800
   56CHL1  H21B 4124   3.357   3.844   7.607  1.8542 -0.5938  0.5068
   56CHL1  H21C 4125   3.279   3.988   7.697 -0.8355 -1.5605  0.5168
   56CHL1   C22 4126   3.511   4.081   7.828 -0.1607 -0.4858  0.1741
   56CHL1  H22A 4127   3.523   4.015   7.917 -3.8868  1.0462  2.0519
   56CHL1  H22B 4128   3.609   4.130   7.813 -0.1044  0.8793  3.8222
   56CHL1   C23 4129   3.410   4.194   7.851 -0.0711  0.2362  0.1524
   56CHL1  H23A 4130   3.398   4.254   7.759  1.1387 -0.4130 -0.4562
   56CHL1  H23B 4131   3.309   4.150   7.868 -0.5410  0.2603 -2.2426
   56CHL1   C24 4132   3.428   4.274   7.978  0.1699  0.1861 -0.1478
   56CHL1  H24A 4133   3.436   4.209   8.069  0.6309  1.5981  0.8542
   56CHL1  H24B 4134   3.525   4.328   7.977  0.9808 -1.2199 -0.8719
   56CHL1   C25 4135   3.310   4.372   8.003  0.1686  0.1778 -0.9266
   56CHL1   H25 4136   3.220   4.311   8.025  0.7938 -0.1033  1.0871
   56CHL1   C26 4137   3.349   4.467   8.119  0.0769 -0.3727 -0.1202
   56CHL1  H26A 4138   3.449   4.511   8.096  0.5152 -1.0116  0.5471
   56CHL1  H26B 4139   3.366   4.411   8.213  1.8995 -2.2796 -1.4927
   56CHL1  H26C 4140   3.267   4.542   8.127  0.1167  0.4606 -4.6352
   56CHL1   C27 4141   3.270   4.460   7.878  0.3072 -0.5049  0.3768
   56CHL1  H27A 4142   3.359   4.476   7.814 -1.2858  1.8538 -1.4381
   56CHL1  H27B 4143   3.192   4.406   7.819  1.6025 -2.2349  0.1366
   56CHL1  H27C 4144   3.232   4.558   7.913 -0.4231 -0.7167  0.2033
   57SAPC     N 4145   5.208   4.979  10.964 -0.5420  0.1141  0.3365
   57SAPC   C12 4146   5.251   5.075  10.857  0.0293 -0.1024 -0.1705
   57SAPC  H12A 4147   5.344   5.122  10.884 -0.1819  0.5483 -0.5586
   57SAPC  H12B 4148   5.176   5.153  10.859 -0.5564 -0.5926 -1.7353
   57SAPC   C13 4149   5.277   4.847  10.960 -0.0827 -0.3740 -0.1732
   57SAPC  H13A 4150   5.241   4.781  11.038 -2.1858 -1.1455 -1.7194
   57SAPC  H13B 4151   5.261   4.792  10.869 -0.2566  2.8777 -2.2569
   57SAPC  H13C 4152   5.382   4.869  10.974 -0.2515  0.8172 -0.7003
   57SAPC   C14 4153   5.220   5.031  11.104  0.4805  0.3803  0.0298
   57SAPC  H14A 4154   5.321   5.033  11.143  0.5506  1.8573 -0.1659
   57SAPC  H14B 4155   5.176   5.130  11.108  2.6272  1.3853  0.4061
   57SAPC  H14C 4156   5.160   4.972  11.171  1.5916 -2.4844 -1.3530
   57SAPC   C15 4157   5.063   4.948  10.939  0.1857 -0.8491 -0.1822
   57SAPC  H15A 4158   5.050   4.919  10.836  0.3423 -0.2534 -0.3706
   57SAPC  H15B 4159   5.016   4.871  10.998  0.6598  0.2163  1.6711
   57SAPC  H15C 4160   5.000   5.035  10.943  0.5501 -0.5821 -0.1989
   57SAPC   C11 4161   5.263   5.034  10.711  0.4161  0.8949  0.0378
   57SAPC  H11A 4162   5.297   5.128  10.662  2.4570  0.3946  0.3945
   57SAPC  H11B 4163   5.165   5.006  10.667 -0.4504  1.5301  1.4522
   57SAPC     P 4164   5.504   4.937  10.679  0.0464  0.0583  0.0805
   57SAPC   O13 4165   5.538   5.045  10.766 -0.4387 -0.1712  0.6305
   57SAPC   O14 4166   5.557   4.805  10.722  0.5345 -0.3565  0.0521
   57SAPC   O12 4167   5.347   4.926  10.686 -0.2827 -0.0580 -0.3270
   57SAPC   O11 4168   5.540   4.960  10.529 -0.0992  0.5656 -0.7248
   57SAPC    C1 4169   5.441   4.930  10.429 -0.0821 -0.4556  0.0682
   57SAPC    HA 4170   5.354   4.874  10.469  0.9478 -0.7228  2.0648
   57SAPC    HB 4171   5.414   5.029  10.387  1.3238  0.2804  0.8198
   57SAPC    C2 4172   5.491   4.841  10.308 -0.7123  0.5639  0.2634
   57SAPC    HS 4173   5.516   4.737  10.341  0.0260  0.8845  0.7529
   57SAPC   O21 4174   5.604   4.908  10.248  0.3999  0.5739 -0.4073
   57SAPC   C21 4175   5.674   4.834  10.166  0.6480 -0.3854 -0.6123
   57SAPC   O22 4176   5.653   4.720  10.132  0.0756 -0.2358  0.2946
   57SAPC   C22 4177   5.792   4.919  10.106 -0.0710  0.3970 -0.2623
   57SAPC   H2R 4178   5.738   4.991  10.042  1.5088  0.2814 -1.8113
   57SAPC   H2S 4179   5.844   4.967  10.193 -1.6948 -1.2107  1.7007
   57SAPC    C3 4180   5.379   4.819  10.202  0.0129  0.8057 -0.1550
   57SAPC    HX 4181   5.292   4.769  10.249 -0.4726  0.0711 -1.7621
   57SAPC    HY 4182   5.412   4.749  10.122  0.9055  1.8066 -0.6997
   57SAPC   O31 4183   5.341   4.944  10.133  0.0221  0.3083  0.7951
   57SAPC   C31 4184   5.253   4.928  10.038 -0.6443 -0.3090  0.0694
   57SAPC   O32 4185   5.199   4.821  10.009 -0.0518  0.4776 -0.1720
   57SAPC   C32 4186   5.233   5.054   9.953  0.1079 -0.0991  0.1249
   57SAPC   H2X 4187   5.333   5.081   9.911  0.5604 -3.7361 -1.5112
   57SAPC   H2Y 4188   5.199   5.133  10.024  3.3421 -0.8301  2.7610
   57SAPC   C23 4189   5.886   4.837  10.016 -0.6479  0.7574  0.1187
   57SAPC   H3R 4190   5.908   4.740  10.064  2.1223  1.2095 -0.0631
   57SAPC   H3S 4191   5.988   4.882  10.028 -0.3073  0.4563 -1.4300
   57SAPC   C24 4192   5.859   4.828   9.863 -0.8605  0.8744 -0.0042
   57SAPC   H4R 4193   5.946   4.778   9.815 -0.2053  0.3616  1.6541
   57SAPC   H4S 4194   5.849   4.929   9.816  1.8192  0.9311 -0.6459
   57SAPC   C25 4195   5.736   4.743   9.834 -0.2003 -0.0669 -0.1501
   57SAPC   H5R 4196   5.734   4.649   9.892 -0.6727  0.0213 -0.0169
   57SAPC   C26 4197   5.622   4.781   9.779  0.2572 -0.4623  0.3034
   57SAPC   H6R 4198   5.540   4.708   9.769  0.9280 -1.0257 -1.5091
   57SAPC   C27 4199   5.583   4.915   9.731  0.5563  0.3330 -0.4094
   57SAPC   H7R 4200   5.665   4.989   9.728  0.5840  0.2812 -0.9670
   57SAPC   H7S 4201   5.499   4.956   9.790  1.2407  0.0632  0.7817
   57SAPC   C28 4202   5.536   4.912   9.582 -0.0615 -0.2511 -0.1715
   57SAPC   H8R 4203   5.444   4.855   9.562 -0.6893  1.2750 -1.8896
   57SAPC   C29 4204   5.596   4.977   9.478  0.3265  0.6946  0.1612
   57SAPC   H9R 4205   5.542   4.963   9.383 -0.2400 -2.3261  0.8191
   57SAPC  C210 4206   5.719   5.067   9.476  0.4892 -0.3952 -0.1934
   57SAPC  H10R 4207   5.799   5.033   9.406 -0.4958 -0.3188 -1.3680
   57SAPC  H10S 4208   5.759   5.077   9.580 -0.1288  3.2060 -0.1870
   57SAPC  C211 4209   5.678   5.208   9.448 -0.2664 -0.0085  0.4070
   57SAPC  H11R 4210   5.591   5.245   9.505  2.0205  0.0850  4.1961
   57SAPC  C212 4211   5.760   5.290   9.371  0.2833 -0.0022 -0.0309
   57SAPC  H12R 4212   5.727   5.394   9.354  2.7184  1.1927  1.7400
   57SAPC  C213 4213   5.886   5.253   9.302  1.2229 -0.0581 -1.0004
   57SAPC  H13R 4214   5.845   5.233   9.201  0.4693 -2.0362 -0.3418
   57SAPC  H13S 4215   5.942   5.165   9.338  1.1715 -0.1891 -1.2389
   57SAPC  C214 4216   5.995   5.353   9.290  0.4126 -0.1600  0.0428
   57SAPC  H14R 4217   6.087   5.312   9.334  0.1166 -0.4908  0.3541
   57SAPC  C215 4218   5.990   5.469   9.225  0.8315 -0.1239 -0.5237
   57SAPC  H15R 4219   6.076   5.536   9.218  0.4573  0.3349 -0.8399
   57SAPC  C216 4220   5.872   5.522   9.145 -0.1174 -0.1937  0.2627
   57SAPC  H16R 4221   5.818   5.608   9.189 -1.0095  1.1742 -3.1557
   57SAPC  H16S 4222   5.791   5.450   9.119 -1.4657  0.1923  3.0483
   57SAPC  C217 4223   5.935   5.576   9.010  1.1004  0.6051 -0.5420
   57SAPC  H17R 4224   5.851   5.578   8.938  0.5461 -1.0919  0.0072
   57SAPC  H17S 4225   5.994   5.489   8.972 -1.4230 -1.8378  0.7605
   57SAPC  C218 4226   6.017   5.709   8.995 -0.6324  0.3965 -0.6263
   57SAPC  H18R 4227   6.104   5.706   9.063 -0.2835  0.2446 -1.0721
   57SAPC  H18S 4228   5.959   5.800   9.025  2.1892  1.9015  0.6582
   57SAPC  C219 4229   6.067   5.731   8.854  0.2475 -0.5789  0.4022
   57SAPC  H19R 4230   5.973   5.736   8.796  0.6968 -1.9431 -0.4963
   57SAPC  H19S 4231   6.103   5.629   8.826 -2.7319 -2.0131  1.3854
   57SAPC  C220 4232   6.151   5.857   8.820 -0.5791 -0.4960 -0.0232
   57SAPC  H20R 4233   6.252   5.854   8.867 -0.6066  1.2567  0.2115
   57SAPC  H20S 4234   6.116   5.943   8.881  2.0766 -0.9408  2.3134
   57SAPC  H20T 4235   6.156   5.874   8.711 -1.8070  0.1182 -0.0004
   57SAPC   C33 4236   5.146   5.030   9.828 -0.2943  0.0693 -0.1944
   57SAPC   H3X 4237   5.117   5.133   9.796  2.2372  1.2877  1.1242
   57SAPC   H3Y 4238   5.054   4.975   9.856 -0.4335  0.6423  0.4881
   57SAPC   C34 4239   5.210   4.951   9.711 -0.3943 -0.4913  0.3259
   57SAPC   H4X 4240   5.275   4.867   9.745 -0.3602 -0.1279  1.1730
   57SAPC   H4Y 4241   5.287   5.008   9.653 -0.5128  0.6061  1.2096
   57SAPC   C35 4242   5.108   4.892   9.618  0.2762  0.2772 -0.0154
   57SAPC   H5X 4243   5.038   4.974   9.593  0.5461  1.2170  2.1161
   57SAPC   H5Y 4244   5.051   4.812   9.669 -0.4030  0.5537 -0.3414
   57SAPC   C36 4245   5.173   4.833   9.494  0.1225 -0.0231 -0.1144
   57SAPC   H6X 4246   5.104   4.758   9.451  0.0860 -0.9675  1.5292
   57SAPC   H6Y 4247   5.257   4.766   9.524  0.3621  1.0032  1.6115
   57SAPC   C37 4248   5.231   4.943   9.404  1.0047 -0.5046 -0.6004
   57SAPC   H7X 4249   5.315   5.003   9.445  0.0378  0.0999  0.5514
   57SAPC   H7Y 4250   5.150   5.019   9.393 -0.3564 -1.5758  1.4328
   57SAPC   C38 4251   5.272   4.897   9.264 -0.2045 -0.5601 -1.0115
   57SAPC   H8X 4252   5.194   4.826   9.226 -0.9566  0.1444 -0.8243
   57SAPC   H8Y 4253   5.374   4.856   9.271  1.0003  2.2976 -0.2827
   57SAPC   C39 4254   5.278   5.010   9.162 -0.3482 -0.2935 -0.1883
   57SAPC   H9X 4255   5.342   5.088   9.206  0.8692 -1.6477  0.5143
   57SAPC   H9Y 4256   5.173   5.046   9.150 -0.9038 -1.1423  1.7881
   57SAPC  C310 4257   5.331   4.960   9.028  0.4021  0.0955  0.3485
   57SAPC  H10X 4258   5.240   4.929   8.972  0.8160 -1.4807  0.4950
   57SAPC  H10Y 4259   5.404   4.876   9.023  0.8235  0.4317  0.7237
   57SAPC  C311 4260   5.399   5.073   8.956  0.3424  0.1577  0.2692
   57SAPC  H11X 4261   5.484   5.118   9.011  1.6723 -1.6051 -0.2673
   57SAPC  H11Y 4262   5.319   5.148   8.941 -0.0048 -0.4416 -0.9426
   57SAPC  C312 4263   5.446   5.038   8.814  0.0272 -0.1595  0.7965
   57SAPC  H12X 4264   5.354   5.029   8.752 -0.0159 -1.2021  1.0039
   57SAPC  H12Y 4265   5.501   4.942   8.827  0.4853 -0.0652 -0.3347
   57SAPC  C313 4266   5.544   5.142   8.750 -0.1393  0.2515  0.1962
   57SAPC  H13X 4267   5.621   5.171   8.824  0.3960  2.4801 -1.1400
   57SAPC  H13Y 4268   5.487   5.232   8.717 -0.4413  0.0244  0.0925
   57SAPC  C314 4269   5.611   5.071   8.635 -0.2264 -0.7697  0.6240
   57SAPC  H14X 4270   5.547   5.040   8.550  1.4856  0.5520 -1.2253
   57SAPC  H14Y 4271   5.650   4.972   8.666  0.7770 -0.6572 -0.2281
   57SAPC  C315 4272   5.721   5.155   8.567 -0.2732  0.1690 -0.0833
   57SAPC  H15X 4273   5.773   5.215   8.645  1.5684 -0.7656 -0.5350
   57SAPC  H15Y 4274   5.679   5.233   8.500 -0.9770  0.1680  0.3522
   57SAPC  C316 4275   5.831   5.068   8.503 -0.0690 -0.0513 -0.7125
   57SAPC  H16X 4276   5.793   4.986   8.439  1.1798 -0.0958 -1.4192
   57SAPC  H16Y 4277   5.891   5.021   8.584  1.5139  0.3130 -1.6434
   57SAPC  C317 4278   5.926   5.158   8.424 -0.1604  0.3723  0.0811
   57SAPC  H17X 4279   5.975   5.230   8.493 -0.3236  0.9185 -0.3713
   57SAPC  H17Y 4280   5.864   5.224   8.360  0.4197  0.4067 -0.4573
   57SAPC  C318 4281   6.035   5.088   8.343 -0.7974 -0.1016 -0.1127
   57SAPC  H18X 4282   6.101   5.024   8.406  1.3391  0.4497 -1.6811
   57SAPC  H18Y 4283   6.098   5.168   8.297  0.3139 -1.2594 -0.6672
   57SAPC  H18Z 4284   5.983   5.028   8.266 -1.1856 -0.5482  0.4900
   58SAPC     N 4285   0.353   3.365  10.987  0.0867  0.6614  0.1913
   58SAPC   C12 4286   0.210   3.320  10.975  0.0310 -0.1123 -0.0392
   58SAPC  H12A 4287   0.181   3.300  11.077 -1.0552 -1.6451 -0.6069
   58SAPC  H12B 4288   0.192   3.220  10.939  2.1463 -1.3602  2.1362
   58SAPC   C13 4289   0.426   3.279  11.086 -0.0869 -0.1909  0.5975
   58SAPC  H13A 4290   0.528   3.312  11.094 -0.5848  1.8194 -0.6845
   58SAPC  H13B 4291   0.380   3.277  11.184 -0.7056  1.7931  0.3938
   58SAPC  H13C 4292   0.422   3.175  11.058 -3.9074 -0.3828  1.2184
   58SAPC   C14 4293   0.437   3.367  10.867  0.2938 -0.3584  0.2496
   58SAPC  H14A 4294   0.451   3.271  10.819 -0.5153 -0.0417 -0.6688
   58SAPC  H14B 4295   0.393   3.434  10.794  1.8085  0.0095 -0.3682
   58SAPC  H14C 4296   0.534   3.407  10.891  0.4318 -0.5428  0.0052
   58SAPC   C15 4297   0.352   3.498  11.062  0.8113 -0.4601 -0.3027
   58SAPC  H15A 4298   0.290   3.490  11.150  0.2973  1.1878 -0.4790
   58SAPC  H15B 4299   0.447   3.522  11.107  0.4422 -3.0842  2.1583
   58SAPC  H15C 4300   0.311   3.589  11.020 -1.8252  1.7703  5.9252
   58SAPC   C11 4301   0.102   3.417  10.916  0.3520  0.1375  0.1593
   58SAPC  H11A 4302   0.141   3.521  10.909  1.8227 -0.3002  1.4242
   58SAPC  H11B 4303   0.008   3.422  10.975 -1.0949 -2.1568 -1.7417
   58SAPC     P 4304  -0.055   3.291  10.737 -0.3550  0.3258  0.2602
   58SAPC   O13 4305  -0.161   3.291  10.839 -0.4357  0.2789 -0.4591
   58SAPC   O14 4306  -0.101   3.327  10.600  0.1205 -0.1059  0.3649
   58SAPC   O12 4307   0.065   3.383  10.784 -0.8859 -0.3769 -0.5799
   58SAPC   O11 4308   0.011   3.148  10.734  0.3974 -0.6689  0.5907
   58SAPC    C1 4309   0.147   3.130  10.701  0.1818  0.1684  0.4811
   58SAPC    HA 4310   0.223   3.203  10.736  1.0267  0.1421 -1.1865
   58SAPC    HB 4311   0.181   3.030  10.738  1.3333  0.1829 -0.4554
   58SAPC    C2 4312   0.163   3.108  10.546 -0.9774 -0.2005 -0.2656
   58SAPC    HS 4313   0.173   3.209  10.502  0.9698  0.4884  1.6040
   58SAPC   O21 4314   0.053   3.036  10.487  0.0799 -0.0379 -0.2433
   58SAPC   C21 4315  -0.015   3.083  10.378  0.6570 -0.2834 -1.0307
   58SAPC   O22 4316  -0.001   3.190  10.323 -0.0262 -0.6765 -0.3469
   58SAPC   C22 4317  -0.106   2.972  10.315 -0.1728  0.3459  0.2112
   58SAPC   H2R 4318  -0.044   2.884  10.290 -0.0495  0.9436 -1.7923
   58SAPC   H2S 4319  -0.191   2.951  10.383 -0.3701 -2.2625 -0.7459
   58SAPC    C3 4320   0.292   3.025  10.520  0.4254 -0.0417  0.0332
   58SAPC    HX 4321   0.281   2.930  10.577 -1.1545  0.7896  1.1620
   58SAPC    HY 4322   0.384   3.080  10.550 -0.3305  0.6519  1.1060
   58SAPC   O31 4323   0.307   2.980  10.382 -0.1157 -0.1227 -0.2911
   58SAPC   C31 4324   0.341   3.071  10.295 -0.6362 -0.5487 -0.2053
   58SAPC   O32 4325   0.344   3.194  10.318  0.6497  0.0815  0.1732
   58SAPC   C32 4326   0.352   3.024  10.155  0.5349  0.6805  0.0633
   58SAPC   H2X 4327   0.341   2.914  10.159  2.8902  0.4007  0.0276
   58SAPC   H2Y 4328   0.458   3.036  10.124  0.4855  2.2499  0.4210
   58SAPC   C23 4329  -0.148   3.017  10.174  0.6843  0.0191 -0.5075
   58SAPC   H3R 4330  -0.064   3.040  10.105 -1.1631 -0.3441 -3.0471
   58SAPC   H3S 4331  -0.199   3.113  10.198 -2.1941 -0.7650 -2.8663
   58SAPC   C24 4332  -0.250   2.915  10.125  0.8448  0.2912  0.1579
   58SAPC   H4R 4333  -0.297   2.977  10.045  0.1843  1.9657  1.7695
   58SAPC   H4S 4334  -0.325   2.890  10.203 -1.7777  2.4057 -1.4700
   58SAPC   C25 4335  -0.177   2.794  10.081  0.2501 -0.0636  0.2217
   58SAPC   H5R 4336  -0.159   2.715  10.155  0.7504 -2.3870 -2.2325
   58SAPC   C26 4337  -0.123   2.764   9.962  0.2470  0.1557 -0.1947
   58SAPC   H6R 4338  -0.073   2.666   9.961  0.1517  0.0742  1.1249
   58SAPC   C27 4339  -0.144   2.844   9.841  0.1463 -0.7620 -0.8037
   58SAPC   H7R 4340  -0.188   2.943   9.867 -0.2968 -2.0348  4.4849
   58SAPC   H7S 4341  -0.229   2.795   9.789 -2.1608  1.4690  0.6495
   58SAPC   C28 4342  -0.017   2.836   9.761 -0.1064  0.0023 -0.6178
   58SAPC   H8R 4343   0.071   2.882   9.807 -2.4465  2.0613  2.1922
   58SAPC   C29 4344  -0.007   2.785   9.636  0.2448 -0.2803 -0.0996
   58SAPC   H9R 4345   0.095   2.765   9.599 -0.1704 -3.3775  0.1788
   58SAPC  C210 4346  -0.117   2.728   9.542 -0.3802 -0.0100  0.0206
   58SAPC  H10R 4347  -0.173   2.805   9.484 -2.3806  0.0402  1.8690
   58SAPC  H10S 4348  -0.190   2.682   9.612 -2.8018 -1.4398 -3.2178
   58SAPC  C211 4349  -0.070   2.622   9.444 -0.1089  0.6347 -0.6706
   58SAPC  H11R 4350  -0.028   2.533   9.493  0.5993  1.6465  0.6406
   58SAPC  C212 4351  -0.068   2.623   9.309  0.4117 -0.2221  0.1345
   58SAPC  H12R 4352  -0.046   2.531   9.253  0.1566  0.4930 -1.1629
   58SAPC  C213 4353  -0.112   2.733   9.215 -0.3225 -0.3363  0.3280
   58SAPC  H13R 4354  -0.046   2.822   9.221 -0.2138 -0.5280  3.6995
   58SAPC  H13S 4355  -0.210   2.770   9.253 -0.4155 -0.5273  0.2713
   58SAPC  C214 4356  -0.134   2.696   9.072  0.5455 -0.4577 -0.8907
   58SAPC  H14R 4357  -0.203   2.613   9.053 -0.6480 -0.3892  2.4751
   58SAPC  C215 4358  -0.087   2.758   8.958 -0.3006 -0.3845  0.2586
   58SAPC  H15R 4359  -0.104   2.702   8.865 -0.9098 -1.4969  1.0163
   58SAPC  C216 4360  -0.008   2.882   8.942 -0.1289  0.2012 -0.3673
   58SAPC  H16R 4361   0.070   2.905   9.018  0.0040  0.3445 -0.5464
   58SAPC  H16S 4362  -0.078   2.968   8.935 -1.5114 -0.8319  0.0997
   58SAPC  C217 4363   0.079   2.880   8.808  0.5590  0.0183 -0.5071
   58SAPC  H17R 4364   0.136   2.786   8.790  0.9225 -0.4344  2.5873
   58SAPC  H17S 4365   0.149   2.966   8.814 -0.5302  0.9131 -0.1975
   58SAPC  C218 4366   0.001   2.910   8.683 -0.1133 -0.0936  0.2652
   58SAPC  H18R 4367  -0.050   3.008   8.683 -2.0404 -1.0491 -0.8450
   58SAPC  H18S 4368  -0.071   2.826   8.685 -0.4798  0.1376 -1.2978
   58SAPC  C219 4369   0.092   2.908   8.557 -0.2440 -0.6494  0.1882
   58SAPC  H19R 4370   0.159   2.820   8.568 -0.2077 -0.6363  0.0744
   58SAPC  H19S 4371   0.155   2.999   8.554 -0.3738 -0.5851 -0.6558
   58SAPC  C220 4372   0.015   2.885   8.429  0.4696 -0.1953  0.3261
   58SAPC  H20R 4373  -0.037   2.787   8.431 -0.3430  0.2343  0.7649
   58SAPC  H20S 4374   0.094   2.892   8.350  0.6374 -0.4143  0.4747
   58SAPC  H20T 4375  -0.059   2.963   8.401  1.8539  0.5188 -1.6015
   58SAPC   C33 4376   0.251   3.097  10.061 -0.2494 -0.0520  0.0638
   58SAPC   H3X 4377   0.267   3.205  10.084  3.4947  0.1720 -2.5192
   58SAPC   H3Y 4378   0.152   3.057  10.090 -1.3435 -0.1378 -3.3179
   58SAPC   C34 4379   0.284   3.062   9.915 -0.3644 -0.2715 -0.1389
   58SAPC   H4X 4380   0.257   2.955   9.904  0.2289 -0.3498 -0.8882
   58SAPC   H4Y 4381   0.393   3.074   9.897 -0.5358  0.3071 -0.8341
   58SAPC   C35 4382   0.203   3.146   9.813 -0.1973 -0.2963 -0.7961
   58SAPC   H5X 4383   0.199   3.252   9.845  1.1276  0.0175 -1.6059
   58SAPC   H5Y 4384   0.096   3.117   9.811 -0.9103  2.0530  0.2821
   58SAPC   C36 4385   0.261   3.136   9.671  0.6273  1.0293  0.4924
   58SAPC   H6X 4386   0.288   3.035   9.635 -0.0300  0.9448  0.2298
   58SAPC   H6Y 4387   0.357   3.193   9.671  0.9150  0.6657  2.7594
   58SAPC   C37 4388   0.158   3.199   9.573  0.2502  0.1429  0.1630
   58SAPC   H7X 4389   0.127   3.298   9.612  0.0061  0.0565  0.1900
   58SAPC   H7Y 4390   0.067   3.138   9.553 -0.9861  2.5232 -1.9697
   58SAPC   C38 4391   0.226   3.217   9.431  0.1523  0.0894  0.3903
   58SAPC   H8X 4392   0.322   3.268   9.452 -0.9494  1.4072  2.7067
   58SAPC   H8Y 4393   0.166   3.293   9.376  2.0128  2.1028  0.9754
   58SAPC   C39 4394   0.252   3.086   9.350 -0.2845 -0.6626 -0.4743
   58SAPC   H9X 4395   0.152   3.040   9.336 -1.0021  1.2882 -2.2528
   58SAPC   H9Y 4396   0.326   3.009   9.381  0.5770 -0.0860 -1.0424
   58SAPC  C310 4397   0.299   3.114   9.204 -0.1287  0.6066 -0.4826
   58SAPC  H10X 4398   0.228   3.192   9.168 -0.1668  0.9283  0.2736
   58SAPC  H10Y 4399   0.285   3.016   9.153  4.0341 -0.6789  0.4744
   58SAPC  C311 4400   0.445   3.153   9.189 -0.7755  0.2860 -0.0853
   58SAPC  H11X 4401   0.512   3.081   9.241  0.1324  1.5108  0.4829
   58SAPC  H11Y 4402   0.461   3.245   9.249 -3.5490  1.2312 -0.6600
   58SAPC  C312 4403   0.486   3.196   9.052 -0.6552  0.0583 -0.2782
   58SAPC  H12X 4404   0.566   3.272   9.064  1.8151 -1.5733 -4.2240
   58SAPC  H12Y 4405   0.390   3.236   9.013 -1.2839 -2.8410 -2.0584
   58SAPC  C313 4406   0.554   3.094   8.966  0.2040 -0.4479  0.6720
   58SAPC  H13X 4407   0.473   3.021   8.945 -2.9401  1.9630  3.4067
   58SAPC  H13Y 4408   0.626   3.031   9.024  0.6506 -1.3997 -0.8546
   58SAPC  C314 4409   0.604   3.159   8.835  0.0220 -0.4649  0.0406
   58SAPC  H14X 4410   0.677   3.084   8.797  1.0833 -0.2708  1.6329
   58SAPC  H14Y 4411   0.649   3.255   8.867 -0.2332 -0.2844 -0.1398
   58SAPC  C315 4412   0.488   3.196   8.743 -0.3799  0.3145  0.1450
   58SAPC  H15X 4413   0.407   3.253   8.795 -1.9986  1.3664 -3.2640
   58SAPC  H15Y 4414   0.444   3.103   8.704 -1.4519  0.2031  1.5081
   58SAPC  C316 4415   0.542   3.268   8.620  0.6962  0.2585  0.0775
   58SAPC  H16X 4416   0.574   3.187   8.551 -0.7355  0.5295 -0.9468
   58SAPC  H16Y 4417   0.626   3.330   8.659 -0.6001  1.8136  0.5029
   58SAPC  C317 4418   0.439   3.356   8.552  0.5517 -0.6660  0.4597
   58SAPC  H17X 4419   0.482   3.406   8.462  0.2779 -0.8812  0.2105
   58SAPC  H17Y 4420   0.406   3.438   8.620  0.2853  0.3904 -0.8910
   58SAPC  C318 4421   0.323   3.265   8.519  0.2222 -0.0600 -0.1692
   58SAPC  H18X 4422   0.272   3.224   8.608  1.2514  1.1968  1.0505
   58SAPC  H18Y 4423   0.362   3.182   8.456 -1.3046 -0.3047 -0.8259
   58SAPC  H18Z 4424   0.251   3.318   8.453 -1.2214 -2.0228 -0.2584
   59SAPC     N 4425   1.375   4.482  11.192  0.0875  0.5556  0.0043
   59SAPC   C12 4426   1.498   4.425  11.114  0.0138 -0.9126  0.4057
   59SAPC  H12A 4427   1.592   4.471  11.142 -1.1073  2.6739 -1.2004
   59SAPC  H12B 4428   1.483   4.443  11.008 -1.2017 -2.5499  0.2702
   59SAPC   C13 4429   1.253   4.401  11.158  0.1381  0.4284 -0.3722
   59SAPC  H13A 4430   1.170   4.437  11.217 -0.9565 -1.3969 -0.7057
   59SAPC  H13B 4431   1.226   4.383  11.055 -3.7107 -1.2999  0.7567
   59SAPC  H13C 4432   1.269   4.301  11.196  0.8774  1.1502  1.2901
   59SAPC   C14 4433   1.400   4.458  11.332 -1.1977 -0.2708  0.3695
   59SAPC  H14A 4434   1.315   4.487  11.392  0.2762  0.1225  2.3689
   59SAPC  H14B 4435   1.397   4.351  11.347 -2.9336 -0.2948  0.0283
   59SAPC  H14C 4436   1.491   4.501  11.372 -1.4970 -0.7305  1.6009
   59SAPC   C15 4437   1.366   4.630  11.165  0.4271  0.1426  0.4509
   59SAPC  H15A 4438   1.283   4.669  11.223 -0.4940 -1.3834  0.2211
   59SAPC  H15B 4439   1.458   4.674  11.199  0.8025 -0.0691 -0.2803
   59SAPC  H15C 4440   1.356   4.649  11.059  0.5809 -2.0207 -0.0044
   59SAPC   C11 4441   1.525   4.265  11.122  0.8095 -0.9091  0.0114
   59SAPC  H11A 4442   1.509   4.229  11.226 -0.8600 -0.7676 -0.1678
   59SAPC  H11B 4443   1.629   4.238  11.092  0.2789 -2.7174 -0.2762
   59SAPC     P 4444   1.479   4.176  10.884 -0.3108  0.2861  0.5057
   59SAPC   O13 4445   1.608   4.105  10.895 -0.2012 -0.1248  0.0759
   59SAPC   O14 4446   1.370   4.112  10.800  0.2949  0.7682 -0.1615
   59SAPC   O12 4447   1.430   4.203  11.035  0.3115 -0.0502  0.3527
   59SAPC   O11 4448   1.501   4.319  10.834 -0.1518 -0.1489  0.8970
   59SAPC    C1 4449   1.397   4.407  10.785  0.0581  0.3185 -0.1729
   59SAPC    HA 4450   1.302   4.381  10.837  0.7039 -0.4689  0.6544
   59SAPC    HB 4451   1.437   4.503  10.824  2.0148 -0.2115 -0.8214
   59SAPC    C2 4452   1.392   4.419  10.632  0.3822  0.7513  0.2518
   59SAPC    HS 4453   1.360   4.324  10.584  2.8225  0.7812 -1.6695
   59SAPC   O21 4454   1.523   4.461  10.582  0.2636 -0.2452  0.4187
   59SAPC   C21 4455   1.591   4.354  10.527 -0.4552  0.1043 -0.1726
   59SAPC   O22 4456   1.554   4.240  10.521 -0.1457  0.0071  0.9914
   59SAPC   C22 4457   1.730   4.397  10.487 -0.5699 -0.1914  0.2986
   59SAPC   H2R 4458   1.803   4.407  10.570  0.5738  2.9343 -0.9201
   59SAPC   H2S 4459   1.767   4.339  10.400 -1.2986  1.6821 -1.3518
   59SAPC    C3 4460   1.283   4.528  10.607 -0.4985  0.4775 -0.1476
   59SAPC    HX 4461   1.317   4.605  10.680 -0.3997  0.7410 -0.4695
   59SAPC    HY 4462   1.184   4.488  10.636 -0.5384 -0.1790 -1.1488
   59SAPC   O31 4463   1.280   4.592  10.479 -0.6986 -0.4768 -0.5240
   59SAPC   C31 4464   1.253   4.519  10.381 -0.0768 -0.1924 -0.3389
   59SAPC   O32 4465   1.212   4.404  10.376  0.0789 -0.1063 -0.1644
   59SAPC   C32 4466   1.291   4.604  10.263 -0.1244 -0.4073 -0.4501
   59SAPC   H2X 4467   1.366   4.683  10.286  0.6281 -0.7821 -1.5481
   59SAPC   H2Y 4468   1.204   4.666  10.231  0.1355 -0.1361 -0.6396
   59SAPC   C23 4469   1.720   4.540  10.421 -0.1661 -0.2571  0.2402
   59SAPC   H3R 4470   1.716   4.623  10.495 -1.5008 -0.2362  0.1672
   59SAPC   H3S 4471   1.635   4.531  10.350  1.3106  0.3744 -1.6921
   59SAPC   C24 4472   1.840   4.559  10.322 -0.4941  0.5906 -0.1838
   59SAPC   H4R 4473   1.834   4.663  10.282  2.0170  0.5748 -0.7876
   59SAPC   H4S 4474   1.812   4.494  10.236  1.2560  0.5931 -0.7986
   59SAPC   C25 4475   1.976   4.534  10.379 -0.2269 -0.4415 -0.0466
   59SAPC   H5R 4476   1.996   4.584  10.475  5.0336  0.4675 -1.3180
   59SAPC   C26 4477   2.072   4.456  10.322  0.0936  1.3126  0.1216
   59SAPC   H6R 4478   2.164   4.449  10.381 -0.5680  1.2849  1.1817
   59SAPC   C27 4479   2.062   4.370  10.197 -0.0403  0.5063  0.0398
   59SAPC   H7R 4480   1.967   4.386  10.141 -0.1448 -0.5575 -0.1038
   59SAPC   H7S 4481   2.066   4.261  10.218  0.5801  0.7612  1.3505
   59SAPC   C28 4482   2.177   4.401  10.111  0.0691 -0.3252 -1.2237
   59SAPC   H8R 4483   2.244   4.478  10.152 -2.3311  1.2403  0.0622
   59SAPC   C29 4484   2.200   4.370   9.980  0.0292  0.1373 -0.4907
   59SAPC   H9R 4485   2.284   4.410   9.920  0.0244 -0.1608 -0.7025
   59SAPC  C210 4486   2.110   4.288   9.891  0.0023 -0.4154 -0.2190
   59SAPC  H10R 4487   2.071   4.344   9.804 -1.5708 -1.0233  0.0491
   59SAPC  H10S 4488   2.029   4.253   9.959  0.2413 -0.6489 -0.0524
   59SAPC  C211 4489   2.175   4.162   9.847  0.6022  0.2904  0.4729
   59SAPC  H11R 4490   2.159   4.088   9.927  0.3281  0.2739  0.4031
   59SAPC  C212 4491   2.219   4.125   9.719 -0.6801 -0.4546 -0.1548
   59SAPC  H12R 4492   2.269   4.028   9.706 -0.2919 -0.3169  0.2897
   59SAPC  C213 4493   2.209   4.218   9.607  0.8533 -0.8834 -0.2856
   59SAPC  H13R 4494   2.244   4.320   9.633 -1.0823 -0.0553 -0.7226
   59SAPC  H13S 4495   2.101   4.226   9.582  0.4890 -2.9085  0.4110
   59SAPC  C214 4496   2.288   4.168   9.489  0.5046 -0.6791  0.1537
   59SAPC  H14R 4497   2.347   4.077   9.506  1.0942 -0.1211  1.2081
   59SAPC  C215 4498   2.279   4.222   9.364  0.0657 -0.4652  0.4399
   59SAPC  H15R 4499   2.349   4.189   9.287  0.1334 -0.6425  0.5762
   59SAPC  C216 4500   2.190   4.325   9.318 -0.3052  0.0021 -0.1376
   59SAPC  H16R 4501   2.240   4.417   9.282  1.0594 -1.3422 -1.8512
   59SAPC  H16S 4502   2.111   4.348   9.393 -0.7021 -1.6360 -0.0145
   59SAPC  C217 4503   2.112   4.260   9.199  0.9184  0.0249  0.4963
   59SAPC  H17R 4504   2.009   4.301   9.207  0.7744 -0.0192 -0.8753
   59SAPC  H17S 4505   2.097   4.150   9.204 -0.4373  0.2226  1.0607
   59SAPC  C218 4506   2.180   4.306   9.067 -0.4396 -0.1998 -0.3296
   59SAPC  H18R 4507   2.290   4.296   9.071 -0.3343  0.6869 -0.7944
   59SAPC  H18S 4508   2.158   4.415   9.054 -0.5884 -0.5387 -4.4678
   59SAPC  C219 4509   2.124   4.247   8.941 -0.0467  0.1574 -0.3233
   59SAPC  H19R 4510   2.155   4.143   8.920  1.1159  0.5272 -0.4860
   59SAPC  H19S 4511   2.169   4.301   8.856 -0.5466  1.2856  0.1038
   59SAPC  C220 4512   1.972   4.259   8.926  0.1723 -0.4389 -0.2371
   59SAPC  H20R 4513   1.920   4.172   8.973 -0.6187  1.0280  1.7702
   59SAPC  H20S 4514   1.954   4.252   8.817  4.0964  0.6221 -1.0971
   59SAPC  H20T 4515   1.936   4.354   8.972  2.4363  1.1424 -1.5445
   59SAPC   C33 4516   1.346   4.529  10.142 -0.5203 -0.2284  0.5907
   59SAPC   H3X 4517   1.284   4.440  10.118 -0.5382 -0.3716  1.1685
   59SAPC   H3Y 4518   1.452   4.502  10.162  0.5166  2.0520 -1.3610
   59SAPC   C34 4519   1.358   4.615  10.018 -0.4539 -0.1018  0.0252
   59SAPC   H4X 4520   1.425   4.695  10.055  0.3607 -0.6153 -0.3159
   59SAPC   H4Y 4521   1.264   4.670   9.995  1.1402  3.6121  1.6219
   59SAPC   C35 4522   1.417   4.556   9.884  0.4042 -0.1705  0.2977
   59SAPC   H5X 4523   1.422   4.447   9.905 -0.9580 -0.2397  0.3469
   59SAPC   H5Y 4524   1.520   4.596   9.869 -0.3376  1.4351 -0.7615
   59SAPC   C36 4525   1.332   4.579   9.765  0.4093 -0.1025 -0.4710
   59SAPC   H6X 4526   1.336   4.688   9.744 -3.2413  0.2875  0.2446
   59SAPC   H6Y 4527   1.226   4.553   9.785  0.2004  1.2045  0.2639
   59SAPC   C37 4528   1.392   4.513   9.645  0.0373 -0.6420  0.4449
   59SAPC   H7X 4529   1.415   4.405   9.658  0.6450 -0.7311 -1.1120
   59SAPC   H7Y 4530   1.485   4.571   9.627 -0.6548  1.0315  1.9789
   59SAPC   C38 4531   1.308   4.538   9.515 -0.4169  0.0763  0.1751
   59SAPC   H8X 4532   1.371   4.532   9.424 -1.5030  2.8170 -0.8634
   59SAPC   H8Y 4533   1.262   4.639   9.522 -0.2105  0.0964  1.6282
   59SAPC   C39 4534   1.184   4.445   9.513  0.5202  0.0682  0.2305
   59SAPC   H9X 4535   1.122   4.454   9.605  0.7523 -1.0218  0.5090
   59SAPC   H9Y 4536   1.207   4.338   9.529  0.5447 -0.3201 -2.0766
   59SAPC  C310 4537   1.093   4.471   9.394 -0.2238  0.0343  0.9107
   59SAPC  H10X 4538   1.094   4.582   9.392 -0.7312  0.0610  1.8135
   59SAPC  H10Y 4539   0.987   4.442   9.411 -0.9417  0.7250 -1.8716
   59SAPC  C311 4540   1.147   4.412   9.263 -0.4201  0.3269 -0.1907
   59SAPC  H11X 4541   1.106   4.309   9.255  0.1401  0.0506  0.4473
   59SAPC  H11Y 4542   1.258   4.417   9.260 -0.4116  0.1940 -2.8863
   59SAPC  C312 4543   1.099   4.486   9.139  0.2123  0.4136  0.1596
   59SAPC  H12X 4544   1.140   4.589   9.149 -2.2441  1.4179  0.8427
   59SAPC  H12Y 4545   0.988   4.489   9.133  0.2492 -0.3836 -1.6165
   59SAPC  C313 4546   1.143   4.408   9.011 -0.0743 -0.2660  0.5475
   59SAPC  H13X 4547   1.073   4.330   8.977 -1.1299  0.2026  1.5746
   59SAPC  H13Y 4548   1.241   4.356   9.024  0.0581  0.5249  3.6781
   59SAPC  C314 4549   1.151   4.524   8.906  0.3151  0.0570 -1.2522
   59SAPC  H14X 4550   1.239   4.588   8.929  0.7724 -0.1366 -2.3855
   59SAPC  H14Y 4551   1.051   4.573   8.906 -1.1715 -2.5898  1.5952
   59SAPC  C315 4552   1.178   4.464   8.770 -0.1773  0.0519  0.4058
   59SAPC  H15X 4553   1.107   4.379   8.759 -2.1006  1.3596  2.1534
   59SAPC  H15Y 4554   1.281   4.423   8.754 -1.4272 -2.3778 -2.4486
   59SAPC  C316 4555   1.146   4.560   8.646 -0.3182  0.1822  0.3730
   59SAPC  H16X 4556   1.218   4.645   8.642 -0.8248  0.6327  0.7180
   59SAPC  H16Y 4557   1.043   4.597   8.664  0.2301  1.1190  1.8193
   59SAPC  C317 4558   1.165   4.475   8.521 -0.0118  0.2590  0.3875
   59SAPC  H17X 4559   1.241   4.396   8.540  0.2839 -0.2935 -2.5435
   59SAPC  H17Y 4560   1.206   4.532   8.435  2.3958 -0.5363  0.9299
   59SAPC  C318 4561   1.036   4.412   8.468  0.3122 -0.3015 -0.8029
   59SAPC  H18X 4562   0.961   4.495   8.465  1.6275  1.0291  0.7526
   59SAPC  H18Y 4563   0.985   4.341   8.537 -0.3420  2.2865  1.6199
   59SAPC  H18Z 4564   1.060   4.367   8.370  2.3239 -0.5341 -0.2336
   60SAPC     N 4565   1.544   1.909  11.014  0.7358 -0.1000  0.1668
   60SAPC   C12 4566   1.461   1.882  10.889 -0.4830  0.3781 -0.1833
   60SAPC  H12A 4567   1.399   1.970  10.877  0.4432  1.1265  0.3458
   60SAPC  H12B 4568   1.394   1.799  10.902 -1.3986  1.0090 -0.8025
   60SAPC   C13 4569   1.618   2.036  10.993 -0.6410 -0.0306  0.0998
   60SAPC  H13A 4570   1.560   2.112  10.944  1.4402  0.7527 -1.3043
   60SAPC  H13B 4571   1.660   2.077  11.084  0.4794 -0.9235  0.0048
   60SAPC  H13C 4572   1.705   2.023  10.930  0.7450  2.8340  1.2385
   60SAPC   C14 4573   1.457   1.931  11.135  0.0905  0.3742 -0.3042
   60SAPC  H14A 4574   1.521   1.962  11.216 -0.7173  1.2805  0.0061
   60SAPC  H14B 4575   1.386   2.011  11.120 -1.1627 -0.9662 -1.9364
   60SAPC  H14C 4576   1.397   1.843  11.154 -0.3209  0.3496 -1.6097
   60SAPC   C15 4577   1.647   1.804  11.052  0.2289 -0.8369 -0.1092
   60SAPC  H15A 4578   1.724   1.849  11.113 -1.9825  2.6778  0.3895
   60SAPC  H15B 4579   1.595   1.721  11.097 -0.1081 -1.3329 -1.3638
   60SAPC  H15C 4580   1.693   1.767  10.962  0.0146 -0.6956 -0.2818
   60SAPC   C11 4581   1.540   1.852  10.761 -0.1319 -0.1065 -0.2861
   60SAPC  H11A 4582   1.619   1.927  10.739 -1.0101  0.9508  0.0445
   60SAPC  H11B 4583   1.472   1.852  10.673  2.3535  1.8109 -2.3345
   60SAPC     P 4584   1.527   1.588  10.746  0.1618  0.0970 -0.2050
   60SAPC   O13 4585   1.623   1.486  10.785  0.1121  0.1819 -0.3238
   60SAPC   O14 4586   1.396   1.596  10.819 -0.0746 -0.0344 -0.3821
   60SAPC   O12 4587   1.603   1.724  10.767 -0.5617 -0.1903  0.2824
   60SAPC   O11 4588   1.502   1.587  10.596 -0.2758  0.4881 -0.0298
   60SAPC    C1 4589   1.598   1.631  10.498  0.0109  0.8488 -0.0634
   60SAPC    HA 4590   1.576   1.735  10.466  1.0354  1.2627  0.5369
   60SAPC    HB 4591   1.705   1.625  10.528  0.0902  1.6665 -0.1571
   60SAPC    C2 4592   1.594   1.542  10.370  0.7759 -0.2892 -0.5480
   60SAPC    HS 4593   1.697   1.560  10.331  0.9427 -0.1153 -0.0260
   60SAPC   O21 4594   1.490   1.601  10.293 -0.3446  0.0627 -0.0635
   60SAPC   C21 4595   1.519   1.687  10.203  0.6935 -0.3752  0.6442
   60SAPC   O22 4596   1.627   1.729  10.176 -0.7144  0.1029 -0.5349
   60SAPC   C22 4597   1.391   1.714  10.130 -0.5862 -0.2010  0.5998
   60SAPC   H2R 4598   1.308   1.726  10.202 -1.4956  0.2976 -0.4918
   60SAPC   H2S 4599   1.403   1.803  10.065 -2.8197  0.3980  0.9188
   60SAPC    C3 4600   1.557   1.393  10.396 -0.4637 -0.6517  0.9986
   60SAPC    HX 4601   1.452   1.393  10.432 -1.2798 -0.3697 -1.2039
   60SAPC    HY 4602   1.630   1.349  10.467  2.5053  0.9260 -0.8812
   60SAPC   O31 4603   1.552   1.314  10.270  0.1695 -0.2285 -0.5053
   60SAPC   C31 4604   1.660   1.269  10.224  0.3902  0.2939  0.4633
   60SAPC   O32 4605   1.767   1.282  10.271 -0.3316  0.5402  0.0210
   60SAPC   C32 4606   1.639   1.199  10.083 -0.1032 -0.4918  0.7921
   60SAPC   H2X 4607   1.571   1.269  10.029 -0.1437 -1.0278  0.1401
   60SAPC   H2Y 4608   1.575   1.109  10.093 -3.8779  2.0087  0.9626
   60SAPC   C23 4609   1.369   1.587  10.036 -0.7441 -0.2100  0.0810
   60SAPC   H3R 4610   1.272   1.600   9.984 -2.9061 -2.4165  3.2328
   60SAPC   H3S 4611   1.366   1.490  10.090  0.7752 -0.1547  0.3151
   60SAPC   C24 4612   1.479   1.572   9.927 -0.6150 -0.2182  0.1494
   60SAPC   H4R 4613   1.570   1.546   9.985 -0.9649 -1.2752  0.2589
   60SAPC   H4S 4614   1.504   1.674   9.891 -1.0944  0.0530  0.5760
   60SAPC   C25 4615   1.462   1.469   9.813  0.4440 -0.6939  0.1770
   60SAPC   H5R 4616   1.525   1.380   9.820  2.8901  0.9526  0.3820
   60SAPC   C26 4617   1.371   1.486   9.715  0.2751 -0.4635 -0.2590
   60SAPC   H6R 4618   1.367   1.404   9.642 -0.0560 -1.5593  0.9404
   60SAPC   C27 4619   1.280   1.605   9.694 -0.0761 -0.0560  0.3217
   60SAPC   H7R 4620   1.250   1.646   9.793 -0.2757 -0.3718  0.3950
   60SAPC   H7S 4621   1.181   1.586   9.647  0.2465 -0.2620 -0.2759
   60SAPC   C28 4622   1.362   1.714   9.616 -0.0565 -0.0143 -1.0103
   60SAPC   H8R 4623   1.410   1.783   9.687 -1.3166 -0.8549  0.7256
   60SAPC   C29 4624   1.367   1.736   9.488  0.0838 -0.3370  0.3997
   60SAPC   H9R 4625   1.437   1.814   9.452  0.6983 -0.6992  0.7832
   60SAPC  C210 4626   1.309   1.664   9.373  0.4866 -0.2942  0.1449
   60SAPC  H10R 4627   1.226   1.724   9.329  1.0211  1.8569  1.8710
   60SAPC  H10S 4628   1.262   1.568   9.403 -0.3311 -0.2848 -1.0434
   60SAPC  C211 4629   1.421   1.632   9.279  0.4654  0.1388  0.8351
   60SAPC  H11R 4630   1.440   1.696   9.192 -1.5255 -1.1309 -0.6176
   60SAPC  C212 4631   1.502   1.523   9.291 -0.6713  0.0178  0.2377
   60SAPC  H12R 4632   1.578   1.500   9.214 -0.5991  0.1475  0.2705
   60SAPC  C213 4633   1.491   1.412   9.396 -0.1747 -0.7911  0.3581
   60SAPC  H13R 4634   1.391   1.362   9.394 -0.2640 -0.6175  0.4380
   60SAPC  H13S 4635   1.505   1.467   9.491 -0.2993  0.4674 -0.3280
   60SAPC  C214 4636   1.588   1.295   9.382  0.1426  0.0904 -0.0194
   60SAPC  H14R 4637   1.679   1.318   9.324  1.0587 -1.2286  0.8366
   60SAPC  C215 4638   1.586   1.175   9.444  0.4811  0.5883  0.2083
   60SAPC  H15R 4639   1.641   1.092   9.399  1.8639 -0.2669  3.1916
   60SAPC  C216 4640   1.476   1.140   9.536  0.6577  0.0057  0.5180
   60SAPC  H16R 4641   1.379   1.148   9.482  1.0594  1.8663 -0.0070
   60SAPC  H16S 4642   1.466   1.211   9.621 -1.0145  0.2077  0.1878
   60SAPC  C217 4643   1.493   1.000   9.595  0.4756 -0.8284 -0.2320
   60SAPC  H17R 4644   1.596   0.986   9.634 -1.0213  0.3850  5.0149
   60SAPC  H17S 4645   1.461   0.924   9.521 -1.4331 -0.9356  0.6429
   60SAPC  C218 4646   1.390   0.990   9.712 -0.4565  0.6218 -0.4624
   60SAPC  H18R 4647   1.284   0.999   9.679 -0.7006 -0.1326  0.1139
   60SAPC  H18S 4648   1.423   1.075   9.776  1.5756  1.1874 -2.1304
   60SAPC  C219 4649   1.414   0.865   9.786  0.7515  0.0366  0.0382
   60SAPC  H19R 4650   1.519   0.831   9.773  0.6807 -0.0793 -0.2319
   60SAPC  H19S 4651   1.346   0.789   9.743  0.3184  0.3224  0.2095
   60SAPC  C220 4652   1.375   0.877   9.934 -0.0297  0.1511  0.6925
   60SAPC  H20R 4653   1.427   0.959   9.987  0.2297  0.3176  0.1861
   60SAPC  H20S 4654   1.385   0.777   9.982  2.1758  0.4405  0.9311
   60SAPC  H20T 4655   1.265   0.891   9.944 -0.2649 -1.7214  1.1080
   60SAPC   C33 4656   1.772   1.188  10.004  0.3859 -0.4498 -0.0990
   60SAPC   H3X 4657   1.839   1.111  10.045  2.1021 -0.6340 -2.9503
   60SAPC   H3Y 4658   1.813   1.292  10.002 -0.6437  0.0515 -3.8897
   60SAPC   C34 4659   1.763   1.148   9.857  0.2266 -0.2772 -0.4147
   60SAPC   H4X 4660   1.693   1.220   9.811  0.9862  1.3209  0.8213
   60SAPC   H4Y 4661   1.720   1.046   9.849  0.7274 -0.5514  0.2891
   60SAPC   C35 4662   1.907   1.151   9.802 -0.4037 -0.2249  0.3917
   60SAPC   H5X 4663   1.959   1.069   9.855 -2.7076 -0.6032  2.2348
   60SAPC   H5Y 4664   1.957   1.245   9.835 -0.7062  0.4875 -1.0922
   60SAPC   C36 4665   1.906   1.136   9.644  0.9253 -0.3841 -0.0551
   60SAPC   H6X 4666   1.884   1.232   9.593  0.5614 -1.4638 -2.0257
   60SAPC   H6Y 4667   1.835   1.057   9.612  1.0643 -0.8241  0.6870
   60SAPC   C37 4668   2.042   1.095   9.599 -0.9821  0.2246  0.0636
   60SAPC   H7X 4669   2.055   1.002   9.658  2.7524  0.4882 -0.1079
   60SAPC   H7Y 4670   2.117   1.172   9.626  0.7634 -1.2973 -0.2117
   60SAPC   C38 4671   2.046   1.063   9.446 -0.2387 -0.2384  0.6374
   60SAPC   H8X 4672   2.039   1.160   9.393  0.2055 -1.1742 -1.2125
   60SAPC   H8Y 4673   1.954   1.009   9.415 -1.1197  1.0975  0.8624
   60SAPC   C39 4674   2.178   0.995   9.403  0.2714 -0.0949 -0.2381
   60SAPC   H9X 4675   2.169   0.884   9.409  1.6180 -0.2176 -0.2667
   60SAPC   H9Y 4676   2.256   1.023   9.476 -2.7611  1.7261  2.5368
   60SAPC  C310 4677   2.217   1.023   9.259 -0.2076 -0.6490 -0.0350
   60SAPC  H10X 4678   2.310   0.967   9.235 -1.6252 -2.0970 -2.5471
   60SAPC  H10Y 4679   2.219   1.134   9.260 -3.1927 -0.5172  0.4438
   60SAPC  C311 4680   2.106   0.989   9.155 -0.2276 -0.4039  0.2964
   60SAPC  H11X 4681   2.018   1.056   9.169  0.5946  0.2443  2.8408
   60SAPC  H11Y 4682   2.075   0.886   9.183  4.3144 -1.5113  2.0045
   60SAPC  C312 4683   2.148   1.001   9.008 -0.0127  0.0183  0.0936
   60SAPC  H12X 4684   2.220   0.918   8.991 -1.0649 -1.6224  2.9751
   60SAPC  H12Y 4685   2.198   1.100   8.994  2.3749 -1.4203 -2.7192
   60SAPC  C313 4686   2.023   0.977   8.921 -0.8138 -0.4688 -0.4680
   60SAPC  H13X 4687   2.038   1.011   8.816  0.4347 -0.2595 -0.2326
   60SAPC  H13Y 4688   1.949   1.054   8.951  1.0460  1.1483  0.1426
   60SAPC  C314 4689   1.975   0.829   8.920  0.0876  0.0037  0.8926
   60SAPC  H14X 4690   1.940   0.792   9.019  1.8515  0.5460  1.7573
   60SAPC  H14Y 4691   2.068   0.771   8.903 -0.5777 -0.6774 -0.6745
   60SAPC  C315 4692   1.879   0.791   8.808  0.4202 -0.3024 -0.2279
   60SAPC  H15X 4693   1.790   0.859   8.805 -0.2759 -1.1695  0.1845
   60SAPC  H15Y 4694   1.844   0.687   8.828  1.5358 -0.6259  0.0851
   60SAPC  C316 4695   1.945   0.790   8.666  0.3105 -0.7357 -0.8539
   60SAPC  H16X 4696   2.043   0.739   8.680  0.5248 -0.9805 -2.9092
   60SAPC  H16Y 4697   1.977   0.893   8.639 -2.4488  0.6234  0.6214
   60SAPC  C317 4698   1.856   0.743   8.547 -0.1615 -0.5927 -0.1346
   60SAPC  H17X 4699   1.855   0.632   8.555 -1.0875 -0.5523  0.3986
   60SAPC  H17Y 4700   1.910   0.779   8.457  0.7752  0.0615  0.6677
   60SAPC  C318 4701   1.716   0.799   8.535 -0.2475  0.1541  0.5301
   60SAPC  H18X 4702   1.659   0.779   8.627  1.0078  0.5738  1.4347
   60SAPC  H18Y 4703   1.669   0.765   8.440  1.4997  0.4376 -0.4946
   60SAPC  H18Z 4704   1.723   0.910   8.545 -1.7334  0.1885  1.3212
   61SAPC     N 4705   3.881   2.543  11.178 -0.1985  0.1374  0.1457
   61SAPC   C12 4706   3.934   2.445  11.077  0.0965  0.2712  0.2306
   61SAPC  H12A 4707   3.961   2.354  11.128 -0.7165  0.0567  0.2928
   61SAPC  H12B 4708   4.021   2.490  11.030  0.3174 -0.6043 -0.2149
   61SAPC   C13 4709   3.980   2.562  11.288 -0.5531  0.7615 -0.2087
   61SAPC  H13A 4710   3.986   2.471  11.345 -0.4644  1.3124  0.6742
   61SAPC  H13B 4711   4.079   2.574  11.246 -0.2401 -3.1549 -0.9073
   61SAPC  H13C 4712   3.944   2.638  11.356 -0.8347  0.5212 -0.0848
   61SAPC   C14 4713   3.847   2.677  11.125 -0.6665  0.2742 -0.6385
   61SAPC  H14A 4714   3.776   2.674  11.044 -1.3197 -0.6856 -0.0536
   61SAPC  H14B 4715   3.806   2.740  11.203  0.2404  0.6060 -0.4242
   61SAPC  H14C 4716   3.933   2.727  11.084  0.3216 -1.0469 -0.2197
   61SAPC   C15 4717   3.747   2.503  11.238  0.7708  0.1133  0.0768
   61SAPC  H15A 4718   3.694   2.585  11.284  0.2769 -0.0603 -0.1792
   61SAPC  H15B 4719   3.677   2.469  11.163  1.6177  1.1878 -1.2383
   61SAPC  H15C 4720   3.750   2.424  11.311 -2.4459  0.0796  0.3160
   61SAPC   C11 4721   3.841   2.402  10.959  0.3904  0.0332 -0.7146
   61SAPC  H11A 4722   3.879   2.313  10.905  0.0221 -0.3121 -0.4052
   61SAPC  H11B 4723   3.845   2.485  10.885  1.7010 -0.3210 -1.0703
   61SAPC     P 4724   3.586   2.369  10.897  0.1213  0.1764 -0.2763
   61SAPC   O13 4725   3.568   2.229  10.861 -0.2284  0.3991 -0.2166
   61SAPC   O14 4726   3.467   2.425  10.964 -0.4912 -0.2650 -0.0637
   61SAPC   O12 4727   3.705   2.373  11.000 -0.2789 -0.4339  0.5541
   61SAPC   O11 4728   3.629   2.456  10.777  0.1083 -0.3443  0.2655
   61SAPC    C1 4729   3.536   2.511  10.686  0.4604 -0.4161 -0.3601
   61SAPC    HA 4730   3.446   2.556  10.732  1.6026  2.8501 -1.0546
   61SAPC    HB 4731   3.587   2.592  10.629  1.6837  0.4354  1.8031
   61SAPC    C2 4732   3.492   2.406  10.584 -0.3022  0.6290  0.7354
   61SAPC    HS 4733   3.463   2.315  10.640  3.4986 -2.0683 -1.2597
   61SAPC   O21 4734   3.605   2.381  10.502 -0.2549  0.3066  0.4785
   61SAPC   C21 4735   3.587   2.306  10.390 -0.2290  0.2428  0.4891
   61SAPC   O22 4736   3.496   2.217  10.387  0.1125 -0.1842 -0.1705
   61SAPC   C22 4737   3.696   2.327  10.284 -0.1697  0.0316  0.3619
   61SAPC   H2R 4738   3.794   2.348  10.333 -0.0806  3.0627 -0.9617
   61SAPC   H2S 4739   3.703   2.226  10.238  0.5268  0.2128  0.0552
   61SAPC    C3 4740   3.364   2.463  10.510  0.0951 -0.8235 -0.4075
   61SAPC    HX 4741   3.298   2.494  10.594  1.4153 -1.6746  1.0079
   61SAPC    HY 4742   3.311   2.378  10.460  0.9843 -0.3628 -2.2164
   61SAPC   O31 4743   3.399   2.557  10.408 -0.1380  0.1563  0.0631
   61SAPC   C31 4744   3.330   2.676  10.404  0.5453 -0.3534 -0.0791
   61SAPC   O32 4745   3.242   2.706  10.484  0.4855 -0.0478 -0.1292
   61SAPC   C32 4746   3.372   2.741  10.270 -0.1866 -0.4992  0.0922
   61SAPC   H2X 4747   3.362   2.664  10.191 -0.9771  0.0982 -0.4114
   61SAPC   H2Y 4748   3.479   2.769  10.279  0.1888 -1.8852  0.2085
   61SAPC   C23 4749   3.662   2.448  10.186 -0.5262 -0.2289 -0.1753
   61SAPC   H3R 4750   3.747   2.520  10.182  0.8397 -1.7725  0.1121
   61SAPC   H3S 4751   3.577   2.504  10.231  0.6907  1.2746  0.3246
   61SAPC   C24 4752   3.631   2.401  10.044  0.5948  0.8807 -0.3990
   61SAPC   H4R 4753   3.703   2.319  10.026  0.8518  1.6170 -3.1950
   61SAPC   H4S 4754   3.666   2.484   9.979  0.4329  0.1069 -1.4911
   61SAPC   C25 4755   3.490   2.360  10.017 -0.4317 -0.3640  0.5836
   61SAPC   H5R 4756   3.452   2.271  10.070 -1.1342 -1.7070 -1.9488
   61SAPC   C26 4757   3.426   2.398   9.910  1.7012 -0.2098  0.0601
   61SAPC   H6R 4758   3.321   2.366   9.903  2.2169 -1.8623 -0.7364
   61SAPC   C27 4759   3.467   2.483   9.796 -0.8258 -0.0237  0.5817
   61SAPC   H7R 4760   3.502   2.582   9.834 -1.4461  0.3162  0.2796
   61SAPC   H7S 4761   3.378   2.519   9.741  0.5756  1.6728 -0.7102
   61SAPC   C28 4762   3.586   2.442   9.704  0.0986 -0.6593  0.3725
   61SAPC   H8R 4763   3.657   2.372   9.752  2.5312  0.0545 -1.9018
   61SAPC   C29 4764   3.608   2.482   9.580  0.2493  0.4691 -0.2265
   61SAPC   H9R 4765   3.689   2.430   9.527  0.9509 -0.4275  1.6280
   61SAPC  C210 4766   3.522   2.579   9.501 -0.5974 -0.3616  0.4313
   61SAPC  H10R 4767   3.588   2.632   9.429  0.6507 -0.6643  1.3069
   61SAPC  H10S 4768   3.478   2.657   9.567  2.5653  4.3664 -2.4322
   61SAPC  C211 4769   3.414   2.507   9.428 -0.5352 -0.3838  0.1862
   61SAPC  H11R 4770   3.355   2.442   9.494  1.6719 -1.5984  1.0648
   61SAPC  C212 4771   3.388   2.501   9.295  0.1250 -0.2549 -0.7659
   61SAPC  H12R 4772   3.295   2.453   9.262 -0.1555  1.2790 -2.3379
   61SAPC  C213 4773   3.457   2.561   9.181  0.7698  1.1495  0.0615
   61SAPC  H13R 4774   3.532   2.635   9.218  2.1501  0.1379 -0.6391
   61SAPC  H13S 4775   3.376   2.612   9.124 -0.4170  1.3443  1.8301
   61SAPC  C214 4776   3.530   2.464   9.101  0.8012 -0.0850  0.3999
   61SAPC  H14R 4777   3.596   2.395   9.156  3.2011  2.2003  0.6046
   61SAPC  C215 4778   3.531   2.453   8.965 -0.4507  0.6696  0.1878
   61SAPC  H15R 4779   3.593   2.372   8.925  0.4465  0.1337  2.4846
   61SAPC  C216 4780   3.464   2.534   8.857 -0.3327 -0.1233 -0.3967
   61SAPC  H16R 4781   3.546   2.592   8.810  0.8877 -1.8754 -0.5493
   61SAPC  H16S 4782   3.388   2.601   8.904 -1.6787 -0.7417 -1.6139
   61SAPC  C217 4783   3.393   2.444   8.752  0.3937 -0.1968 -0.7190
   61SAPC  H17R 4784   3.312   2.382   8.798  0.6403  1.0017  1.4429
   61SAPC  H17S 4785   3.460   2.363   8.715 -0.6930 -0.7708 -1.5013
   61SAPC  C218 4786   3.338   2.513   8.632  0.5513 -0.1795  0.6282
   61SAPC  H18R 4787   3.284   2.439   8.570  1.4907 -2.4084  2.3351
   61SAPC  H18S 4788   3.410   2.582   8.581 -0.0316  0.3166  0.4674
   61SAPC  C219 4789   3.218   2.609   8.665  0.1550 -0.4613  0.1995
   61SAPC  H19R 4790   3.171   2.643   8.571 -0.2796  2.9545  1.5093
   61SAPC  H19S 4791   3.254   2.704   8.709 -3.4461  0.5623  1.2911
   61SAPC  C220 4792   3.120   2.547   8.770 -0.8046 -0.1959  0.0838
   61SAPC  H20R 4793   3.044   2.620   8.806  0.3578  0.9050  0.3892
   61SAPC  H20S 4794   3.170   2.521   8.865  0.8042 -0.4851 -0.8092
   61SAPC  H20T 4795   3.077   2.455   8.725 -1.7063  0.2024  0.1072
   61SAPC   C33 4796   3.279   2.863  10.236  0.0058  0.0587  0.4124
   61SAPC   H3X 4797   3.283   2.943  10.314 -0.9221 -0.5546  1.1065
   61SAPC   H3Y 4798   3.173   2.835  10.225  0.7186 -1.8722 -2.5142
   61SAPC   C34 4799   3.328   2.906  10.096  0.2921 -0.2682 -0.4203
   61SAPC   H4X 4800   3.290   2.831  10.023 -1.2862 -0.2841  0.3643
   61SAPC   H4Y 4801   3.437   2.918  10.080  0.2117 -0.3377 -1.0445
   61SAPC   C35 4802   3.265   3.040  10.054  0.7435 -0.6440  0.7305
   61SAPC   H5X 4803   3.286   3.119  10.130  3.1669 -1.3742  0.8907
   61SAPC   H5Y 4804   3.154   3.035  10.046  0.3621  2.5598  2.2735
   61SAPC   C36 4805   3.329   3.084   9.920 -0.1897  0.4626  0.0061
   61SAPC   H6X 4806   3.437   3.107   9.921 -0.0312 -0.2148 -0.6507
   61SAPC   H6Y 4807   3.277   3.174   9.880 -0.0840  0.6941  0.3848
   61SAPC   C37 4808   3.317   2.983   9.801 -0.8719  0.6442 -0.0602
   61SAPC   H7X 4809   3.212   2.947   9.795 -1.5750  2.3853  1.1298
   61SAPC   H7Y 4810   3.395   2.905   9.819  0.2767  2.4524  4.0154
   61SAPC   C38 4811   3.344   3.057   9.672  0.4060  0.4455 -0.0511
   61SAPC   H8X 4812   3.441   3.111   9.677  0.0470  1.0672  0.4291
   61SAPC   H8Y 4813   3.266   3.135   9.654 -2.7323 -2.6734 -1.0238
   61SAPC   C39 4814   3.343   2.961   9.544 -0.0988 -0.9246 -0.1348
   61SAPC   H9X 4815   3.264   2.887   9.571 -2.6340  0.8726 -2.0826
   61SAPC   H9Y 4816   3.438   2.904   9.547 -0.5867 -1.8114 -0.9785
   61SAPC  C310 4817   3.312   3.033   9.416 -0.6443  0.2356 -0.1672
   61SAPC  H10X 4818   3.380   3.121   9.419 -1.7105  1.0434  1.8596
   61SAPC  H10Y 4819   3.213   3.083   9.420 -0.5361  0.4650 -0.3864
   61SAPC  C311 4820   3.345   2.939   9.296  0.4370 -0.0257 -0.6250
   61SAPC  H11X 4821   3.285   2.846   9.304 -1.9699  1.3940 -1.0532
   61SAPC  H11Y 4822   3.451   2.908   9.305  0.2555 -0.3532  0.5869
   61SAPC  C312 4823   3.310   2.992   9.153  0.1756  0.0509  0.9997
   61SAPC  H12X 4824   3.361   3.088   9.132  0.9819 -0.8365 -1.3943
   61SAPC  H12Y 4825   3.201   3.012   9.155  0.6886  3.7009 -0.4918
   61SAPC  C313 4826   3.330   2.888   9.042 -0.0230 -0.1753  0.4324
   61SAPC  H13X 4827   3.296   2.785   9.067  0.4226  0.2718  3.2930
   61SAPC  H13Y 4828   3.440   2.895   9.033 -0.2020  1.5429 -0.8934
   61SAPC  C314 4829   3.299   2.936   8.902  0.3422 -0.0987  0.7195
   61SAPC  H14X 4830   3.326   2.859   8.826  0.1204  1.7151 -1.2885
   61SAPC  H14Y 4831   3.370   3.018   8.877  1.9939 -0.6119  3.3176
   61SAPC  C315 4832   3.151   2.995   8.890  0.1059  0.2925 -0.0028
   61SAPC  H15X 4833   3.144   3.076   8.966  0.4135 -0.5438  0.9481
   61SAPC  H15Y 4834   3.077   2.922   8.930 -2.0452  1.9566 -0.7704
   61SAPC  C316 4835   3.111   3.034   8.748 -0.1387 -0.3244  0.3347
   61SAPC  H16X 4836   3.122   2.948   8.680 -1.6567  1.1518 -1.9039
   61SAPC  H16Y 4837   3.181   3.112   8.710 -1.9105  0.3449 -1.7704
   61SAPC  C317 4838   2.970   3.080   8.732 -0.0509 -0.5792 -0.2030
   61SAPC  H17X 4839   2.958   3.158   8.811 -0.3463  2.0026 -2.6292
   61SAPC  H17Y 4840   2.899   2.997   8.749  0.9713 -1.5848 -0.7029
   61SAPC  C318 4841   2.945   3.149   8.593 -0.2285  0.5062 -1.0599
   61SAPC  H18X 4842   2.843   3.194   8.604 -1.1564 -1.6760 -0.2381
   61SAPC  H18Y 4843   2.939   3.063   8.523 -1.7878 -0.3689  0.1055
   61SAPC  H18Z 4844   3.029   3.211   8.554  0.4753  1.4275  1.7292
   62SAPC     N 4845   3.377   1.900  10.727  0.4129 -0.3831 -0.0530
   62SAPC   C12 4846   3.451   1.904  10.597 -0.2567  0.7642 -0.4580
   62SAPC  H12A 4847   3.390   1.965  10.532  0.2224  1.6188 -0.1277
   62SAPC  H12B 4848   3.462   1.807  10.550 -1.2167  0.7145 -0.5811
   62SAPC   C13 4849   3.367   2.037  10.787  0.0724 -0.3850 -0.3410
   62SAPC  H13A 4850   3.324   2.029  10.886 -0.6893  0.0997 -0.6242
   62SAPC  H13B 4851   3.465   2.081  10.798 -0.3023  0.0374  1.6681
   62SAPC  H13C 4852   3.314   2.099  10.717  0.1136  1.2412  1.0079
   62SAPC   C14 4853   3.234   1.856  10.703  0.2293 -0.6217  0.3650
   62SAPC  H14A 4854   3.165   1.880  10.783  0.4142  1.1988  0.0272
   62SAPC  H14B 4855   3.188   1.905  10.618 -0.5914  4.1331  3.1833
   62SAPC  H14C 4856   3.237   1.749  10.689 -0.5642 -0.6439  0.3184
   62SAPC   C15 4857   3.435   1.800  10.829 -0.5398 -0.6854 -0.2788
   62SAPC  H15A 4858   3.388   1.824  10.923  0.0094  0.1493 -0.2064
   62SAPC  H15B 4859   3.417   1.697  10.800  2.7546 -1.0423 -1.4411
   62SAPC  H15C 4860   3.542   1.806  10.843 -0.8148  1.4076  1.3377
   62SAPC   C11 4861   3.591   1.977  10.586 -0.2117 -0.1956  0.2549
   62SAPC  H11A 4862   3.572   2.080  10.624  0.1181  0.5341 -1.4606
   62SAPC  H11B 4863   3.628   1.984  10.481 -0.7469 -0.2625  0.0607
   62SAPC     P 4864   3.749   1.768  10.619  0.4107  0.0490 -0.0464
   62SAPC   O13 4865   3.734   1.698  10.752 -0.5307  0.2850  0.6084
   62SAPC   O14 4866   3.665   1.710  10.510 -0.6956 -0.1165 -0.3307
   62SAPC   O12 4867   3.699   1.918  10.647 -0.9006  0.3259  0.1397
   62SAPC   O11 4868   3.902   1.782  10.575  0.5360 -0.3027 -1.1183
   62SAPC    C1 4869   3.970   1.901  10.617  0.0084  0.0213 -0.7578
   62SAPC    HA 4870   3.914   1.994  10.594 -0.4936  0.0380  0.4569
   62SAPC    HB 4871   3.984   1.904  10.727  0.1181  0.5655 -0.7830
   62SAPC    C2 4872   4.113   1.913  10.564 -0.2501  0.1684 -0.4185
   62SAPC    HS 4873   4.161   2.008  10.593  4.0286 -2.3347  1.7056
   62SAPC   O21 4874   4.110   1.882  10.424 -0.2396  0.7154 -0.3076
   62SAPC   C21 4875   4.036   1.959  10.347  0.0907 -0.0721 -0.1684
   62SAPC   O22 4876   4.002   2.075  10.373 -0.5256  0.3616 -0.4524
   62SAPC   C22 4877   4.000   1.892  10.218  0.3529  0.2143 -1.0236
   62SAPC   H2R 4878   4.005   1.964  10.134  0.6235 -0.5600 -1.6855
   62SAPC   H2S 4879   4.076   1.812  10.199  0.4871  0.2946 -0.8294
   62SAPC    C3 4880   4.211   1.803  10.623  0.4222  0.4034 -0.8276
   62SAPC    HX 4881   4.171   1.704  10.594 -1.2455  0.7106  0.2591
   62SAPC    HY 4882   4.200   1.796  10.733  0.6876 -2.0367 -0.9132
   62SAPC   O31 4883   4.344   1.822  10.597 -0.0219 -0.2158 -0.6128
   62SAPC   C31 4884   4.405   1.732  10.526  0.2363 -0.3423  0.5392
   62SAPC   O32 4885   4.355   1.633  10.479  0.4731  0.2047 -0.2413
   62SAPC   C32 4886   4.546   1.787  10.485  0.0591  0.2142 -0.3740
   62SAPC   H2X 4887   4.606   1.708  10.435  0.6928 -0.2835  1.1089
   62SAPC   H2Y 4888   4.598   1.832  10.572 -0.6581  1.7681 -0.7040
   62SAPC   C23 4889   3.852   1.844  10.212 -1.0367 -0.5186 -0.2206
   62SAPC   H3R 4890   3.783   1.907  10.273  0.4300 -1.0070  2.0781
   62SAPC   H3S 4891   3.852   1.742  10.255  1.8927 -1.0560 -1.2516
   62SAPC   C24 4892   3.792   1.850  10.067 -0.3157  0.3084  0.7323
   62SAPC   H4R 4893   3.693   1.801  10.078  0.1301 -0.6209  0.7156
   62SAPC   H4S 4894   3.852   1.772  10.015 -2.5049 -2.0997  1.5972
   62SAPC   C25 4895   3.773   1.981   9.999  0.0421 -0.7540 -0.3570
   62SAPC   H5R 4896   3.682   2.029  10.035 -0.3612 -2.7031  1.4078
   62SAPC   C26 4897   3.844   2.039   9.896 -0.7968 -0.5117 -0.7385
   62SAPC   H6R 4898   3.828   2.145   9.873  2.0054  0.1976  0.1967
   62SAPC   C27 4899   3.968   1.991   9.825  0.9159  0.1304  0.6432
   62SAPC   H7R 4900   4.025   1.921   9.890 -0.4786  0.0577  1.8600
   62SAPC   H7S 4901   4.025   2.082   9.796  0.6812  0.8306  2.2743
   62SAPC   C28 4902   3.901   1.910   9.715 -0.0295  0.4600 -0.2568
   62SAPC   H8R 4903   3.827   1.834   9.745 -0.0599  0.8387  0.6566
   62SAPC   C29 4904   3.930   1.908   9.583 -0.5048 -0.8031  0.1811
   62SAPC   H9R 4905   3.885   1.824   9.528 -0.6641 -0.2115 -0.6051
   62SAPC  C210 4906   4.037   1.991   9.510  0.0967 -0.0200  0.2341
   62SAPC  H10R 4907   4.103   2.047   9.580  0.5087  0.4903 -0.5547
   62SAPC  H10S 4908   3.991   2.065   9.440  3.5670  1.9720 -0.1611
   62SAPC  C211 4909   4.126   1.896   9.432 -0.6517 -0.3716  0.0861
   62SAPC  H11R 4910   4.190   1.832   9.495  0.4495  1.4209  0.8421
   62SAPC  C212 4911   4.135   1.882   9.293 -0.0557  0.0714  0.7662
   62SAPC  H12R 4912   4.210   1.814   9.252 -0.0668  1.1064 -1.0670
   62SAPC  C213 4913   4.066   1.972   9.190 -0.4070 -0.0122  0.8742
   62SAPC  H13R 4914   4.021   2.058   9.243 -0.4063 -0.6172  1.8683
   62SAPC  H13S 4915   3.985   1.914   9.141 -1.8892  1.1447  1.8634
   62SAPC  C214 4916   4.170   2.028   9.089  0.0504  0.4234 -0.0357
   62SAPC  H14R 4917   4.231   2.117   9.110 -0.8097  0.9248  0.3982
   62SAPC  C215 4918   4.182   1.979   8.966 -0.4542 -0.0234  0.3237
   62SAPC  H15R 4919   4.249   2.024   8.891 -0.0673 -0.9798  0.0866
   62SAPC  C216 4920   4.106   1.864   8.906 -0.4581  0.1096 -0.2185
   62SAPC  H16R 4921   4.092   1.887   8.798  1.6426 -0.3269 -0.6249
   62SAPC  H16S 4922   4.001   1.853   8.939 -0.8899 -0.1791 -1.5906
   62SAPC  C217 4923   4.185   1.738   8.899 -0.4812 -0.4629 -0.1940
   62SAPC  H17R 4924   4.218   1.718   9.003 -0.2370 -1.8689 -0.5080
   62SAPC  H17S 4925   4.280   1.744   8.841 -0.4069 -2.2093 -0.3262
   62SAPC  C218 4926   4.094   1.622   8.855 -0.6102 -0.0614 -0.1228
   62SAPC  H18R 4927   4.057   1.644   8.753 -1.6193 -0.7455  0.0823
   62SAPC  H18S 4928   4.004   1.627   8.919 -0.5892 -1.1295  0.0034
   62SAPC  C219 4929   4.161   1.483   8.862 -0.0517  0.7400 -0.3810
   62SAPC  H19R 4930   4.268   1.493   8.832  0.5071 -0.3554  1.1383
   62SAPC  H19S 4931   4.118   1.404   8.797  1.4972 -0.7003  0.2557
   62SAPC  C220 4932   4.154   1.431   9.010  0.5078 -1.1462  0.5486
   62SAPC  H20R 4933   4.187   1.326   9.021  1.1864 -0.8218  1.8473
   62SAPC  H20S 4934   4.044   1.433   9.030  0.5267 -0.8521  0.6291
   62SAPC  H20T 4935   4.205   1.495   9.085  0.0195 -1.2044  0.9414
   62SAPC   C33 4936   4.537   1.894  10.377  0.5231 -0.3243  0.4237
   62SAPC   H3X 4937   4.634   1.924  10.332 -0.2970 -0.0849 -1.2728
   62SAPC   H3Y 4938   4.483   1.972  10.434  1.4818 -0.0300  0.9421
   62SAPC   C34 4939   4.436   1.860  10.256  0.2891  0.8294  0.3704
   62SAPC   H4X 4940   4.424   1.956  10.202  0.6721  1.4230  1.3209
   62SAPC   H4Y 4941   4.337   1.823  10.290  1.5330 -1.2745  1.9552
   62SAPC   C35 4942   4.482   1.763  10.141 -0.6128 -0.1907  0.0473
   62SAPC   H5X 4943   4.529   1.671  10.183 -1.3328 -0.1521  0.9485
   62SAPC   H5Y 4944   4.562   1.822  10.091 -1.3662 -0.1713 -1.1778
   62SAPC   C36 4945   4.370   1.729  10.033  0.4517 -0.5317 -0.3762
   62SAPC   H6X 4946   4.426   1.711   9.940  0.8847 -4.5461  0.4884
   62SAPC   H6Y 4947   4.306   1.820  10.027  0.9498 -0.2175 -0.9137
   62SAPC   C37 4948   4.288   1.605  10.070  0.8986 -0.2040  0.8170
   62SAPC   H7X 4949   4.233   1.635  10.162  1.2794  0.2981  0.8872
   62SAPC   H7Y 4950   4.359   1.521  10.088  1.3272  0.5818  3.1748
   62SAPC   C38 4951   4.178   1.568   9.966  0.1002 -0.3954  0.9254
   62SAPC   H8X 4952   4.094   1.639   9.976  1.5153  1.3117  1.1049
   62SAPC   H8Y 4953   4.141   1.467   9.995 -0.7437  0.1075  1.6471
   62SAPC   C39 4954   4.232   1.565   9.814  0.1079  0.0459  0.4321
   62SAPC   H9X 4955   4.258   1.663   9.768  1.9150 -1.7548 -2.7020
   62SAPC   H9Y 4956   4.140   1.549   9.754  0.7522 -0.9306 -0.3339
   62SAPC  C310 4957   4.338   1.453   9.793  0.7592  0.1061 -0.3830
   62SAPC  H10X 4958   4.287   1.356   9.810  1.8925 -0.1953  1.5410
   62SAPC  H10Y 4959   4.417   1.470   9.869 -1.1290 -0.0313  1.7349
   62SAPC  C311 4960   4.407   1.454   9.657  0.2256 -0.4810  0.2122
   62SAPC  H11X 4961   4.495   1.387   9.664  0.8319  0.1479 -1.0354
   62SAPC  H11Y 4962   4.446   1.557   9.641  0.2452 -0.3400  1.1193
   62SAPC  C312 4963   4.312   1.405   9.549 -0.0669 -0.0950 -0.1625
   62SAPC  H12X 4964   4.218   1.464   9.539  0.0821 -0.2065 -2.8998
   62SAPC  H12Y 4965   4.282   1.300   9.570  1.0664 -0.6774 -1.3460
   62SAPC  C313 4966   4.386   1.395   9.408 -0.1327 -0.2511  0.9304
   62SAPC  H13X 4967   4.319   1.345   9.335 -1.0756  0.3578  1.3693
   62SAPC  H13Y 4968   4.476   1.332   9.426  0.9637  1.4018  1.4806
   62SAPC  C314 4969   4.442   1.523   9.361 -0.4324  0.3788  0.1286
   62SAPC  H14X 4970   4.513   1.565   9.436  1.7957  0.5245 -1.9253
   62SAPC  H14Y 4971   4.363   1.597   9.335 -1.2146 -0.5589 -0.2234
   62SAPC  C315 4972   4.532   1.509   9.238 -0.0240  0.2429  0.2248
   62SAPC  H15X 4973   4.460   1.482   9.157 -1.4245  0.3172  1.4138
   62SAPC  H15Y 4974   4.608   1.429   9.249  1.6410  1.6899 -0.2230
   62SAPC  C316 4975   4.607   1.639   9.199 -0.0170 -0.3663 -0.6706
   62SAPC  H16X 4976   4.699   1.645   9.261 -0.2276  1.1613 -0.4852
   62SAPC  H16Y 4977   4.546   1.728   9.222  0.5139 -0.1154 -0.2260
   62SAPC  C317 4978   4.647   1.647   9.054 -0.5824 -0.2671  0.7106
   62SAPC  H17X 4979   4.558   1.629   8.990 -0.1767  0.0979  0.0441
   62SAPC  H17Y 4980   4.710   1.558   9.033  0.3008  0.5051  0.0289
   62SAPC  C318 4981   4.725   1.771   9.010  0.5895 -0.5651  0.3176
   62SAPC  H18X 4982   4.669   1.866   9.020  0.1869 -0.7427 -0.2364
   62SAPC  H18Y 4983   4.766   1.752   8.909  1.1318 -0.3115  0.4848
   62SAPC  H18Z 4984   4.819   1.785   9.068  0.6176  0.6417 -0.0074
   63SAPC     N 4985   1.265   0.906   6.326  0.3621  0.7933  0.5911
   63SAPC   C12 4986   1.392   0.826   6.352 -0.2155 -0.5455  0.5165
   63SAPC  H12A 4987   1.451   0.819   6.262 -1.4002  1.0538 -0.4349
   63SAPC  H12B 4988   1.372   0.721   6.361  0.8191 -0.5962  6.8607
   63SAPC   C13 4989   1.164   0.874   6.422  0.2983 -0.6901  0.1762
   63SAPC  H13A 4990   1.193   0.893   6.524 -0.3186 -1.0816  0.4282
   63SAPC  H13B 4991   1.072   0.929   6.412  1.3436  1.0121 -0.5896
   63SAPC  H13C 4992   1.141   0.769   6.412  3.1450 -1.3740 -0.0340
   63SAPC   C14 4993   1.285   1.051   6.324 -0.7917  0.0530  0.1447
   63SAPC  H14A 4994   1.357   1.073   6.247 -1.3046  0.8226 -0.1292
   63SAPC  H14B 4995   1.195   1.108   6.307  0.8734  2.7426 -0.2059
   63SAPC  H14C 4996   1.326   1.090   6.416  0.4775 -0.6338 -0.1063
   63SAPC   C15 4997   1.211   0.857   6.193  0.2017  0.1840 -0.5876
   63SAPC  H15A 4998   1.262   0.912   6.115 -0.4984  1.2291 -0.3331
   63SAPC  H15B 4999   1.210   0.749   6.197  1.3759  0.1466  3.5965
   63SAPC  H15C 5000   1.109   0.892   6.188 -0.6473 -1.2487  3.2242
   63SAPC   C11 5001   1.474   0.876   6.469 -0.4345  0.0603  0.4605
   63SAPC  H11A 5002   1.543   0.796   6.506 -0.4852  1.1178  3.1005
   63SAPC  H11B 5003   1.409   0.900   6.555  0.6747  2.1245  0.7774
   63SAPC     P 5004   1.691   1.002   6.382  0.1617 -0.1877  0.1136
   63SAPC   O13 5005   1.762   0.874   6.407  0.5166  0.0159 -0.3866
   63SAPC   O14 5006   1.702   1.063   6.243  0.4156 -0.1566 -0.3864
   63SAPC   O12 5007   1.541   0.991   6.429 -0.5600 -0.1897  0.4174
   63SAPC   O11 5008   1.750   1.095   6.496 -0.1292 -0.5830 -0.0389
   63SAPC    C1 5009   1.723   1.068   6.627 -0.2937  0.9142  0.1742
   63SAPC    HA 5010   1.656   0.983   6.650  1.2259 -0.0987  1.0088
   63SAPC    HB 5011   1.820   1.058   6.681 -1.2768  0.7180  1.9779
   63SAPC    C2 5012   1.645   1.185   6.698 -0.7882  0.0398  0.0607
   63SAPC    HS 5013   1.703   1.273   6.664 -1.0493 -0.2543 -1.1999
   63SAPC   O21 5014   1.648   1.169   6.841 -0.0986  0.1432 -0.2225
   63SAPC   C21 5015   1.749   1.229   6.905  0.1775 -0.6149 -0.2258
   63SAPC   O22 5016   1.848   1.281   6.852 -0.4895 -0.0439 -0.6648
   63SAPC   C22 5017   1.727   1.216   7.055 -0.4170  0.2303 -0.0479
   63SAPC   H2R 5018   1.710   1.319   7.095  0.2039  0.4181 -0.2426
   63SAPC   H2S 5019   1.640   1.155   7.085  0.2604 -0.4314  0.6015
   63SAPC    C3 5020   1.500   1.209   6.645  0.1237  0.0494 -1.0409
   63SAPC    HX 5021   1.439   1.117   6.653 -0.0886  0.3011  0.4844
   63SAPC    HY 5022   1.508   1.218   6.535 -3.4402  2.3999 -1.2715
   63SAPC   O31 5023   1.438   1.322   6.708 -0.0485  0.9718 -0.2122
   63SAPC   C31 5024   1.340   1.303   6.797 -0.1358  0.5313  0.1517
   63SAPC   O32 5025   1.294   1.195   6.835  0.1387 -0.1040 -0.3506
   63SAPC   C32 5026   1.307   1.436   6.853 -0.5723  0.2044 -0.7796
   63SAPC   H2X 5027   1.196   1.434   6.859 -0.5466 -0.3578 -0.4812
   63SAPC   H2Y 5028   1.337   1.518   6.785  0.6948  1.4265  1.1588
   63SAPC   C23 5029   1.856   1.163   7.126 -0.8183  0.7017  0.2396
   63SAPC   H3R 5030   1.949   1.217   7.101 -0.2593 -0.5817 -0.5919
   63SAPC   H3S 5031   1.870   1.064   7.077 -4.8492  0.2092 -0.3055
   63SAPC   C24 5032   1.825   1.160   7.282  0.7049 -0.4831  0.2757
   63SAPC   H4R 5033   1.909   1.118   7.342  0.9991  0.7912  0.7970
   63SAPC   H4S 5034   1.738   1.090   7.289  1.3132 -1.1938  0.9447
   63SAPC   C25 5035   1.798   1.296   7.340  0.5093 -0.4526  0.3165
   63SAPC   H5R 5036   1.869   1.369   7.299 -0.4097 -0.4619 -1.3718
   63SAPC   C26 5037   1.702   1.343   7.426 -0.4516  0.7289 -0.1770
   63SAPC   H6R 5038   1.713   1.444   7.468  1.1045  0.2335  0.6680
   63SAPC   C27 5039   1.597   1.261   7.486 -0.1600  0.5823 -0.0263
   63SAPC   H7R 5040   1.581   1.298   7.589  2.9018  0.1813  0.6915
   63SAPC   H7S 5041   1.618   1.152   7.493  0.9778  0.8196  0.4901
   63SAPC   C28 5042   1.473   1.267   7.404  0.0725 -0.2707  0.4679
   63SAPC   H8R 5043   1.470   1.190   7.326  1.5777 -0.1885  0.2920
   63SAPC   C29 5044   1.376   1.357   7.420  0.6417 -1.0398  0.2299
   63SAPC   H9R 5045   1.291   1.359   7.351  1.1185 -0.9774 -0.3664
   63SAPC  C210 5046   1.370   1.467   7.529 -0.0305 -0.3835  0.1559
   63SAPC  H10R 5047   1.338   1.562   7.482  2.3899 -0.8000 -2.5893
   63SAPC  H10S 5048   1.474   1.491   7.559  0.9742  0.4081 -3.4208
   63SAPC  C211 5049   1.285   1.414   7.642 -0.2900 -0.3848 -0.0420
   63SAPC  H11R 5050   1.192   1.367   7.607  0.5678  0.3428 -3.7352
   63SAPC  C212 5051   1.312   1.412   7.776  0.1069  0.5825 -0.4192
   63SAPC  H12R 5052   1.244   1.362   7.847  0.3787  1.9209  0.8450
   63SAPC  C213 5053   1.432   1.467   7.845 -1.0653  0.0208  0.4540
   63SAPC  H13R 5054   1.408   1.511   7.944  2.2447 -0.5415  1.6404
   63SAPC  H13S 5055   1.476   1.549   7.785 -0.2380 -0.3635  0.5180
   63SAPC  C214 5056   1.532   1.356   7.876  0.0719 -0.6133  0.1720
   63SAPC  H14R 5057   1.547   1.286   7.792  1.4291 -0.9638  0.6688
   63SAPC  C215 5058   1.594   1.339   7.996 -0.7366  0.0961  0.5499
   63SAPC  H15R 5059   1.652   1.245   8.003 -0.9638  0.0151  1.5783
   63SAPC  C216 5060   1.579   1.430   8.116  0.5690 -0.3867 -0.7407
   63SAPC  H16R 5061   1.549   1.531   8.082 -0.9930 -0.7300 -0.4692
   63SAPC  H16S 5062   1.670   1.439   8.179  0.6429 -1.4811 -0.6758
   63SAPC  C217 5063   1.468   1.373   8.213  0.2992  0.8831  0.6045
   63SAPC  H17R 5064   1.377   1.345   8.156 -1.8670  0.4002  4.0212
   63SAPC  H17S 5065   1.443   1.447   8.292  1.2417  1.8852 -0.0219
   63SAPC  C218 5066   1.501   1.243   8.298 -0.0549 -0.0874 -0.4412
   63SAPC  H18R 5067   1.594   1.260   8.357 -0.5216 -4.1317  1.8205
   63SAPC  H18S 5068   1.536   1.162   8.231 -1.5286  0.2658 -1.6651
   63SAPC  C219 5069   1.412   1.197   8.402 -0.1588  0.4993 -0.3622
   63SAPC  H19R 5070   1.316   1.169   8.353 -0.0713  2.8866 -2.0042
   63SAPC  H19S 5071   1.401   1.288   8.465 -0.6501  0.1391  0.0828
   63SAPC  C220 5072   1.448   1.082   8.502  0.4365 -0.4189 -0.0664
   63SAPC  H20R 5073   1.542   1.115   8.551 -0.1326  0.6407  0.3433
   63SAPC  H20S 5074   1.451   0.988   8.443  1.1275 -1.1503  1.0938
   63SAPC  H20T 5075   1.365   1.075   8.575 -1.2061  0.1280 -1.7903
   63SAPC   C33 5076   1.358   1.460   6.999  0.6392 -0.7468  0.0462
   63SAPC   H3X 5077   1.466   1.487   6.989  0.5064 -0.0081  0.5065
   63SAPC   H3Y 5078   1.358   1.370   7.064  0.5784  0.3949  1.6830
   63SAPC   C34 5079   1.288   1.561   7.083  1.0761 -0.2300  0.6643
   63SAPC   H4X 5080   1.300   1.658   7.031  0.2263  0.4768  1.7449
   63SAPC   H4Y 5081   1.339   1.567   7.181 -2.7880 -0.2383  2.8904
   63SAPC   C35 5082   1.130   1.546   7.105 -0.0636  0.1685  0.1697
   63SAPC   H5X 5083   1.110   1.438   7.118 -2.8872  0.1033 -3.3189
   63SAPC   H5Y 5084   1.072   1.580   7.016 -0.8966 -3.6027 -0.8911
   63SAPC   C36 5085   1.073   1.602   7.237  0.3248 -0.3743 -0.1805
   63SAPC   H6X 5086   1.087   1.712   7.231 -0.5795 -0.3358 -3.6889
   63SAPC   H6Y 5087   1.140   1.570   7.320 -0.4598 -1.1090  0.1899
   63SAPC   C37 5088   0.927   1.580   7.250  0.0779 -0.0831 -0.8697
   63SAPC   H7X 5089   0.912   1.470   7.260 -0.6232  0.1841  1.4801
   63SAPC   H7Y 5090   0.873   1.626   7.164 -2.3713  1.9277  1.5674
   63SAPC   C38 5091   0.866   1.636   7.383  0.1564 -0.1391  0.1269
   63SAPC   H8X 5092   0.766   1.588   7.393  0.2851 -0.0362  2.7617
   63SAPC   H8Y 5093   0.846   1.744   7.369 -2.8940 -0.6442 -0.1505
   63SAPC   C39 5094   0.936   1.597   7.511 -0.3130  0.5915  0.3543
   63SAPC   H9X 5095   1.031   1.655   7.502 -0.7105  1.3499  0.9612
   63SAPC   H9Y 5096   0.958   1.493   7.541  0.5317  1.1035  1.5993
   63SAPC  C310 5097   0.853   1.658   7.632 -0.4550 -0.4204  0.0483
   63SAPC  H10X 5098   0.757   1.601   7.640 -0.4993 -0.5706 -1.3976
   63SAPC  H10Y 5099   0.824   1.759   7.597 -0.3004 -0.6893 -0.8774
   63SAPC  C311 5100   0.925   1.659   7.767 -0.7733 -0.1322  0.2914
   63SAPC  H11X 5101   0.899   1.758   7.810 -2.6797  0.7002 -2.5083
   63SAPC  H11Y 5102   1.036   1.656   7.764 -0.7182  1.5388  0.1381
   63SAPC  C312 5103   0.880   1.553   7.860 -1.3330 -0.1364  0.3947
   63SAPC  H12X 5104   0.904   1.457   7.810  0.5950  1.1634 -1.3657
   63SAPC  H12Y 5105   0.769   1.563   7.858 -1.1885  1.9896 -1.4301
   63SAPC  C313 5106   0.937   1.555   8.002  0.1415  0.1297 -0.5356
   63SAPC  H13X 5107   0.908   1.652   8.046  1.9683  0.5822 -0.2589
   63SAPC  H13Y 5108   1.048   1.549   8.006  0.1731  1.2003  0.5168
   63SAPC  C314 5109   0.884   1.443   8.092  0.2160  0.3308  0.1108
   63SAPC  H14X 5110   0.962   1.365   8.104 -0.0796  0.0547  0.2649
   63SAPC  H14Y 5111   0.799   1.386   8.047  0.6768 -0.2575 -0.0257
   63SAPC  C315 5112   0.855   1.480   8.236  0.0827  0.0894 -0.0043
   63SAPC  H15X 5113   0.833   1.390   8.297  1.3639 -0.1506  0.1432
   63SAPC  H15Y 5114   0.765   1.544   8.243 -0.4159 -0.4945 -0.8855
   63SAPC  C316 5115   0.972   1.565   8.298 -0.5321 -0.3614 -0.3379
   63SAPC  H16X 5116   0.964   1.671   8.265 -0.4105  0.1984  1.3724
   63SAPC  H16Y 5117   1.072   1.518   8.283 -1.0826 -2.3010  1.6334
   63SAPC  C317 5118   0.969   1.570   8.450  0.4340 -0.2173 -0.1363
   63SAPC  H17X 5119   1.063   1.620   8.483 -0.2520 -0.1226  1.8305
   63SAPC  H17Y 5120   0.972   1.467   8.491  1.9880 -0.5569 -1.0507
   63SAPC  C318 5121   0.845   1.653   8.512  0.2861 -0.1166 -0.0666
   63SAPC  H18X 5122   0.755   1.609   8.465  0.0962 -2.5729  2.3231
   63SAPC  H18Y 5123   0.855   1.761   8.489  3.7788 -0.4904 -0.9598
   63SAPC  H18Z 5124   0.839   1.630   8.621  1.2876  1.2157  0.3044
   64SAPC     N 5125   2.291   2.197   6.102  0.9080  1.0673  0.8565
   64SAPC   C12 5126   2.264   2.292   5.987 -0.1843 -0.8210 -0.3741
   64SAPC  H12A 5127   2.186   2.359   6.022 -2.5450 -3.8981  0.7028
   64SAPC  H12B 5128   2.211   2.231   5.915 -1.1434 -0.6108  0.1347
   64SAPC   C13 5129   2.287   2.267   6.234 -0.1112 -0.7822  0.6807
   64SAPC  H13A 5130   2.362   2.345   6.233 -0.8781 -0.0245 -0.8457
   64SAPC  H13B 5131   2.194   2.319   6.251  0.5696  0.5888  0.3705
   64SAPC  H13C 5132   2.300   2.200   6.318 -1.3249 -1.0156  0.6985
   64SAPC   C14 5133   2.188   2.088   6.097 -0.3274 -0.4832  0.6625
   64SAPC  H14A 5134   2.187   2.040   6.193 -0.3532  2.6938  2.4050
   64SAPC  H14B 5135   2.087   2.126   6.089 -0.2673 -0.4234  0.1736
   64SAPC  H14C 5136   2.197   2.019   6.015 -1.4612 -0.3948  0.4448
   64SAPC   C15 5137   2.428   2.138   6.087 -0.8466 -0.9665 -0.0683
   64SAPC  H15A 5138   2.445   2.046   6.141  1.8496 -0.8165 -0.5555
   64SAPC  H15B 5139   2.440   2.115   5.983 -0.9012 -0.9356 -0.0815
   64SAPC  H15C 5140   2.510   2.200   6.120 -1.1692 -0.4447 -0.2336
   64SAPC   C11 5141   2.384   2.368   5.930 -1.0358  0.1928  0.4736
   64SAPC  H11A 5142   2.343   2.437   5.853 -0.0191  2.7738  2.1007
   64SAPC  H11B 5143   2.454   2.301   5.877 -1.9125 -1.9703  1.9146
   64SAPC     P 5144   2.367   2.573   6.099 -0.0461 -0.0133  0.5347
   64SAPC   O13 5145   2.427   2.703   6.059  0.1083 -0.2360  0.6742
   64SAPC   O14 5146   2.221   2.563   6.089 -0.1366  0.0429  0.4658
   64SAPC   O12 5147   2.445   2.447   6.034  0.0292 -0.1483 -0.7346
   64SAPC   O11 5148   2.405   2.544   6.254  0.2491  0.1632  0.1851
   64SAPC    C1 5149   2.452   2.651   6.336  0.1701 -0.0573 -0.0749
   64SAPC    HA 5150   2.557   2.679   6.315  0.8787 -1.1066  1.7691
   64SAPC    HB 5151   2.385   2.741   6.334  1.8154  1.1981 -2.1277
   64SAPC    C2 5152   2.458   2.609   6.484  0.2325  0.2690  0.1172
   64SAPC    HS 5153   2.363   2.554   6.502  0.5996 -0.5571 -0.4254
   64SAPC   O21 5154   2.479   2.724   6.564 -0.7249  0.2706  0.6278
   64SAPC   C21 5155   2.377   2.798   6.591  0.6784  0.9474  0.3002
   64SAPC   O22 5156   2.259   2.765   6.559 -0.0117  0.4579 -0.3684
   64SAPC   C22 5157   2.423   2.916   6.677  0.6607 -0.2103  0.1645
   64SAPC   H2R 5158   2.530   2.913   6.706  0.6153  1.0645  0.5169
   64SAPC   H2S 5159   2.417   2.995   6.599 -0.9366 -0.3656  0.0971
   64SAPC    C3 5160   2.565   2.498   6.518  0.0538 -0.2575 -0.2454
   64SAPC    HX 5161   2.663   2.536   6.482  0.1516  0.8528  1.1291
   64SAPC    HY 5162   2.527   2.411   6.460  1.3053 -0.6292 -0.5420
   64SAPC   O31 5163   2.561   2.456   6.661 -0.1225  0.6388 -0.3198
   64SAPC   C31 5164   2.680   2.462   6.727 -0.3793 -0.6728 -0.4807
   64SAPC   O32 5165   2.788   2.456   6.679 -0.3860 -0.3212 -0.3183
   64SAPC   C32 5166   2.650   2.497   6.872 -0.2926  0.6651 -0.1486
   64SAPC   H2X 5167   2.592   2.411   6.910  3.1778 -2.7157 -1.7622
   64SAPC   H2Y 5168   2.592   2.591   6.873  3.0791  3.1118 -3.4986
   64SAPC   C23 5169   2.335   2.939   6.800  0.1237  0.0889  0.7207
   64SAPC   H3R 5170   2.333   2.843   6.856  1.0915  0.1160  0.8050
   64SAPC   H3S 5171   2.231   2.956   6.764 -0.2382 -0.5941  1.4186
   64SAPC   C24 5172   2.386   3.039   6.904 -0.3983  0.2090  0.2255
   64SAPC   H4R 5173   2.318   3.057   6.990 -0.3518  1.7977 -0.0459
   64SAPC   H4S 5174   2.396   3.134   6.848 -0.6750 -1.1155 -2.2289
   64SAPC   C25 5175   2.525   3.007   6.946 -0.0640  0.6745  0.0121
   64SAPC   H5R 5176   2.604   3.030   6.873  0.9323 -0.0299  0.8452
   64SAPC   C26 5177   2.569   2.953   7.060  0.5036 -1.2830 -0.1512
   64SAPC   H6R 5178   2.677   2.959   7.076  0.3816 -0.1068  0.3502
   64SAPC   C27 5179   2.479   2.911   7.173 -0.2369 -0.2181  0.6667
   64SAPC   H7R 5180   2.525   2.832   7.237 -2.6875 -1.3453  1.1813
   64SAPC   H7S 5181   2.387   2.862   7.136  0.7426 -0.6601 -1.2911
   64SAPC   C28 5182   2.444   3.032   7.256  0.0271  0.6972  0.6192
   64SAPC   H8R 5183   2.441   3.125   7.198  3.2214  0.6390  0.1877
   64SAPC   C29 5184   2.417   3.036   7.389 -0.2584  0.0376  1.0658
   64SAPC   H9R 5185   2.374   3.128   7.431 -2.8666 -0.1524 -0.9514
   64SAPC  C210 5186   2.412   2.908   7.472  0.4162 -0.2551 -0.3899
   64SAPC  H10R 5187   2.517   2.894   7.505  1.0427  0.5784 -1.9228
   64SAPC  H10S 5188   2.379   2.818   7.415 -1.4738 -1.4067  2.3023
   64SAPC  C211 5189   2.317   2.921   7.588 -0.4607 -0.0295  0.8129
   64SAPC  H11R 5190   2.218   2.875   7.578 -1.1318  1.3918  0.7310
   64SAPC  C212 5191   2.344   2.975   7.709  0.1695 -0.6129  0.2342
   64SAPC  H12R 5192   2.261   2.978   7.781 -0.1838 -1.4697 -0.1279
   64SAPC  C213 5193   2.470   3.046   7.756 -0.1524  0.4327 -0.1842
   64SAPC  H13R 5194   2.449   3.143   7.806 -0.3029  0.6661 -0.6905
   64SAPC  H13S 5195   2.537   3.072   7.671  1.0964 -2.1824 -0.0998
   64SAPC  C214 5196   2.541   2.959   7.858 -1.1600 -0.2258  0.3401
   64SAPC  H14R 5197   2.627   2.905   7.816  1.4475  2.6104  1.6452
   64SAPC  C215 5198   2.500   2.955   7.991  0.5139  0.9913  0.5676
   64SAPC  H15R 5199   2.568   2.904   8.062  1.5283  0.8439 -0.4752
   64SAPC  C216 5200   2.376   3.023   8.042 -0.0780 -0.6099 -0.5053
   64SAPC  H16R 5201   2.290   2.959   8.013  1.7444 -2.2391 -2.7451
   64SAPC  H16S 5202   2.353   3.112   7.980  0.6695 -1.1820 -1.6322
   64SAPC  C217 5203   2.375   3.055   8.196 -0.2990 -0.2758  0.4148
   64SAPC  H17R 5204   2.368   2.958   8.248 -0.6855 -1.0732 -1.0731
   64SAPC  H17S 5205   2.281   3.112   8.208 -1.1440 -1.1681 -1.5160
   64SAPC  C218 5206   2.492   3.144   8.242  0.0851 -0.0333  0.2269
   64SAPC  H18R 5207   2.473   3.243   8.195 -1.6646 -0.4239  0.0441
   64SAPC  H18S 5208   2.591   3.105   8.211 -0.5156 -0.4233 -1.2661
   64SAPC  C219 5209   2.494   3.168   8.391 -0.6277 -0.8208  0.3899
   64SAPC  H19R 5210   2.513   3.074   8.447 -0.0711 -0.7134  0.3932
   64SAPC  H19S 5211   2.396   3.213   8.417 -0.2679  0.0881  0.2195
   64SAPC  C220 5212   2.591   3.280   8.439 -0.4754  0.4679  0.0663
   64SAPC  H20R 5213   2.555   3.298   8.543 -0.1643 -1.4019  0.5353
   64SAPC  H20S 5214   2.578   3.373   8.379 -0.3439  1.3657  1.3799
   64SAPC  H20T 5215   2.695   3.242   8.435 -0.5913  0.0646  0.7359
   64SAPC   C33 5216   2.776   2.519   6.954 -0.1804  0.1618 -0.4871
   64SAPC   H3X 5217   2.819   2.618   6.930  1.8855  0.0999  2.3934
   64SAPC   H3Y 5218   2.852   2.440   6.932 -0.6386 -0.4312  0.0211
   64SAPC   C34 5219   2.737   2.512   7.108  0.8155 -0.1646 -0.2820
   64SAPC   H4X 5220   2.717   2.407   7.137  1.2618 -0.1936 -0.0708
   64SAPC   H4Y 5221   2.645   2.572   7.126  2.7400  1.9946  3.7705
   64SAPC   C35 5222   2.835   2.577   7.210  0.3051  0.0627  0.0360
   64SAPC   H5X 5223   2.868   2.678   7.177 -2.6800  1.1423  0.0984
   64SAPC   H5Y 5224   2.921   2.507   7.221  0.3447 -0.0223 -0.7251
   64SAPC   C36 5225   2.781   2.599   7.353  0.4353  0.6887 -0.0566
   64SAPC   H6X 5226   2.694   2.667   7.341 -0.4196 -0.4057 -0.2116
   64SAPC   H6Y 5227   2.850   2.647   7.425  0.3279  0.5569  0.1332
   64SAPC   C37 5228   2.727   2.477   7.428  0.2055  0.8974 -0.3660
   64SAPC   H7X 5229   2.809   2.406   7.447 -0.6308  0.0261  0.0782
   64SAPC   H7Y 5230   2.653   2.424   7.365  1.1505 -1.8195  0.6821
   64SAPC   C38 5231   2.660   2.509   7.564 -0.7065  0.3017 -0.3755
   64SAPC   H8X 5232   2.602   2.603   7.552  1.4918  1.5683 -1.5144
   64SAPC   H8Y 5233   2.742   2.537   7.633 -0.8947  1.2269 -0.5068
   64SAPC   C39 5234   2.596   2.387   7.633 -0.1429 -0.1502 -0.2836
   64SAPC   H9X 5235   2.672   2.306   7.634 -0.8816 -0.8636  0.5659
   64SAPC   H9Y 5236   2.513   2.344   7.573 -0.6252 -1.0910  0.9865
   64SAPC  C310 5237   2.552   2.414   7.782 -0.1451 -0.3420 -0.2682
   64SAPC  H10X 5238   2.483   2.501   7.788  0.8160  0.5099 -1.1528
   64SAPC  H10Y 5239   2.633   2.460   7.841 -3.1315  1.7076  2.5757
   64SAPC  C311 5240   2.493   2.300   7.865 -0.4370  0.0479 -0.1951
   64SAPC  H11X 5241   2.559   2.211   7.867  0.0953  0.4197 -0.7359
   64SAPC  H11Y 5242   2.397   2.273   7.815  1.2726 -0.4431 -3.4425
   64SAPC  C312 5243   2.460   2.338   8.013  0.1476 -0.7772 -0.1641
   64SAPC  H12X 5244   2.364   2.297   8.051  0.7595 -0.9513  1.2613
   64SAPC  H12Y 5245   2.458   2.449   8.024  0.7218 -0.7400 -0.4110
   64SAPC  C313 5246   2.559   2.291   8.121  0.1956  0.6536  0.3735
   64SAPC  H13X 5247   2.667   2.309   8.102  1.0103 -1.0523  2.8489
   64SAPC  H13Y 5248   2.545   2.181   8.115  0.4986  0.6812 -1.5550
   64SAPC  C314 5249   2.525   2.325   8.265  0.2067  0.5775  0.0274
   64SAPC  H14X 5250   2.422   2.284   8.271  0.4435  0.0431  0.4611
   64SAPC  H14Y 5251   2.522   2.436   8.276 -0.4826  0.3298  3.2358
   64SAPC  C315 5252   2.611   2.263   8.368 -0.2250 -0.1647 -0.4106
   64SAPC  H15X 5253   2.718   2.277   8.342  0.1600 -2.4510 -0.2711
   64SAPC  H15Y 5254   2.584   2.155   8.372 -0.4117 -0.0915  0.4600
   64SAPC  C316 5255   2.598   2.329   8.504 -0.4773  0.7435 -0.0999
   64SAPC  H16X 5256   2.502   2.304   8.555 -1.0772 -0.7220 -1.8252
   64SAPC  H16Y 5257   2.602   2.439   8.491  0.2994  0.5021 -2.4763
   64SAPC  C317 5258   2.715   2.283   8.593  0.2870 -0.4408  0.4365
   64SAPC  H17X 5259   2.731   2.357   8.674  0.7097 -0.5777  0.4858
   64SAPC  H17Y 5260   2.811   2.289   8.536 -0.0333  3.2944  0.0061
   64SAPC  C318 5261   2.711   2.152   8.666 -0.3382  0.3864  0.5169
   64SAPC  H18X 5262   2.808   2.125   8.712 -0.5480 -2.9143 -0.6862
   64SAPC  H18Y 5263   2.699   2.065   8.597 -0.0307  0.5903  0.2013
   64SAPC  H18Z 5264   2.631   2.146   8.743  1.0774  1.5524  2.1497
   65SAPC     N 5265   1.788   3.290   5.741  0.1388 -0.1346  0.7453
   65SAPC   C12 5266   1.916   3.203   5.753  0.4562  0.4678  0.5282
   65SAPC  H12A 5267   1.952   3.153   5.664 -1.6454 -1.2201  0.5501
   65SAPC  H12B 5268   1.887   3.111   5.800  1.5201  0.1871  0.6729
   65SAPC   C13 5269   1.681   3.203   5.677  0.2879  0.0418 -0.3256
   65SAPC  H13A 5270   1.672   3.101   5.712  3.7424  0.4480  2.2410
   65SAPC  H13B 5271   1.592   3.264   5.680 -0.1169 -0.4608 -1.3677
   65SAPC  H13C 5272   1.697   3.195   5.570  0.0531  0.4393 -0.3952
   65SAPC   C14 5273   1.747   3.330   5.874 -0.4494  0.0712 -0.0789
   65SAPC  H14A 5274   1.672   3.407   5.879 -0.1621  0.5704 -2.3343
   65SAPC  H14B 5275   1.708   3.247   5.931 -0.8810  1.6438  2.0247
   65SAPC  H14C 5276   1.828   3.375   5.930 -0.6070  1.5462 -0.9889
   65SAPC   C15 5277   1.811   3.410   5.649  0.1118 -0.1816  0.2417
   65SAPC  H15A 5278   1.886   3.466   5.703 -1.4538  0.2435  2.0718
   65SAPC  H15B 5279   1.847   3.380   5.551 -0.9311 -1.4097  0.2013
   65SAPC  H15C 5280   1.724   3.472   5.642 -0.9949 -1.6385  0.5073
   65SAPC   C11 5281   2.034   3.270   5.829  0.0672  0.5796 -0.1179
   65SAPC  H11A 5282   2.044   3.369   5.780 -1.7991 -1.2245 -4.7329
   65SAPC  H11B 5283   2.130   3.223   5.797  1.0237  2.1694  0.3234
   65SAPC     P 5284   2.003   3.132   6.047  0.3390 -0.1809  0.3507
   65SAPC   O13 5285   1.866   3.102   6.098  0.0351  0.1604  0.3971
   65SAPC   O14 5286   2.069   3.024   5.976  0.1076  0.2310 -0.6129
   65SAPC   O12 5287   2.019   3.270   5.972  1.0000  0.1369  0.7197
   65SAPC   O11 5288   2.082   3.159   6.180 -0.7021  0.0269  0.0035
   65SAPC    C1 5289   2.200   3.233   6.190 -0.0359 -0.3469 -0.3122
   65SAPC    HA 5290   2.281   3.210   6.117  0.7557 -0.3379  0.5429
   65SAPC    HB 5291   2.183   3.341   6.171  1.7990 -0.2116 -1.4640
   65SAPC    C2 5292   2.274   3.210   6.328  0.4102  0.2285  0.2765
   65SAPC    HS 5293   2.293   3.101   6.330  0.9289  0.2983 -0.5127
   65SAPC   O21 5294   2.200   3.263   6.437  0.1421  0.3328 -0.4356
   65SAPC   C21 5295   2.131   3.177   6.515 -0.6197 -0.1435  0.0913
   65SAPC   O22 5296   2.139   3.056   6.511  0.3354  0.8605  0.1288
   65SAPC   C22 5297   2.052   3.263   6.619 -0.2115 -0.8926  0.4730
   65SAPC   H2R 5298   2.127   3.311   6.685  1.1321 -0.7278 -1.0842
   65SAPC   H2S 5299   2.005   3.344   6.560 -0.7341 -2.7318 -1.8044
   65SAPC    C3 5300   2.414   3.272   6.334 -0.3617 -0.8585 -0.6928
   65SAPC    HX 5301   2.396   3.379   6.359 -2.1832 -1.5482  1.2771
   65SAPC    HY 5302   2.451   3.261   6.230 -1.1804 -0.6681 -1.0103
   65SAPC   O31 5303   2.507   3.203   6.425 -0.2999 -0.1167 -0.2062
   65SAPC   C31 5304   2.600   3.287   6.484 -0.4144  0.0449 -0.0619
   65SAPC   O32 5305   2.599   3.405   6.471 -0.2846  0.3951  0.3229
   65SAPC   C32 5306   2.702   3.210   6.557  0.7347 -0.2579 -0.4645
   65SAPC   H2X 5307   2.767   3.162   6.480 -1.0710 -1.1920 -1.4711
   65SAPC   H2Y 5308   2.647   3.125   6.602 -4.0478  1.0623 -3.1344
   65SAPC   C23 5309   1.948   3.183   6.700 -0.4960 -0.0816 -0.2659
   65SAPC   H3R 5310   2.006   3.113   6.765 -0.0892 -1.6205 -2.1892
   65SAPC   H3S 5311   1.894   3.123   6.623 -1.9564  1.9225 -0.8702
   65SAPC   C24 5312   1.836   3.261   6.766  0.1850 -0.0102 -0.9273
   65SAPC   H4R 5313   1.793   3.184   6.833  1.9190 -1.5587 -1.4813
   65SAPC   H4S 5314   1.750   3.275   6.698 -2.1122 -1.9328  1.3684
   65SAPC   C25 5315   1.878   3.380   6.847 -0.1308 -0.3959  0.3160
   65SAPC   H5R 5316   1.905   3.471   6.791 -1.2884  1.0454  1.9531
   65SAPC   C26 5317   1.904   3.382   6.980  0.7561  0.1203 -0.2845
   65SAPC   H6R 5318   1.939   3.477   7.022  1.0259 -0.8694  1.8772
   65SAPC   C27 5319   1.886   3.273   7.080  0.0185 -0.3750 -0.5520
   65SAPC   H7R 5320   1.974   3.259   7.147  0.6427 -0.8648 -1.4361
   65SAPC   H7S 5321   1.874   3.176   7.025 -1.3941 -1.5115  1.6344
   65SAPC   C28 5322   1.755   3.295   7.157  0.6458 -0.4380 -0.3909
   65SAPC   H8R 5323   1.666   3.302   7.094 -0.6762 -0.1920  1.4347
   65SAPC   C29 5324   1.728   3.314   7.286 -0.0005 -0.5740  0.5037
   65SAPC   H9R 5325   1.626   3.337   7.320 -1.0849  1.8348 -3.6207
   65SAPC  C210 5326   1.824   3.321   7.403  0.3383 -0.1889 -0.0310
   65SAPC  H10R 5327   1.928   3.297   7.374 -0.0908  0.4600 -2.3218
   65SAPC  H10S 5328   1.793   3.251   7.484  2.0721  1.7528  2.4465
   65SAPC  C211 5329   1.830   3.470   7.456  0.9360 -0.0992  0.0898
   65SAPC  H11R 5330   1.881   3.533   7.382  1.2573 -1.1529 -0.6233
   65SAPC  C212 5331   1.775   3.518   7.568 -0.0965 -0.4017 -0.0619
   65SAPC  H12R 5332   1.778   3.625   7.593 -0.3761 -0.2792 -0.5385
   65SAPC  C213 5333   1.700   3.436   7.670  0.4176 -0.2221  0.7342
   65SAPC  H13R 5334   1.686   3.334   7.628  0.9252 -0.0397  0.1084
   65SAPC  H13S 5335   1.600   3.472   7.701  0.1153  0.4425 -0.8849
   65SAPC  C214 5336   1.788   3.417   7.791 -0.8967  0.0245 -0.2974
   65SAPC  H14R 5337   1.889   3.374   7.778  0.3909  3.1576 -1.9042
   65SAPC  C215 5338   1.753   3.468   7.908  0.8396 -0.3688 -0.1570
   65SAPC  H15R 5339   1.817   3.447   7.995  0.7879 -0.4149 -0.1301
   65SAPC  C216 5340   1.629   3.541   7.941  0.5909 -0.5317 -0.3115
   65SAPC  H16R 5341   1.605   3.609   7.856 -1.3928 -1.8163 -0.8486
   65SAPC  H16S 5342   1.655   3.605   8.028  0.1621 -2.7909  1.5730
   65SAPC  C217 5343   1.516   3.438   7.977  0.9381  0.4862  0.3722
   65SAPC  H17R 5344   1.549   3.381   8.065 -4.3271 -0.7880  1.8867
   65SAPC  H17S 5345   1.512   3.347   7.914 -1.6796 -0.2827  1.4989
   65SAPC  C218 5346   1.382   3.499   8.019  0.6439 -0.3018  0.1264
   65SAPC  H18R 5347   1.304   3.427   8.051 -0.4726  0.4302 -0.8733
   65SAPC  H18S 5348   1.340   3.545   7.928 -3.4097 -2.1637  0.8389
   65SAPC  C219 5349   1.398   3.607   8.131  0.0263 -0.1695  0.2858
   65SAPC  H19R 5350   1.304   3.667   8.128 -0.8548 -1.5390 -1.9921
   65SAPC  H19S 5351   1.484   3.676   8.118  0.4319 -0.6244  0.5149
   65SAPC  C220 5352   1.399   3.535   8.268 -0.6174 -0.0471  0.3464
   65SAPC  H20R 5353   1.376   3.607   8.349  0.6967  0.2590  0.4709
   65SAPC  H20S 5354   1.498   3.488   8.281 -0.2502 -0.4928 -3.1260
   65SAPC  H20T 5355   1.331   3.447   8.258  0.2099 -1.0752  2.8158
   65SAPC   C33 5356   2.790   3.296   6.654  0.3118 -0.3131 -0.0516
   65SAPC   H3X 5357   2.833   3.387   6.608 -0.0685 -0.2984 -0.3855
   65SAPC   H3Y 5358   2.878   3.231   6.675  0.9926  1.0881  1.6734
   65SAPC   C34 5359   2.708   3.321   6.783  0.2072 -0.2510  0.4325
   65SAPC   H4X 5360   2.702   3.229   6.845  0.2086  1.2006  2.6969
   65SAPC   H4Y 5361   2.605   3.347   6.751 -0.0801 -1.5817  0.2250
   65SAPC   C35 5362   2.779   3.429   6.872 -0.1259  0.0444 -0.6867
   65SAPC   H5X 5363   2.769   3.527   6.821  0.4779  0.4504 -0.0416
   65SAPC   H5Y 5364   2.885   3.394   6.868 -0.3605 -0.6704 -0.9190
   65SAPC   C36 5365   2.705   3.423   7.008  0.0823 -0.1442  0.2251
   65SAPC   H6X 5366   2.678   3.321   7.044 -2.8875  1.3617  2.7094
   65SAPC   H6Y 5367   2.606   3.469   6.988 -0.4278 -1.4215 -0.3026
   65SAPC   C37 5368   2.783   3.511   7.112  0.1716 -0.1220  0.6950
   65SAPC   H7X 5369   2.798   3.613   7.073  0.2609  0.7265  2.8015
   65SAPC   H7Y 5370   2.887   3.477   7.132  0.0630  1.1108  3.8596
   65SAPC   C38 5371   2.708   3.521   7.240  0.2364 -0.8315  0.0240
   65SAPC   H8X 5372   2.678   3.426   7.291  1.9509 -1.2757  0.2866
   65SAPC   H8Y 5373   2.611   3.570   7.217  0.1699 -0.1132  1.6753
   65SAPC   C39 5374   2.799   3.609   7.336  0.1552 -0.2999 -0.3603
   65SAPC   H9X 5375   2.827   3.700   7.280  2.3018 -1.3779 -1.1732
   65SAPC   H9Y 5376   2.893   3.558   7.367 -0.2796 -0.9325 -0.0397
   65SAPC  C310 5377   2.720   3.651   7.458 -0.6435  0.3788  0.0590
   65SAPC  H10X 5378   2.622   3.671   7.412  0.3031 -1.5218 -3.0721
   65SAPC  H10Y 5379   2.771   3.745   7.487  2.5981 -1.3997  0.7387
   65SAPC  C311 5380   2.720   3.561   7.575 -0.8351 -0.0106 -0.5584
   65SAPC  H11X 5381   2.815   3.557   7.634 -1.1366  1.2931  0.0498
   65SAPC  H11Y 5382   2.712   3.455   7.545  0.0127 -0.0225 -0.7836
   65SAPC  C312 5383   2.608   3.601   7.670  0.4870  0.8367  0.4101
   65SAPC  H12X 5384   2.508   3.593   7.624  0.8180  2.8450 -0.7838
   65SAPC  H12Y 5385   2.624   3.709   7.691  1.9443  0.4909  1.2400
   65SAPC  C313 5386   2.606   3.537   7.802 -0.2622  0.2347  0.7150
   65SAPC  H13X 5387   2.588   3.428   7.787 -1.0317  0.5864 -1.1341
   65SAPC  H13Y 5388   2.520   3.586   7.852 -1.6013 -0.2342 -1.0497
   65SAPC  C314 5389   2.725   3.574   7.888 -0.4077 -0.3197  0.0714
   65SAPC  H14X 5390   2.738   3.685   7.893  0.2288 -0.3372 -0.8648
   65SAPC  H14Y 5391   2.821   3.532   7.851 -0.0896 -0.1183  0.6433
   65SAPC  C315 5392   2.721   3.516   8.034 -0.3256  0.5412  0.1685
   65SAPC  H15X 5393   2.812   3.548   8.090 -1.5896  0.6356  2.2908
   65SAPC  H15Y 5394   2.725   3.405   8.023  0.9699  0.6808 -0.9982
   65SAPC  C316 5395   2.595   3.544   8.125 -0.4766  0.3235  1.0598
   65SAPC  H16X 5396   2.589   3.448   8.181 -0.8061 -1.6077 -2.0371
   65SAPC  H16Y 5397   2.501   3.555   8.067 -0.9291 -0.0963  1.7070
   65SAPC  C317 5398   2.607   3.673   8.205 -0.2602  0.3683  0.0977
   65SAPC  H17X 5399   2.504   3.711   8.222 -0.1081  0.6830  0.3172
   65SAPC  H17Y 5400   2.666   3.750   8.151  1.0948 -0.1839  0.7342
   65SAPC  C318 5401   2.664   3.650   8.345 -0.3668 -0.3536  0.4295
   65SAPC  H18X 5402   2.581   3.596   8.393 -1.7644  1.3043 -0.0110
   65SAPC  H18Y 5403   2.676   3.741   8.409 -2.3717 -0.0046  0.3677
   65SAPC  H18Z 5404   2.755   3.586   8.342 -0.1753 -0.2344 -4.6173
   66SAPC     N 5405   0.420   4.119   5.981 -0.1832  0.0562  0.2371
   66SAPC   C12 5406   0.392   4.015   6.091  0.3631  0.3256  0.5947
   66SAPC  H12A 5407   0.474   3.945   6.099 -1.0434 -1.2876  1.4548
   66SAPC  H12B 5408   0.318   3.947   6.052  3.4745 -3.0834  0.1665
   66SAPC   C13 5409   0.281   4.185   5.935  0.2641  0.1926  0.1699
   66SAPC  H13A 5410   0.218   4.107   5.894 -0.9207  2.1835 -2.0216
   66SAPC  H13B 5411   0.231   4.238   6.015 -0.8153 -1.0188  0.3431
   66SAPC  H13C 5412   0.306   4.246   5.850  1.9578 -2.1307 -1.1021
   66SAPC   C14 5413   0.519   4.231   6.010  0.5394  0.6958  0.1394
   66SAPC  H14A 5414   0.496   4.291   6.097  0.6474  1.2138 -0.1859
   66SAPC  H14B 5415   0.611   4.185   6.043  1.3076  2.2586  0.2838
   66SAPC  H14C 5416   0.522   4.293   5.921  1.2144  0.6818  0.1474
   66SAPC   C15 5417   0.464   4.060   5.854 -0.0710 -0.1159 -0.1839
   66SAPC  H15A 5418   0.555   4.005   5.877 -1.0637 -1.1401  1.5187
   66SAPC  H15B 5419   0.395   3.990   5.809  1.1029 -1.5843  0.2245
   66SAPC  H15C 5420   0.486   4.139   5.784 -0.0404  0.6929  0.7109
   66SAPC   C11 5421   0.333   4.066   6.227  0.2713 -0.2079  0.1676
   66SAPC  H11A 5422   0.394   4.155   6.256  1.8897 -0.9709 -0.7215
   66SAPC  H11B 5423   0.357   3.986   6.300 -2.5855 -2.1239 -0.8543
   66SAPC     P 5424   0.084   3.964   6.203  0.2352  0.2829 -0.6066
   66SAPC   O13 5425  -0.047   4.035   6.192 -0.0534  0.3514  0.3420
   66SAPC   O14 5426   0.108   3.869   6.092 -0.3049 -0.4504  0.3674
   66SAPC   O12 5427   0.195   4.075   6.212 -0.3748 -0.0989  0.2319
   66SAPC   O11 5428   0.097   3.882   6.344  0.1243 -0.1044 -0.4200
   66SAPC    C1 5429   0.138   3.959   6.458  1.2118  0.2256 -0.2564
   66SAPC    HA 5430   0.248   3.956   6.475  1.1265  1.1408  0.5370
   66SAPC    HB 5431   0.103   4.064   6.453  1.2309  0.1855 -1.5236
   66SAPC    C2 5432   0.062   3.908   6.584  0.5392 -0.6237  0.0299
   66SAPC    HS 5433   0.098   3.976   6.664 -0.3420  0.7377 -0.7011
   66SAPC   O21 5434   0.091   3.765   6.606 -0.4936  0.3164  0.0163
   66SAPC   C21 5435   0.069   3.730   6.727  0.0686  0.2356  0.3396
   66SAPC   O22 5436   0.025   3.798   6.817  0.3983 -0.0096 -0.3212
   66SAPC   C22 5437   0.101   3.580   6.741 -0.7337 -0.0548 -0.6461
   66SAPC   H2R 5438   0.040   3.525   6.666 -0.4174 -1.2193 -0.0594
   66SAPC   H2S 5439   0.205   3.566   6.705 -0.2198 -2.2029  1.4568
   66SAPC    C3 5440  -0.092   3.928   6.571  0.1547 -0.1104 -0.4948
   66SAPC    HX 5441  -0.149   3.888   6.657  2.2188 -0.1709  0.8966
   66SAPC    HY 5442  -0.123   3.877   6.477 -1.0661 -0.7312  0.2094
   66SAPC   O31 5443  -0.121   4.066   6.555 -0.4889 -0.0273 -0.6238
   66SAPC   C31 5444  -0.250   4.091   6.567 -0.3545 -0.4336 -0.1026
   66SAPC   O32 5445  -0.340   4.013   6.582  0.2015  0.0723  0.2461
   66SAPC   C32 5446  -0.269   4.246   6.567 -0.0344 -0.3628 -0.0977
   66SAPC   H2X 5447  -0.288   4.279   6.462 -1.3209 -1.7872 -0.3504
   66SAPC   H2Y 5448  -0.172   4.292   6.594  0.8000 -1.6585 -0.7699
   66SAPC   C23 5449   0.090   3.530   6.884 -0.4442 -0.0130 -0.1412
   66SAPC   H3R 5450   0.001   3.567   6.939 -0.9216 -1.9698  0.4721
   66SAPC   H3S 5451   0.179   3.582   6.927 -0.3067 -0.9553  0.7502
   66SAPC   C24 5452   0.109   3.378   6.919 -0.1052  0.5479  0.0253
   66SAPC   H4R 5453   0.101   3.363   7.029  1.0255 -1.4384 -0.1290
   66SAPC   H4S 5454   0.212   3.340   6.905  0.3390  1.0274  1.7366
   66SAPC   C25 5455   0.007   3.291   6.845 -0.0245 -0.4155  0.2587
   66SAPC   H5R 5456   0.034   3.238   6.753  1.6902  0.5646  0.1361
   66SAPC   C26 5457  -0.107   3.251   6.894  0.0238 -0.5892  0.5377
   66SAPC   H6R 5458  -0.171   3.182   6.838 -1.7998  0.1852  1.5659
   66SAPC   C27 5459  -0.165   3.276   7.030  0.1855  0.3554 -0.5066
   66SAPC   H7R 5460  -0.098   3.251   7.115 -2.8377 -1.2607  1.5562
   66SAPC   H7S 5461  -0.247   3.202   7.035 -1.3589  1.9962 -0.2996
   66SAPC   C28 5462  -0.233   3.407   7.039 -0.1534 -0.4858 -1.1533
   66SAPC   H8R 5463  -0.217   3.469   6.949 -1.5843 -0.3436 -1.3280
   66SAPC   C29 5464  -0.303   3.455   7.143 -0.2792  0.2955  0.1634
   66SAPC   H9R 5465  -0.345   3.556   7.139 -0.7643  0.2262  2.3346
   66SAPC  C210 5466  -0.334   3.377   7.266  0.4111  1.0948 -1.1837
   66SAPC  H10R 5467  -0.238   3.380   7.322 -0.5577  0.1496  0.6310
   66SAPC  H10S 5468  -0.346   3.270   7.241  4.4241  0.5216 -1.2766
   66SAPC  C211 5469  -0.433   3.432   7.359 -0.0992 -0.3230  0.5398
   66SAPC  H11R 5470  -0.527   3.374   7.363  0.6899 -1.6813  0.0982
   66SAPC  C212 5471  -0.420   3.540   7.439 -0.1719  0.1756  0.6041
   66SAPC  H12R 5472  -0.506   3.570   7.501 -0.4046 -2.1019  1.4855
   66SAPC  C213 5473  -0.303   3.632   7.440 -0.0734  0.2066 -0.1864
   66SAPC  H13R 5474  -0.340   3.726   7.485 -1.2116 -0.9781  1.5266
   66SAPC  H13S 5475  -0.265   3.661   7.340 -0.4397 -1.3430 -0.8073
   66SAPC  C214 5476  -0.187   3.586   7.533  0.3567  0.0645  0.3655
   66SAPC  H14R 5477  -0.188   3.492   7.589  1.2547 -1.3200 -1.8050
   66SAPC  C215 5478  -0.069   3.646   7.540  0.7983 -0.0247 -0.4307
   66SAPC  H15R 5479   0.003   3.619   7.619 -0.4009  0.4446  0.8503
   66SAPC  C216 5480  -0.026   3.763   7.463 -0.4532  0.1626  0.7652
   66SAPC  H16R 5481   0.017   3.833   7.538  1.0147 -1.7046  1.7410
   66SAPC  H16S 5482  -0.107   3.816   7.407  0.8943  0.3561 -1.0799
   66SAPC  C217 5483   0.096   3.728   7.368  1.1961  0.0756  0.6244
   66SAPC  H17R 5484   0.155   3.659   7.433  0.2948  0.6032  2.0501
   66SAPC  H17S 5485   0.155   3.821   7.355  0.9741 -0.0185 -1.4373
   66SAPC  C218 5486   0.046   3.675   7.226 -0.3066  0.4872  0.2598
   66SAPC  H18R 5487  -0.033   3.597   7.214  0.3730  0.0757 -2.1362
   66SAPC  H18S 5488   0.131   3.630   7.170 -1.3812 -1.6731  0.2528
   66SAPC  C219 5489  -0.026   3.783   7.140  0.4044  0.2195 -0.3677
   66SAPC  H19R 5490  -0.122   3.800   7.194  0.1736 -0.8769 -0.4118
   66SAPC  H19S 5491  -0.047   3.751   7.035  1.0578  1.4764 -0.9057
   66SAPC  C220 5492   0.035   3.927   7.121 -0.1413  0.2131  0.0924
   66SAPC  H20R 5493   0.127   3.918   7.060  0.0908 -1.0570  0.5852
   66SAPC  H20S 5494   0.060   3.981   7.214  1.9660  1.5312 -1.1606
   66SAPC  H20T 5495  -0.044   3.976   7.061  1.7238  1.3543 -1.5300
   66SAPC   C33 5496  -0.382   4.283   6.666 -0.2863 -0.1103  0.1543
   66SAPC   H3X 5497  -0.470   4.218   6.646  0.5085 -1.5365  1.1355
   66SAPC   H3Y 5498  -0.405   4.391   6.656 -2.1751 -0.3953  0.9164
   66SAPC   C34 5499  -0.338   4.261   6.807 -0.4816  0.3879 -0.5525
   66SAPC   H4X 5500  -0.252   4.330   6.822 -0.0150 -0.1389 -0.7844
   66SAPC   H4Y 5501  -0.294   4.159   6.812  0.2910  0.7069 -0.8037
   66SAPC   C35 5502  -0.446   4.266   6.913  0.0712  0.1494  0.0613
   66SAPC   H5X 5503  -0.519   4.185   6.890  1.2349 -1.0777  0.5291
   66SAPC   H5Y 5504  -0.503   4.361   6.905 -0.9497 -0.4293  0.2333
   66SAPC   C36 5505  -0.398   4.250   7.057  0.3380  0.4790  1.0295
   66SAPC   H6X 5506  -0.296   4.206   7.056 -0.4314 -1.4259  1.6253
   66SAPC   H6Y 5507  -0.473   4.186   7.108  0.9273  1.1311  2.7880
   66SAPC   C37 5508  -0.400   4.380   7.141 -0.1811 -0.6459 -0.5993
   66SAPC   H7X 5509  -0.499   4.429   7.129  1.1175  1.9107 -1.6632
   66SAPC   H7Y 5510  -0.328   4.460   7.112 -1.3067  0.8523  0.6011
   66SAPC   C38 5511  -0.391   4.342   7.290  0.7384  0.2851 -0.2979
   66SAPC   H8X 5512  -0.288   4.308   7.314 -0.4989 -1.1305  3.7456
   66SAPC   H8Y 5513  -0.461   4.259   7.309  1.5986  0.1474  2.8437
   66SAPC   C39 5514  -0.423   4.464   7.370  0.4164  0.2665  0.5107
   66SAPC   H9X 5515  -0.526   4.491   7.340  0.5027  1.2533  1.0597
   66SAPC   H9Y 5516  -0.364   4.555   7.344 -1.1464  1.3479  0.6438
   66SAPC  C310 5517  -0.435   4.444   7.519  0.3051  0.1467 -0.6852
   66SAPC  H10X 5518  -0.339   4.401   7.555 -0.1863  0.8747  1.6605
   66SAPC  H10Y 5519  -0.520   4.374   7.536 -0.9921  1.7438 -0.4167
   66SAPC  C311 5520  -0.454   4.565   7.599  0.0297  0.0891 -0.0418
   66SAPC  H11X 5521  -0.563   4.584   7.588  0.1494  0.5669 -0.4380
   66SAPC  H11Y 5522  -0.395   4.649   7.557 -0.1973  0.1447 -0.2510
   66SAPC  C312 5523  -0.407   4.546   7.741  0.4066 -0.4194 -0.1183
   66SAPC  H12X 5524  -0.323   4.474   7.751 -1.0555 -2.0251  1.2878
   66SAPC  H12Y 5525  -0.487   4.486   7.789  0.0749 -0.4473 -0.7036
   66SAPC  C313 5526  -0.382   4.675   7.811  0.6759  0.2544  0.1506
   66SAPC  H13X 5527  -0.466   4.744   7.792  1.8001  0.7385 -4.0870
   66SAPC  H13Y 5528  -0.291   4.719   7.765  1.9921 -1.1131  1.3048
   66SAPC  C314 5529  -0.358   4.654   7.964 -0.0144  0.1180 -0.3698
   66SAPC  H14X 5530  -0.268   4.590   7.977  0.9325  1.5659  0.5313
   66SAPC  H14Y 5531  -0.442   4.594   8.006 -0.5251  0.2145 -1.2412
   66SAPC  C315 5532  -0.358   4.792   8.035  0.5030 -0.0106  0.1518
   66SAPC  H15X 5533  -0.446   4.850   7.999  0.9371  0.0189 -0.8918
   66SAPC  H15Y 5534  -0.268   4.851   8.007  1.4680 -1.7657 -0.5931
   66SAPC  C316 5535  -0.359   4.773   8.193 -0.3203 -0.2342 -0.0434
   66SAPC  H16X 5536  -0.318   4.861   8.245  1.2267 -0.9128 -0.0655
   66SAPC  H16Y 5537  -0.295   4.684   8.213  1.4175  1.6760  3.9232
   66SAPC  C317 5538  -0.502   4.747   8.243  0.3249 -1.1512 -0.2516
   66SAPC  H17X 5539  -0.538   4.648   8.209 -2.0302  0.3967 -2.6242
   66SAPC  H17Y 5540  -0.576   4.813   8.193  0.3106 -1.2859 -0.4081
   66SAPC  C318 5541  -0.531   4.760   8.391 -0.6152 -0.3489 -0.1213
   66SAPC  H18X 5542  -0.641   4.749   8.408 -0.5338  0.9694  1.5147
   66SAPC  H18Y 5543  -0.503   4.855   8.440 -0.5587  0.4791 -1.7223
   66SAPC  H18Z 5544  -0.482   4.675   8.445  0.6116  1.4037  1.6522
   67SAPC     N 5545   2.750   5.227   6.248  0.2999  0.4493 -0.6777
   67SAPC   C12 5546   2.738   5.244   6.400 -0.1461 -0.1209  0.1447
   67SAPC  H12A 5547   2.818   5.314   6.418 -2.9683  4.1454 -2.2060
   67SAPC  H12B 5548   2.763   5.158   6.460 -0.8301  0.1463  0.8347
   67SAPC   C13 5549   2.639   5.143   6.191  0.4261 -0.2870 -0.3329
   67SAPC  H13A 5550   2.622   5.050   6.243 -1.6764  0.4415  0.4246
   67SAPC  H13B 5551   2.547   5.200   6.193 -1.5895 -3.2601 -1.5533
   67SAPC  H13C 5552   2.658   5.128   6.086  0.1388  0.8578 -0.5721
   67SAPC   C14 5553   2.750   5.348   6.169 -0.1142 -0.4481 -0.5886
   67SAPC  H14A 5554   2.846   5.396   6.177  0.5221 -1.5751 -1.1847
   67SAPC  H14B 5555   2.732   5.328   6.064  2.8533 -1.7953 -0.9491
   67SAPC  H14C 5556   2.675   5.413   6.210 -2.1158 -1.6429 -2.1845
   67SAPC   C15 5557   2.879   5.164   6.213  0.1325 -0.1791  0.0510
   67SAPC  H15A 5558   2.898   5.066   6.253 -2.5161 -1.5913 -1.7956
   67SAPC  H15B 5559   2.898   5.142   6.109 -3.1568 -0.9641 -0.5085
   67SAPC  H15C 5560   2.954   5.237   6.241 -1.8936  1.4484  1.5745
   67SAPC   C11 5561   2.610   5.302   6.461  0.5897 -0.3969  0.1998
   67SAPC  H11A 5562   2.614   5.307   6.572 -0.2960  1.4971  0.1765
   67SAPC  H11B 5563   2.522   5.238   6.436  1.3124 -1.8803  1.2854
   67SAPC     P 5564   2.683   5.549   6.492 -0.3535  0.1063  0.1567
   67SAPC   O13 5565   2.819   5.499   6.530 -0.2339  0.1701 -0.1992
   67SAPC   O14 5566   2.671   5.662   6.399 -0.2554 -0.2067 -0.4610
   67SAPC   O12 5567   2.596   5.439   6.419  0.0615 -0.0112 -0.7223
   67SAPC   O11 5568   2.611   5.578   6.622  0.3976  0.0743 -0.2840
   67SAPC    C1 5569   2.477   5.614   6.633  0.0060  0.5531 -0.1103
   67SAPC    HA 5570   2.452   5.717   6.601  1.2577  0.4443 -1.5217
   67SAPC    HB 5571   2.411   5.544   6.576  0.3759  0.0432  0.0776
   67SAPC    C2 5572   2.437   5.598   6.780 -0.0584 -0.3270  0.0404
   67SAPC    HS 5573   2.327   5.607   6.789  0.0113 -0.1654  0.7311
   67SAPC   O21 5574   2.502   5.710   6.855  0.3929  0.5032 -0.4895
   67SAPC   C21 5575   2.431   5.827   6.854  0.5272 -0.6773 -0.2441
   67SAPC   O22 5576   2.320   5.845   6.809 -0.7146 -0.5233 -0.4718
   67SAPC   C22 5577   2.509   5.926   6.944 -0.1528 -0.5134  0.7617
   67SAPC   H2R 5578   2.610   5.886   6.965  1.5469  1.3275 -2.9026
   67SAPC   H2S 5579   2.531   6.011   6.876  0.3404 -1.4742 -0.3203
   67SAPC    C3 5580   2.470   5.457   6.835 -0.1744  0.0555  0.3985
   67SAPC    HX 5581   2.576   5.429   6.813 -0.9046 -1.4003 -1.6222
   67SAPC    HY 5582   2.414   5.375   6.784  0.8786 -1.3905  1.4658
   67SAPC   O31 5583   2.439   5.437   6.974  0.3584  0.0872 -0.3116
   67SAPC   C31 5584   2.535   5.478   7.059 -0.5591 -0.5367  0.3399
   67SAPC   O32 5585   2.649   5.512   7.027 -1.0021  0.3757  0.1219
   67SAPC   C32 5586   2.470   5.482   7.197 -0.1807 -0.1410 -0.4216
   67SAPC   H2X 5587   2.423   5.385   7.222 -1.0308  0.3074 -0.2436
   67SAPC   H2Y 5588   2.384   5.553   7.195 -0.6825 -0.6827  0.6370
   67SAPC   C23 5589   2.440   5.968   7.072  0.1099  0.0478 -0.0740
   67SAPC   H3R 5590   2.347   6.020   7.039  1.2086  1.7804 -0.5147
   67SAPC   H3S 5591   2.493   6.044   7.132  0.5450 -1.1011  1.0318
   67SAPC   C24 5592   2.413   5.856   7.175  0.4029 -0.2136  0.3946
   67SAPC   H4R 5593   2.504   5.846   7.238  0.2304 -0.0056  0.6753
   67SAPC   H4S 5594   2.399   5.758   7.124 -0.0849 -1.1225  2.2137
   67SAPC   C25 5595   2.298   5.891   7.264 -0.3636 -1.1602  0.3184
   67SAPC   H5R 5596   2.200   5.880   7.215  0.7342  0.4579 -2.5161
   67SAPC   C26 5597   2.299   5.935   7.389 -0.1018 -0.1962  0.1718
   67SAPC   H6R 5598   2.202   5.936   7.441  0.8165  0.1499  1.9675
   67SAPC   C27 5599   2.419   5.945   7.471 -0.4539 -0.3925  0.3714
   67SAPC   H7R 5600   2.508   5.894   7.430 -1.0429 -0.9057 -0.3108
   67SAPC   H7S 5601   2.403   5.888   7.566  0.2318 -1.7221 -0.2809
   67SAPC   C28 5602   2.431   6.093   7.494 -0.8412  0.2446 -0.4296
   67SAPC   H8R 5603   2.446   6.154   7.403 -0.9238  1.7029  0.4926
   67SAPC   C29 5604   2.423   6.137   7.623 -0.4622 -0.2076  0.0745
   67SAPC   H9R 5605   2.446   6.243   7.640  1.0468 -0.1759 -1.7694
   67SAPC  C210 5606   2.396   6.062   7.750 -0.4849  0.5609  0.2730
   67SAPC  H10R 5607   2.494   6.020   7.780 -0.5315  0.4270  0.2376
   67SAPC  H10S 5608   2.322   5.983   7.727 -2.7123  1.8414  2.5941
   67SAPC  C211 5609   2.317   6.142   7.854 -0.9537 -0.3594  0.0202
   67SAPC  H11R 5610   2.255   6.223   7.814 -0.9577 -0.7958 -0.8917
   67SAPC  C212 5611   2.308   6.112   7.982 -0.0246 -0.0405 -0.5812
   67SAPC  H12R 5612   2.244   6.178   8.042  0.6657  0.3766 -0.2932
   67SAPC  C213 5613   2.374   6.002   8.054 -0.0672  0.3301 -0.2985
   67SAPC  H13R 5614   2.411   6.041   8.151 -3.8295 -1.2575  2.0012
   67SAPC  H13S 5615   2.460   5.965   7.994  0.7363  1.4531  0.1225
   67SAPC  C214 5616   2.279   5.890   8.093  0.3783  0.4060  1.0226
   67SAPC  H14R 5617   2.249   5.822   8.013 -0.6299 -1.4895  2.9163
   67SAPC  C215 5618   2.247   5.870   8.222 -0.0963  0.1169 -0.3259
   67SAPC  H15R 5619   2.172   5.797   8.255 -0.5605  1.5019  1.8739
   67SAPC  C216 5620   2.284   5.959   8.339 -0.1542 -0.1693  0.4292
   67SAPC  H16R 5621   2.318   6.060   8.309  1.4610  0.0441  2.7269
   67SAPC  H16S 5622   2.369   5.927   8.403 -0.1809  0.4883  0.7973
   67SAPC  C217 5623   2.160   5.963   8.435 -0.3828 -0.1889 -0.6776
   67SAPC  H17R 5624   2.162   5.856   8.465  1.5469  0.2068  0.8261
   67SAPC  H17S 5625   2.071   5.987   8.373 -0.4427  3.5766  0.6214
   67SAPC  C218 5626   2.170   6.061   8.545  0.1876 -0.3415 -0.1733
   67SAPC  H18R 5627   2.185   6.162   8.500  3.5921 -1.6499 -2.4475
   67SAPC  H18S 5628   2.260   6.051   8.610 -1.1833  1.3247  2.1260
   67SAPC  C219 5629   2.041   6.049   8.632 -0.2151  0.2530 -0.5624
   67SAPC  H19R 5630   1.957   6.032   8.561  1.0041  0.1012 -2.0333
   67SAPC  H19S 5631   2.025   6.149   8.676  1.6322  0.1520  0.4335
   67SAPC  C220 5632   2.041   5.944   8.745  0.0138 -0.2042 -0.3971
   67SAPC  H20R 5633   2.129   5.946   8.812 -1.5249 -0.1651  1.7325
   67SAPC  H20S 5634   2.041   5.839   8.708  2.3945 -1.0908  1.8091
   67SAPC  H20T 5635   1.947   5.955   8.803  0.2421  0.3796 -0.1326
   67SAPC   C33 5636   2.562   5.534   7.312  0.2978 -0.7254 -0.0910
   67SAPC   H3X 5637   2.617   5.623   7.276  0.5146 -0.5330  0.7042
   67SAPC   H3Y 5638   2.643   5.460   7.327  0.6287 -0.2889  0.2736
   67SAPC   C34 5639   2.488   5.551   7.444 -0.2745 -0.1785 -0.0146
   67SAPC   H4X 5640   2.417   5.466   7.457  1.9986 -2.1659  0.0624
   67SAPC   H4Y 5641   2.431   5.647   7.442 -0.0120 -0.0378 -0.8104
   67SAPC   C35 5642   2.576   5.561   7.574  0.6246  0.0162 -0.0947
   67SAPC   H5X 5643   2.647   5.645   7.560  0.3130 -0.0402 -2.2711
   67SAPC   H5Y 5644   2.620   5.460   7.586 -2.6167 -1.4149  0.8791
   67SAPC   C36 5645   2.503   5.598   7.709 -0.6840 -0.5439  0.2673
   67SAPC   H6X 5646   2.425   5.523   7.735 -0.7975 -0.8478 -0.9216
   67SAPC   H6Y 5647   2.448   5.692   7.688  1.6285  0.8287  0.0243
   67SAPC   C37 5648   2.608   5.608   7.821 -0.7302  0.0728  0.1110
   67SAPC   H7X 5649   2.670   5.696   7.793  1.2392 -1.2328  0.1492
   67SAPC   H7Y 5650   2.673   5.518   7.820  0.1652  0.7040 -0.7621
   67SAPC   C38 5651   2.555   5.649   7.959 -0.6773  0.0655 -0.6889
   67SAPC   H8X 5652   2.461   5.594   7.983 -0.5469  0.0986 -0.0893
   67SAPC   H8Y 5653   2.522   5.755   7.957 -3.1748 -0.6363 -2.4643
   67SAPC   C39 5654   2.657   5.638   8.072  0.0449  0.5837  1.1210
   67SAPC   H9X 5655   2.750   5.678   8.027  0.2363 -0.8097  0.2304
   67SAPC   H9Y 5656   2.674   5.530   8.090 -0.3510  0.1424 -0.9994
   67SAPC  C310 5657   2.612   5.719   8.191 -0.0494  0.0627 -0.9911
   67SAPC  H10X 5658   2.522   5.665   8.229  0.0131  0.3564 -0.4221
   67SAPC  H10Y 5659   2.587   5.826   8.175  0.6436  0.3715 -0.0544
   67SAPC  C311 5660   2.717   5.728   8.306  0.3712  0.2054 -0.2909
   67SAPC  H11X 5661   2.815   5.765   8.270  0.5304 -0.1130 -0.1967
   67SAPC  H11Y 5662   2.750   5.628   8.343 -0.0218 -0.9909 -2.9161
   67SAPC  C312 5663   2.663   5.815   8.421 -0.8088  0.1835 -0.0675
   67SAPC  H12X 5664   2.575   5.773   8.474 -0.7966 -1.3982 -1.2561
   67SAPC  H12Y 5665   2.626   5.916   8.392 -0.9374 -0.1513 -1.1103
   67SAPC  C313 5666   2.781   5.819   8.528  0.2110  0.7312  0.3670
   67SAPC  H13X 5667   2.865   5.872   8.478 -0.2602  0.6470 -0.5404
   67SAPC  H13Y 5668   2.803   5.718   8.569  0.1006  1.5117  2.4934
   67SAPC  C314 5669   2.737   5.902   8.653  0.3279 -0.1282  0.5954
   67SAPC  H14X 5670   2.677   5.987   8.613 -0.8067 -0.8393  0.7334
   67SAPC  H14Y 5671   2.831   5.941   8.696 -0.0414  0.9557  0.4543
   67SAPC  C315 5672   2.659   5.810   8.750  0.4192 -0.4722  0.2860
   67SAPC  H15X 5673   2.729   5.749   8.812  0.2434  0.0640  1.0252
   67SAPC  H15Y 5674   2.584   5.756   8.688  0.5236  0.1667 -0.4067
   67SAPC  C316 5675   2.573   5.899   8.850  0.2225  0.0428 -0.0983
   67SAPC  H16X 5676   2.523   5.975   8.786  1.2382 -0.3618 -1.4294
   67SAPC  H16Y 5677   2.637   5.958   8.919 -0.5498  1.4989 -0.5832
   67SAPC  C317 5678   2.469   5.809   8.918  0.0311  0.1552  0.4604
   67SAPC  H17X 5679   2.526   5.723   8.960  2.0332  0.1602 -2.0835
   67SAPC  H17Y 5680   2.403   5.761   8.842 -1.0704  1.1869  0.7272
   67SAPC  C318 5681   2.385   5.880   9.026 -0.4122 -0.3737  0.7400
   67SAPC  H18X 5682   2.331   5.961   8.973  0.7723  1.5050  2.2719
   67SAPC  H18Y 5683   2.455   5.931   9.094 -0.5472 -1.3823  1.6604
   67SAPC  H18Z 5684   2.328   5.799   9.077  2.4644 -1.9452  1.7140
   68SAPC     N 5685   6.770   4.670   6.374  0.1519  0.2759  0.0085
   68SAPC   C12 5686   6.890   4.754   6.400 -0.3546 -0.1536 -0.1589
   68SAPC  H12A 5687   6.910   4.749   6.506 -1.7704 -1.9266  0.0784
   68SAPC  H12B 5688   6.869   4.858   6.378 -0.2102 -0.1204 -0.1416
   68SAPC   C13 5689   6.660   4.705   6.480  0.2905 -0.5507  0.2126
   68SAPC  H13A 5690   6.698   4.675   6.577 -0.6800 -2.1378  0.1412
   68SAPC  H13B 5691   6.631   4.808   6.468  0.0350 -0.8069 -1.6564
   68SAPC  H13C 5692   6.565   4.660   6.455 -1.1746  3.0901 -1.4925
   68SAPC   C14 5693   6.711   4.682   6.237  0.1529  0.1065 -0.0017
   68SAPC  H14A 5694   6.787   4.647   6.168  0.0682 -2.0730  0.9333
   68SAPC  H14B 5695   6.628   4.613   6.232  0.7013 -0.4891 -2.1992
   68SAPC  H14C 5696   6.691   4.785   6.211  4.8233  1.3007  0.2421
   68SAPC   C15 5697   6.814   4.528   6.395  0.1988 -0.1018  0.1356
   68SAPC  H15A 5698   6.900   4.500   6.337  0.0229  2.3776 -1.4657
   68SAPC  H15B 5699   6.844   4.524   6.499  2.0369 -0.1064 -0.3687
   68SAPC  H15C 5700   6.736   4.454   6.392 -0.1276  0.2021  0.8642
   68SAPC   C11 5701   7.035   4.713   6.334  0.2331 -0.3875  0.3888
   68SAPC  H11A 5702   7.093   4.802   6.367 -0.9643 -0.0412  1.6590
   68SAPC  H11B 5703   7.014   4.710   6.226 -1.9433 -0.5311  0.7803
   68SAPC     P 5704   7.219   4.526   6.311 -0.5595 -0.6974  0.0513
   68SAPC   O13 5705   7.177   4.487   6.180 -0.3488  0.0392  0.4315
   68SAPC   O14 5706   7.342   4.608   6.320  0.1234  0.1352 -0.0867
   68SAPC   O12 5707   7.098   4.597   6.388 -0.4142  0.1834 -0.3665
   68SAPC   O11 5708   7.239   4.395   6.396  0.1192 -0.4576  0.0495
   68SAPC    C1 5709   7.195   4.376   6.528 -0.4883  0.1111  0.0949
   68SAPC    HA 5710   7.249   4.448   6.593 -1.4313  0.4946  0.4756
   68SAPC    HB 5711   7.086   4.397   6.541 -0.7719 -2.0616  1.9217
   68SAPC    C2 5712   7.238   4.231   6.573  1.0550 -0.0094 -0.5112
   68SAPC    HS 5713   7.152   4.171   6.535 -0.6104  0.3463  2.3242
   68SAPC   O21 5714   7.240   4.236   6.717 -0.3715  0.0416 -0.4402
   68SAPC   C21 5715   7.225   4.123   6.774  0.1761 -0.7269 -0.1844
   68SAPC   O22 5716   7.170   4.025   6.739 -0.0491  0.2062  0.4384
   68SAPC   C22 5717   7.281   4.133   6.923  0.0478  0.2063  0.8721
   68SAPC   H2R 5718   7.392   4.139   6.918  0.0531  2.0121  2.0198
   68SAPC   H2S 5719   7.244   4.227   6.970  2.0727  1.1423  0.7137
   68SAPC    C3 5720   7.376   4.183   6.516 -0.5437  0.1485  0.8999
   68SAPC    HX 5721   7.447   4.269   6.512 -0.4700  0.0669 -2.0805
   68SAPC    HY 5722   7.341   4.166   6.412 -1.3550 -1.0292  1.3448
   68SAPC   O31 5723   7.424   4.063   6.576  0.2644 -0.7066 -0.5473
   68SAPC   C31 5724   7.419   3.951   6.507 -0.1888  0.1024 -0.0519
   68SAPC   O32 5725   7.388   3.932   6.391 -0.8419  0.1347  0.3223
   68SAPC   C32 5726   7.436   3.834   6.605 -0.1341 -0.2859 -0.0391
   68SAPC   H2X 5727   7.450   3.742   6.544  0.8107  0.6465 -1.2891
   68SAPC   H2Y 5728   7.347   3.840   6.672  0.8001 -0.6318  1.2604
   68SAPC   C23 5729   7.226   4.022   7.017  0.1596  0.8415  0.7113
   68SAPC   H3R 5730   7.246   3.918   6.983  1.7796  1.9279 -1.8964
   68SAPC   H3S 5731   7.115   4.030   7.023  0.0566  0.4353 -0.5049
   68SAPC   C24 5732   7.290   4.032   7.167  0.6435  0.8310 -0.2741
   68SAPC   H4R 5733   7.269   4.139   7.189 -4.0857 -0.2122  1.4746
   68SAPC   H4S 5734   7.397   4.005   7.149  0.4482  0.1085 -0.4049
   68SAPC   C25 5735   7.214   3.951   7.269 -0.1248  0.0972  0.1268
   68SAPC   H5R 5736   7.109   3.937   7.238 -0.4677  0.6734  0.9720
   68SAPC   C26 5737   7.269   3.889   7.374  0.1341  0.3476 -0.0500
   68SAPC   H6R 5738   7.199   3.826   7.431 -1.2791 -1.3024 -3.3546
   68SAPC   C27 5739   7.404   3.894   7.429 -0.4963 -0.3359  0.1887
   68SAPC   H7R 5740   7.460   3.968   7.368  0.4709 -0.1556  1.2493
   68SAPC   H7S 5741   7.450   3.793   7.423 -1.1169 -0.5535 -1.3487
   68SAPC   C28 5742   7.413   3.945   7.579  0.2442 -0.4863  0.2486
   68SAPC   H8R 5743   7.482   4.030   7.587  1.5485 -1.3429 -1.2780
   68SAPC   C29 5744   7.339   3.912   7.692 -0.3749  0.8758  0.1017
   68SAPC   H9R 5745   7.380   3.944   7.789 -0.6167 -0.1650  0.5559
   68SAPC  C210 5746   7.236   3.801   7.710  0.1183 -1.0857 -0.3364
   68SAPC  H10R 5747   7.137   3.838   7.677  0.8208  0.6895 -0.5620
   68SAPC  H10S 5748   7.227   3.775   7.817 -2.0630  0.8456  0.0185
   68SAPC  C211 5749   7.273   3.657   7.658  0.4056  0.9301  0.6026
   68SAPC  H11R 5750   7.356   3.646   7.588  0.9734  2.4427  0.9901
   68SAPC  C212 5751   7.221   3.543   7.713  0.3242  0.0872  0.0067
   68SAPC  H12R 5752   7.259   3.448   7.673  1.7057 -1.0944  3.6505
   68SAPC  C213 5753   7.126   3.525   7.825  0.4070  0.3958  0.0758
   68SAPC  H13R 5754   7.077   3.621   7.850 -0.3606  1.0831 -3.5269
   68SAPC  H13S 5755   7.186   3.495   7.913 -0.1725  1.0679  0.7078
   68SAPC  C214 5756   7.026   3.414   7.802  0.6279 -0.1060 -0.7331
   68SAPC  H14R 5757   7.066   3.319   7.767  0.4276 -0.8104  0.8378
   68SAPC  C215 5758   6.888   3.427   7.820 -0.0485 -0.3273 -0.4324
   68SAPC  H15R 5759   6.823   3.339   7.812  1.1344 -1.1977 -0.8033
   68SAPC  C216 5760   6.813   3.544   7.880 -0.0204 -0.2827  0.6441
   68SAPC  H16R 5761   6.718   3.550   7.824  1.0480 -0.4643 -1.2496
   68SAPC  H16S 5762   6.862   3.642   7.864 -2.0253  0.5981 -0.3822
   68SAPC  C217 5763   6.777   3.531   8.033 -0.3925  0.0474  0.2853
   68SAPC  H17R 5764   6.743   3.426   8.048 -2.5185  0.8360  1.4199
   68SAPC  H17S 5765   6.694   3.604   8.048  0.3052  0.4862  2.4453
   68SAPC  C218 5766   6.890   3.556   8.128 -0.2713  0.2108  0.3622
   68SAPC  H18R 5767   6.910   3.664   8.148 -4.5619  1.1365  0.6693
   68SAPC  H18S 5768   6.982   3.516   8.080 -0.5360  0.3618 -0.2783
   68SAPC  C219 5769   6.875   3.486   8.255 -0.6353  0.6886  0.1322
   68SAPC  H19R 5770   6.982   3.490   8.287 -0.4562  2.5608 -0.5590
   68SAPC  H19S 5771   6.848   3.379   8.249  1.2680  0.2383 -1.4999
   68SAPC  C220 5772   6.802   3.562   8.368 -0.5537 -0.3211  0.0864
   68SAPC  H20R 5773   6.836   3.667   8.377  0.3149 -0.6403  0.5953
   68SAPC  H20S 5774   6.814   3.508   8.464  0.2364 -0.1753  0.0702
   68SAPC  H20T 5775   6.692   3.561   8.349 -1.3207  0.2012  3.8451
   68SAPC   C33 5776   7.552   3.860   6.702  0.3474  0.4405  0.2021
   68SAPC   H3X 5777   7.549   3.958   6.754  0.2200  0.9346 -0.7147
   68SAPC   H3Y 5778   7.649   3.867   6.649  2.0880 -0.0422  3.1480
   68SAPC   C34 5779   7.572   3.750   6.807  0.4815  0.6788 -0.3159
   68SAPC   H4X 5780   7.657   3.784   6.870  0.4445 -0.4539  0.3771
   68SAPC   H4Y 5781   7.619   3.660   6.763  0.9264 -0.1288  1.6901
   68SAPC   C35 5782   7.455   3.709   6.894  1.1467  0.0788 -0.3702
   68SAPC   H5X 5783   7.360   3.690   6.840 -0.1706  0.5928  1.6323
   68SAPC   H5Y 5784   7.428   3.806   6.940  1.2833  0.1988 -0.5422
   68SAPC   C36 5785   7.482   3.609   7.012 -0.1755 -0.5016 -0.4452
   68SAPC   H6X 5786   7.547   3.660   7.087 -2.5927 -0.4918  1.7896
   68SAPC   H6Y 5787   7.520   3.507   6.988 -0.3343 -1.1143  1.6678
   68SAPC   C37 5788   7.355   3.583   7.099  0.9266  0.2825 -0.4022
   68SAPC   H7X 5789   7.287   3.504   7.061 -2.5189  1.0643  3.4342
   68SAPC   H7Y 5790   7.292   3.674   7.107 -0.3821 -0.7403  2.2645
   68SAPC   C38 5791   7.378   3.537   7.241 -0.2968  0.3663 -0.1034
   68SAPC   H8X 5792   7.441   3.606   7.300  1.5875 -1.3399 -0.0046
   68SAPC   H8Y 5793   7.437   3.442   7.245  0.3721  0.8002  3.4548
   68SAPC   C39 5794   7.243   3.513   7.319  0.1798 -0.0997  0.2267
   68SAPC   H9X 5795   7.185   3.608   7.323 -1.3617 -1.0350  2.2891
   68SAPC   H9Y 5796   7.265   3.486   7.424 -0.4622 -1.4861  0.0249
   68SAPC  C310 5797   7.150   3.401   7.266 -0.1688 -0.1679  0.9130
   68SAPC  H10X 5798   7.220   3.324   7.225 -1.5871  0.4953 -3.2455
   68SAPC  H10Y 5799   7.095   3.446   7.180  0.5586 -0.4645  0.2783
   68SAPC  C311 5800   7.050   3.343   7.361 -0.2770  0.1077 -0.7890
   68SAPC  H11X 5801   6.994   3.426   7.409  0.7809  0.6010 -0.3980
   68SAPC  H11Y 5802   7.106   3.293   7.443 -1.0471  0.8588  0.2189
   68SAPC  C312 5803   6.951   3.240   7.302 -0.2547 -0.4672  0.1344
   68SAPC  H12X 5804   6.874   3.294   7.243  1.3621  1.0127 -0.7106
   68SAPC  H12Y 5805   6.901   3.180   7.381 -0.0549  0.3990  0.9320
   68SAPC  C313 5806   7.016   3.138   7.205  0.0802  0.2005  0.2988
   68SAPC  H13X 5807   7.092   3.077   7.259  1.8077  1.8598 -0.1209
   68SAPC  H13Y 5808   7.064   3.193   7.120 -2.1343 -0.7254 -1.6526
   68SAPC  C314 5809   6.915   3.046   7.131 -0.0527  0.1020  0.0769
   68SAPC  H14X 5810   6.835   3.106   7.082 -1.1840  0.1592  1.9030
   68SAPC  H14Y 5811   6.867   2.983   7.208  2.6382 -1.2983  0.7370
   68SAPC  C315 5812   6.978   2.947   7.031 -0.0646  0.5598  0.3143
   68SAPC  H15X 5813   7.053   2.879   7.077 -0.8576 -0.5635 -0.0032
   68SAPC  H15Y 5814   7.048   3.002   6.965 -1.2624  0.7902 -0.7873
   68SAPC  C316 5815   6.874   2.877   6.949  0.2938 -0.3678  0.1155
   68SAPC  H16X 5816   6.828   2.935   6.866  1.1100  0.5742  0.3061
   68SAPC  H16Y 5817   6.792   2.839   7.015 -1.2467  2.5744  0.0388
   68SAPC  C317 5818   6.939   2.766   6.860 -0.2484  0.3366 -0.1788
   68SAPC  H17X 5819   6.864   2.737   6.783  0.8169 -1.5067 -0.5933
   68SAPC  H17Y 5820   6.965   2.688   6.935  0.4762  1.5364  0.8439
   68SAPC  C318 5821   7.066   2.810   6.787  1.2574 -0.4370  0.7242
   68SAPC  H18X 5822   7.087   2.739   6.704  1.8734  0.8442 -0.2380
   68SAPC  H18Y 5823   7.154   2.828   6.853  0.9942 -0.1479  1.0010
   68SAPC  H18Z 5824   7.037   2.905   6.739 -0.9557 -1.1287  0.5927
   69SLPC     N 5825   3.998   6.280  11.239  0.7867  0.4115  0.2726
   69SLPC   C13 5826   3.966   6.425  11.199 -0.7864 -0.5328  0.4166
   69SLPC  H13A 5827   3.869   6.433  11.152  0.4169  0.6992 -2.0047
   69SLPC  H13B 5828   3.984   6.489  11.284  1.2611 -1.1322  0.4905
   69SLPC  H13C 5829   4.036   6.452  11.122 -0.2023 -2.1099  0.3450
   69SLPC   C14 5830   3.899   6.229  11.349 -0.4298 -0.2796  0.1475
   69SLPC  H14A 5831   3.796   6.238  11.317 -1.1664 -2.5567  1.6231
   69SLPC  H14B 5832   3.902   6.122  11.363 -1.5270 -0.4055 -0.4310
   69SLPC  H14C 5833   3.921   6.272  11.445 -1.7017 -0.9616  0.7633
   69SLPC   C15 5834   4.135   6.279  11.294  0.2298  0.0115 -0.5159
   69SLPC  H15A 5835   4.200   6.316  11.217  1.0186 -0.7204 -0.2169
   69SLPC  H15B 5836   4.147   6.336  11.385 -1.2375  0.8213 -0.7907
   69SLPC  H15C 5837   4.165   6.177  11.315  0.8882 -0.5223 -3.6607
   69SLPC   C12 5838   3.991   6.185  11.113 -0.1749 -0.1817  0.3967
   69SLPC  H12A 5839   3.885   6.171  11.094 -0.1844 -0.4269  0.6259
   69SLPC  H12B 5840   4.036   6.087  11.124  0.2460 -0.4008 -2.3383
   69SLPC   C11 5841   4.048   6.233  10.986  0.3405 -0.0396  0.1326
   69SLPC  H11A 5842   3.998   6.329  10.960  0.9937 -0.1391 -1.6869
   69SLPC  H11B 5843   4.033   6.165  10.899 -2.1039 -1.7519  1.7596
   69SLPC     P 5844   4.279   6.117  11.019  0.2306 -0.3343 -0.0043
   69SLPC   O13 5845   4.377   6.144  11.130  0.2139  0.0841  0.2540
   69SLPC   O14 5846   4.190   6.003  11.041  0.0132 -0.5077 -0.4067
   69SLPC   O12 5847   4.189   6.250  11.003  0.2811 -0.3066  0.2017
   69SLPC   O11 5848   4.357   6.106  10.885 -0.0492 -0.1220  0.0420
   69SLPC    C1 5849   4.408   6.220  10.807 -1.1572  0.7083 -0.6696
   69SLPC    HA 5850   4.407   6.318  10.859  1.5636  0.9428 -0.9159
   69SLPC    HB 5851   4.512   6.208  10.769 -0.5423  0.1099  1.1156
   69SLPC    C2 5852   4.322   6.252  10.688  0.3889  0.6303 -0.1410
   69SLPC    HS 5853   4.218   6.260  10.729  0.6068  0.2659  0.5050
   69SLPC   O21 5854   4.341   6.134  10.605  0.1864  0.0698 -0.4093
   69SLPC   C21 5855   4.246   6.107  10.520 -0.3870 -0.0285 -0.1288
   69SLPC   O22 5856   4.130   6.154  10.522  0.0113 -0.1393  0.0674
   69SLPC   C22 5857   4.303   6.007  10.421 -0.1473 -0.0542 -0.3358
   69SLPC   H2R 5858   4.403   6.037  10.385 -0.3662 -0.3312 -1.1972
   69SLPC   H2S 5859   4.304   5.911  10.478 -1.7675  0.9132  1.4519
   69SLPC    C3 5860   4.360   6.382  10.609  0.2504  0.5246  0.1646
   69SLPC    HX 5861   4.464   6.365  10.575  0.6573  1.9566  0.5921
   69SLPC    HY 5862   4.358   6.452  10.696 -1.6641 -2.3505  2.6553
   69SLPC   O31 5863   4.260   6.421  10.511 -0.2133  0.0139 -0.2937
   69SLPC   C31 5864   4.284   6.532  10.448  0.2126  0.1347 -0.5642
   69SLPC   O32 5865   4.388   6.598  10.459  0.8548  0.6630  0.3067
   69SLPC   C32 5866   4.165   6.562  10.358  0.7035  0.2914  0.2734
   69SLPC   H2X 5867   4.108   6.641  10.411 -0.9370 -1.7600  1.7298
   69SLPC   H2Y 5868   4.112   6.465  10.340  0.3493  0.2580  1.3954
   69SLPC   C23 5869   4.202   5.990  10.305  0.7657  0.0832  0.3362
   69SLPC   H3R 5870   4.149   6.085  10.282  0.5135  0.6537  2.8930
   69SLPC   H3S 5871   4.128   5.913  10.336  0.1868  1.0162  1.3415
   69SLPC   C24 5872   4.275   5.923  10.185  0.0921  0.1334 -0.6782
   69SLPC   H4R 5873   4.198   5.855  10.142 -2.6989  1.9732  1.0315
   69SLPC   H4S 5874   4.362   5.868  10.226  0.4969  0.3659 -1.2082
   69SLPC   C25 5875   4.310   6.039  10.085  0.2398 -0.2053 -0.1625
   69SLPC   H5R 5876   4.365   6.114  10.145 -0.2749 -2.2358  3.1076
   69SLPC   H5S 5877   4.216   6.084  10.045  1.1928  2.0789  0.0269
   69SLPC   C26 5878   4.386   5.997   9.951 -0.0869  0.8179 -0.6524
   69SLPC   H6R 5879   4.333   5.912   9.903  1.0114  0.1996 -0.7908
   69SLPC   H6S 5880   4.484   5.951   9.977 -1.3255 -2.6367 -1.5916
   69SLPC   C27 5881   4.409   6.116   9.857  0.0117 -0.0767  0.2122
   69SLPC   H7R 5882   4.424   6.200   9.929 -0.1270  0.5309 -0.4547
   69SLPC   H7S 5883   4.316   6.148   9.805  0.5876  2.6190  0.7107
   69SLPC   C28 5884   4.525   6.092   9.761  0.2023 -0.0113  0.2513
   69SLPC   H8R 5885   4.619   6.054   9.808  0.3203 -0.9449 -0.7179
   69SLPC   H8S 5886   4.557   6.184   9.707 -0.8978  0.7605  0.8689
   69SLPC   C29 5887   4.480   5.998   9.650  0.5612 -0.2821 -0.7738
   69SLPC   H9R 5888   4.455   5.899   9.692 -1.8030  0.0191 -1.2919
   69SLPC  C210 5889   4.453   6.031   9.526 -0.7837 -0.0551 -0.1436
   69SLPC  H10R 5890   4.416   5.947   9.466 -0.0589 -0.2158 -0.3757
   69SLPC  C211 5891   4.463   6.157   9.446  0.9671  0.0979 -0.0067
   69SLPC  H11R 5892   4.430   6.241   9.509 -1.7159 -0.6855 -0.2665
   69SLPC  H11S 5893   4.398   6.152   9.356  0.2342  0.9476  0.4655
   69SLPC  C212 5894   4.607   6.184   9.405 -0.5111  0.8691 -0.0461
   69SLPC  H12R 5895   4.684   6.117   9.446 -1.4658 -0.2276  0.0231
   69SLPC  C213 5896   4.659   6.290   9.337  0.1358  0.2864 -0.1480
   69SLPC  H13R 5897   4.766   6.290   9.312  0.2994 -2.5430  0.2325
   69SLPC  C214 5898   4.578   6.411   9.281  0.6094 -0.0618  0.6654
   69SLPC  H14R 5899   4.641   6.502   9.288 -0.5000  1.4529 -4.6050
   69SLPC  H14S 5900   4.489   6.416   9.347  0.9089 -0.4529  1.1083
   69SLPC  C215 5901   4.532   6.386   9.136 -0.1319 -0.3969  0.0000
   69SLPC  H15R 5902   4.456   6.305   9.142  0.3350 -0.9593 -1.4166
   69SLPC  H15S 5903   4.613   6.339   9.077 -0.4267 -0.3665 -0.4343
   69SLPC  C216 5904   4.486   6.505   9.058 -0.2350 -0.5722 -0.2004
   69SLPC  H16R 5905   4.577   6.570   9.063  1.5495 -2.9480 -0.1546
   69SLPC  H16S 5906   4.411   6.564   9.115 -1.6725 -0.6271 -1.9617
   69SLPC  C217 5907   4.455   6.503   8.910 -0.4934 -0.3726 -0.2806
   69SLPC  H17R 5908   4.350   6.469   8.899 -0.1537 -2.0747  1.1290
   69SLPC  H17S 5909   4.517   6.419   8.872 -0.3031 -0.4915  0.2852
   69SLPC  C218 5910   4.480   6.613   8.816  0.1525 -0.0185 -0.2743
   69SLPC  H18R 5911   4.572   6.668   8.848  0.9812 -0.8370 -1.1653
   69SLPC  H18S 5912   4.394   6.682   8.809  0.3992  0.3584  0.2910
   69SLPC  H18T 5913   4.509   6.571   8.717  1.9375 -0.5202  0.4070
   69SLPC   C33 5914   4.197   6.615  10.214 -0.0822 -0.2038  0.3932
   69SLPC   H3X 5915   4.221   6.723  10.223  2.0092 -0.5831 -0.0673
   69SLPC   H3Y 5916   4.102   6.590  10.162 -0.4454 -1.7462  1.7233
   69SLPC   C34 5917   4.308   6.530  10.158  0.2701  0.5454  0.1175
   69SLPC   H4X 5918   4.269   6.426  10.162 -2.9957  1.6242 -0.8241
   69SLPC   H4Y 5919   4.399   6.545  10.219 -0.1769  0.9197  0.7048
   69SLPC   C35 5920   4.345   6.555  10.011  0.1205 -0.3087 -0.5868
   69SLPC   H5X 5921   4.436   6.494   9.991  0.6151  0.3751 -0.4665
   69SLPC   H5Y 5922   4.378   6.661  10.008 -1.5341  0.4338  2.6434
   69SLPC   C36 5923   4.234   6.541   9.914  0.8584  0.0425 -0.0368
   69SLPC   H6X 5924   4.166   6.625   9.938  1.1966  0.9304 -2.0177
   69SLPC   H6Y 5925   4.190   6.439   9.927  0.3668  0.2982  0.3564
   69SLPC   C37 5926   4.296   6.558   9.777  0.0556  0.4526 -0.1986
   69SLPC   H7X 5927   4.378   6.486   9.755  2.2284  2.2773  1.4008
   69SLPC   H7Y 5928   4.347   6.656   9.777  0.9675 -0.0093 -0.5233
   69SLPC   C38 5929   4.196   6.552   9.661  0.7767 -0.4660  0.4241
   69SLPC   H8X 5930   4.119   6.626   9.689 -0.2753 -1.7464  0.9910
   69SLPC   H8Y 5931   4.144   6.454   9.658  0.2419 -0.1947  0.6590
   69SLPC   C39 5932   4.263   6.590   9.526 -0.2316  0.0253  0.1536
   69SLPC   H9X 5933   4.312   6.497   9.490  1.4505  1.2753 -1.0038
   69SLPC   H9Y 5934   4.337   6.671   9.544 -1.9268  1.8536 -0.7499
   69SLPC  C310 5935   4.163   6.652   9.429  0.4142  0.2141  0.2692
   69SLPC  H10X 5936   4.133   6.745   9.482 -0.0147 -0.0135  0.4319
   69SLPC  H10Y 5937   4.078   6.581   9.432  2.1926 -1.9938  1.0363
   69SLPC  C311 5938   4.220   6.669   9.291 -0.1622  0.4403  0.2057
   69SLPC  H11X 5939   4.233   6.567   9.249  1.3323  0.0597  1.5019
   69SLPC  H11Y 5940   4.318   6.721   9.297 -0.5109  1.0738  0.4968
   69SLPC  C312 5941   4.124   6.761   9.205  0.0027  0.3017 -0.2827
   69SLPC  H12X 5942   4.126   6.866   9.243  0.9055  0.6837 -1.3314
   69SLPC  H12Y 5943   4.020   6.721   9.207 -0.3284  1.1385 -0.3405
   69SLPC  C313 5944   4.169   6.761   9.061  0.2289  0.4703 -0.3652
   69SLPC  H13X 5945   4.216   6.665   9.031 -0.9881 -0.5607  0.9062
   69SLPC  H13Y 5946   4.249   6.838   9.061  1.4269 -0.5488  3.2732
   69SLPC  C314 5947   4.045   6.798   8.966 -0.1161  0.2185 -0.2193
   69SLPC  H14X 5948   3.977   6.871   9.017 -1.0058 -0.0609 -0.9710
   69SLPC  H14Y 5949   3.989   6.704   8.945  0.9125 -0.7758  1.2979
   69SLPC  C315 5950   4.082   6.855   8.826  0.3229  0.1337  0.3711
   69SLPC  H15X 5951   4.143   6.784   8.766 -2.1352 -1.5960 -0.2470
   69SLPC  H15Y 5952   4.150   6.940   8.846  2.9307 -1.7465 -0.0095
   69SLPC  C316 5953   3.955   6.910   8.754  0.2574 -0.3534 -0.1468
   69SLPC  H16X 5954   3.890   6.950   8.835  0.2422 -1.8350  0.5994
   69SLPC  H16Y 5955   3.908   6.830   8.693 -1.5403  1.3433 -1.1129
   69SLPC  C317 5956   3.989   7.034   8.675 -0.6257  0.4949 -0.1658
   69SLPC  H17X 5957   4.080   7.018   8.613 -1.9432 -0.2526 -2.0298
   69SLPC  H17Y 5958   4.010   7.118   8.744  1.0052  0.4193 -0.5313
   69SLPC  C318 5959   3.879   7.094   8.582  0.0927 -0.6413  0.0127
   69SLPC  H18X 5960   3.900   7.200   8.556 -0.8197 -0.5334 -0.3101
   69SLPC  H18Y 5961   3.778   7.090   8.627  0.4680  0.5443  1.0169
   69SLPC  H18Z 5962   3.881   7.033   8.489 -0.3953 -0.0328 -0.4060
   70SLPC     N 5963   6.455   3.646  10.712 -0.2970 -0.0700 -0.0611
   70SLPC   C13 5964   6.436   3.512  10.651  0.0608  1.1526 -0.5138
   70SLPC  H13A 5965   6.413   3.429  10.716 -0.0286 -0.4943 -2.5636
   70SLPC  H13B 5966   6.344   3.510  10.595 -0.2922  0.8947  0.0663
   70SLPC  H13C 5967   6.524   3.475  10.601 -0.6351  0.2938 -1.1204
   70SLPC   C14 5968   6.508   3.742  10.605  0.3433  0.6373  0.7272
   70SLPC  H14A 5969   6.529   3.839  10.648  0.2772 -0.2516  2.8945
   70SLPC  H14B 5970   6.593   3.700  10.553 -1.4127 -1.8771 -0.2901
   70SLPC  H14C 5971   6.424   3.751  10.538 -0.3944 -0.4750  1.4876
   70SLPC   C15 5972   6.564   3.620  10.815 -0.1442  0.6514 -0.8363
   70SLPC  H15A 5973   6.607   3.711  10.854  2.9266 -0.9075 -0.2084
   70SLPC  H15B 5974   6.517   3.561  10.892  2.4973 -0.1386  0.2828
   70SLPC  H15C 5975   6.658   3.577  10.781  0.3329  2.1228 -1.4408
   70SLPC   C12 5976   6.334   3.700  10.788  0.8897 -0.0643  0.3378
   70SLPC  H12A 5977   6.347   3.781  10.859 -3.2773  0.0154  1.2852
   70SLPC  H12B 5978   6.297   3.624  10.855  0.6729  0.7533  1.1709
   70SLPC   C11 5979   6.215   3.743  10.700 -0.1697  0.2565 -0.1378
   70SLPC  H11A 5980   6.175   3.668  10.629  0.0669 -0.5165  0.5361
   70SLPC  H11B 5981   6.239   3.834  10.640 -3.2695  2.1525  1.2348
   70SLPC     P 5982   6.086   3.904  10.848  0.3830  0.2354  0.0166
   70SLPC   O13 5983   5.988   3.899  10.959  0.0465  0.0360  0.3848
   70SLPC   O14 5984   6.214   3.967  10.880  0.1735 -0.0282  0.4960
   70SLPC   O12 5985   6.096   3.760  10.782 -0.1439  0.0848 -1.1534
   70SLPC   O11 5986   6.036   3.996  10.732 -0.0621  0.2963  0.3780
   70SLPC    C1 5987   5.964   3.930  10.617  0.1614 -0.1637  0.4785
   70SLPC    HA 5988   6.038   3.870  10.561 -1.1349  1.0863 -2.8175
   70SLPC    HB 5989   5.873   3.870  10.639 -1.4602  1.3255 -1.7282
   70SLPC    C2 5990   5.937   4.035  10.505  0.4702  0.6966 -0.0711
   70SLPC    HS 5991   5.900   3.986  10.412  2.1180  1.0962 -0.9756
   70SLPC   O21 5992   6.058   4.107  10.473  0.0650 -0.2347 -0.0575
   70SLPC   C21 5993   6.153   4.038  10.407 -0.0706  0.4537 -0.4242
   70SLPC   O22 5994   6.140   3.924  10.369  0.1880  0.8557  0.3955
   70SLPC   C22 5995   6.276   4.132  10.379  0.3361  0.1357  1.0860
   70SLPC   H2R 5996   6.249   4.239  10.368 -0.4327 -0.1077  0.5122
   70SLPC   H2S 5997   6.354   4.117  10.457 -0.2936  0.1724  1.7321
   70SLPC    C3 5998   5.827   4.143  10.537  0.8510  0.1687 -0.4940
   70SLPC    HX 5999   5.869   4.183  10.632  1.7141 -0.7307 -0.4919
   70SLPC    HY 6000   5.734   4.085  10.554  1.3749 -0.7560 -0.7415
   70SLPC   O31 6001   5.806   4.245  10.430 -0.0726  0.6041  0.4044
   70SLPC   C31 6002   5.760   4.193  10.315  0.4607 -0.2792 -0.0231
   70SLPC   O32 6003   5.711   4.082  10.301  0.1358 -0.3016  0.8066
   70SLPC   C32 6004   5.788   4.294  10.208  0.0432 -0.3189 -0.2583
   70SLPC   H2X 6005   5.896   4.310  10.222  0.5056 -2.7518 -0.4683
   70SLPC   H2Y 6006   5.735   4.390  10.222  0.2786 -0.1209 -0.7071
   70SLPC   C23 6007   6.346   4.091  10.243  0.3292  0.8903 -0.5546
   70SLPC   H3R 6008   6.382   3.986  10.239  0.9217  1.1190 -3.3018
   70SLPC   H3S 6009   6.434   4.158  10.233 -0.2214  1.7673  0.2618
   70SLPC   C24 6010   6.253   4.096  10.118  0.3908  0.0911  0.3677
   70SLPC   H4R 6011   6.192   4.189  10.123  0.9009  0.3972  0.9924
   70SLPC   H4S 6012   6.180   4.012  10.125 -0.0833  0.5403  0.9619
   70SLPC   C25 6013   6.342   4.098   9.993  0.6155 -0.5686 -0.0562
   70SLPC   H5R 6014   6.406   4.006   9.991  1.0200 -0.4521  2.8008
   70SLPC   H5S 6015   6.404   4.190   9.985 -0.0809 -0.0486  0.4607
   70SLPC   C26 6016   6.244   4.108   9.872 -0.2166 -0.8837 -0.3643
   70SLPC   H6R 6017   6.165   4.186   9.881 -0.0682 -0.8138  0.3482
   70SLPC   H6S 6018   6.203   4.005   9.864 -0.8391 -0.7323  0.7540
   70SLPC   C27 6019   6.323   4.152   9.742 -0.0056  0.0795  0.4269
   70SLPC   H7R 6020   6.410   4.085   9.725 -0.4202 -0.8816  1.8679
   70SLPC   H7S 6021   6.358   4.257   9.752 -0.9839  0.8965 -3.3870
   70SLPC   C28 6022   6.237   4.157   9.616  0.0179 -0.5626  0.4111
   70SLPC   H8R 6023   6.304   4.194   9.536 -0.9733  0.4767  0.0352
   70SLPC   H8S 6024   6.157   4.230   9.638  1.4007  1.6135 -1.3538
   70SLPC   C29 6025   6.198   4.018   9.587 -0.0911 -0.0106  0.1666
   70SLPC   H9R 6026   6.134   3.979   9.668  1.0667 -0.1591  1.0238
   70SLPC  C210 6027   6.233   3.941   9.486  0.5488  0.3688  0.1510
   70SLPC  H10R 6028   6.194   3.838   9.486 -1.0239  0.9339 -1.1866
   70SLPC  C211 6029   6.316   3.987   9.368 -0.3548 -0.1669  0.3997
   70SLPC  H11R 6030   6.370   3.899   9.327  2.6970  1.5761  0.3583
   70SLPC  H11S 6031   6.400   4.051   9.404  0.5034 -0.5278 -0.8765
   70SLPC  C212 6032   6.242   4.068   9.266 -0.1240  0.2718  0.0820
   70SLPC  H12R 6033   6.246   4.178   9.275  1.4417  0.1775  0.7967
   70SLPC  C213 6034   6.180   4.009   9.169 -0.1192  0.1604  0.0722
   70SLPC  H13R 6035   6.124   4.066   9.093 -0.0248 -1.3201 -1.1542
   70SLPC  C214 6036   6.149   3.862   9.147 -0.4321 -0.1886 -0.2534
   70SLPC  H14R 6037   6.039   3.849   9.152 -0.6560  1.7587  1.0120
   70SLPC  H14S 6038   6.181   3.785   9.221  1.1466  0.2843 -0.3965
   70SLPC  C215 6039   6.193   3.813   9.012  0.2002  0.6702  0.3840
   70SLPC  H15R 6040   6.304   3.809   9.013  0.2630  0.0161 -2.0726
   70SLPC  H15S 6041   6.158   3.864   8.919  0.8442 -2.4143 -1.6902
   70SLPC  C216 6042   6.149   3.667   8.977  0.5295  0.7977  0.6185
   70SLPC  H16R 6043   6.057   3.666   8.914  2.6223  0.0068 -2.6595
   70SLPC  H16S 6044   6.143   3.597   9.063 -0.3483 -3.1536 -2.3762
   70SLPC  C217 6045   6.253   3.590   8.880 -0.2846 -0.3141  0.1038
   70SLPC  H17R 6046   6.344   3.561   8.937  0.0832  1.2968  0.3887
   70SLPC  H17S 6047   6.288   3.664   8.805 -0.4527 -0.8928 -0.5485
   70SLPC  C218 6048   6.193   3.469   8.810 -0.0735 -0.4832  0.2053
   70SLPC  H18R 6049   6.152   3.391   8.877  0.2768 -1.1052 -0.2978
   70SLPC  H18S 6050   6.266   3.420   8.741 -0.3503 -0.8130  0.1436
   70SLPC  H18T 6051   6.104   3.493   8.748  0.5403  0.1370 -0.4588
   70SLPC   C33 6052   5.761   4.232  10.067 -0.5693 -0.5906 -0.2362
   70SLPC   H3X 6053   5.662   4.181  10.065 -0.4030 -1.3815  3.4012
   70SLPC   H3Y 6054   5.843   4.159  10.051 -1.4162 -1.4638 -0.7075
   70SLPC   C34 6055   5.759   4.339   9.954  0.5513 -0.4278  0.0813
   70SLPC   H4X 6056   5.850   4.401   9.964  0.9204 -1.2133  2.0727
   70SLPC   H4Y 6057   5.670   4.404   9.971  2.9499  2.4540  2.8808
   70SLPC   C35 6058   5.748   4.282   9.802  1.1529 -0.4281  0.0110
   70SLPC   H5X 6059   5.738   4.375   9.742  0.5191  1.0368  2.2568
   70SLPC   H5Y 6060   5.653   4.226   9.792  1.1772 -0.4442 -0.1263
   70SLPC   C36 6061   5.862   4.184   9.767  0.9786  0.0424  1.0699
   70SLPC   H6X 6062   5.883   4.123   9.857  0.8971  0.1770  1.1806
   70SLPC   H6Y 6063   5.960   4.234   9.754  1.1749 -0.8220 -1.3168
   70SLPC   C37 6064   5.831   4.102   9.640  0.4916  0.1614  0.0775
   70SLPC   H7X 6065   5.739   4.039   9.650  0.3839  0.3360  0.1920
   70SLPC   H7Y 6066   5.919   4.035   9.632  1.0493  1.0664 -2.1625
   70SLPC   C38 6067   5.811   4.182   9.511 -0.2594 -0.1340  0.1881
   70SLPC   H8X 6068   5.906   4.233   9.485  0.1901 -1.3635 -0.6717
   70SLPC   H8Y 6069   5.735   4.258   9.542 -0.6608 -0.3683 -0.2151
   70SLPC   C39 6070   5.774   4.099   9.386 -0.2960  0.4128 -0.2727
   70SLPC   H9X 6071   5.666   4.071   9.392 -0.1974 -0.0474 -0.5880
   70SLPC   H9Y 6072   5.836   4.008   9.374 -2.3913 -0.9740 -1.1403
   70SLPC  C310 6073   5.789   4.188   9.262  0.5672 -0.0534  0.0385
   70SLPC  H10X 6074   5.899   4.204   9.249  0.6747 -0.0042  0.9074
   70SLPC  H10Y 6075   5.735   4.285   9.262 -2.6128 -1.6888  0.8080
   70SLPC  C311 6076   5.713   4.135   9.144  0.1981 -0.5263  0.5947
   70SLPC  H11X 6077   5.608   4.129   9.179  0.0625 -1.2625  0.0962
   70SLPC  H11Y 6078   5.753   4.032   9.135 -1.2305 -1.2912  2.2195
   70SLPC  C312 6079   5.714   4.211   9.008  0.4887  0.0871 -0.8737
   70SLPC  H12X 6080   5.728   4.319   9.031 -0.8913  0.1400 -0.1583
   70SLPC  H12Y 6081   5.614   4.203   8.960  0.6557 -0.1934 -1.1787
   70SLPC  C313 6082   5.819   4.166   8.914 -0.6109  0.0616 -0.3701
   70SLPC  H13X 6083   5.827   4.057   8.895 -0.4293  0.2295 -1.3053
   70SLPC  H13Y 6084   5.917   4.189   8.961 -0.1212 -1.1871 -0.7442
   70SLPC  C314 6085   5.831   4.233   8.771  0.7759 -1.0681 -0.5701
   70SLPC  H14X 6086   5.824   4.342   8.789 -1.3941 -1.2980  0.1816
   70SLPC  H14Y 6087   5.737   4.200   8.722 -0.8451 -0.0482  1.6773
   70SLPC  C315 6088   5.960   4.217   8.688 -0.0893 -0.4504  0.3703
   70SLPC  H15X 6089   6.039   4.280   8.734 -1.6262  1.1982  0.8601
   70SLPC  H15Y 6090   5.942   4.251   8.584  1.6536 -0.0433  0.1649
   70SLPC  C316 6091   6.014   4.075   8.695  0.3859 -0.1780  0.1660
   70SLPC  H16X 6092   6.015   4.041   8.801  0.3500  0.2098  0.2924
   70SLPC  H16Y 6093   6.119   4.085   8.660 -0.1610  2.6356 -0.9113
   70SLPC  C317 6094   5.941   3.961   8.613 -0.0949  0.2378 -0.1491
   70SLPC  H17X 6095   5.991   3.954   8.514 -0.6255  0.8145 -0.4626
   70SLPC  H17Y 6096   5.835   3.989   8.596 -0.6430 -1.3804  0.3492
   70SLPC  C318 6097   5.930   3.823   8.682  0.2406 -0.3848  0.7216
   70SLPC  H18X 6098   5.896   3.834   8.787 -1.0354  1.4598  0.1712
   70SLPC  H18Y 6099   6.031   3.777   8.682  0.9265  1.0163  2.1133
   70SLPC  H18Z 6100   5.857   3.754   8.635  0.2791 -2.0992  3.0188
   71SLPC     N 6101   5.108   3.690  10.793 -0.3208 -0.0087 -0.7212
   71SLPC   C13 6102   5.229   3.675  10.888  0.3287 -1.4829  0.0688
   71SLPC  H13A 6103   5.200   3.613  10.972  2.8522 -0.2567  1.9837
   71SLPC  H13B 6104   5.313   3.631  10.837  0.0895 -3.3145  1.1681
   71SLPC  H13C 6105   5.257   3.776  10.914  3.9393 -1.5333 -2.7646
   71SLPC   C14 6106   5.085   3.546  10.759  0.8142 -0.5664 -1.0679
   71SLPC  H14A 6107   5.174   3.500  10.720  0.4456 -0.7176 -1.7477
   71SLPC  H14B 6108   5.054   3.487  10.844 -1.5519 -2.4897 -3.1127
   71SLPC  H14C 6109   5.006   3.549  10.686  0.1263  1.8680 -0.3281
   71SLPC   C15 6110   5.155   3.758  10.668 -0.4237  0.2257  0.5358
   71SLPC  H15A 6111   5.151   3.863  10.690  0.2964  0.0125  1.7880
   71SLPC  H15B 6112   5.254   3.717  10.653 -0.1993 -0.2954  2.9610
   71SLPC  H15C 6113   5.089   3.737  10.585 -0.3847  1.4566  0.1724
   71SLPC   C12 6114   4.988   3.750  10.861  0.8341 -0.1532 -0.9635
   71SLPC  H12A 6115   5.006   3.854  10.886 -0.0266  0.1468 -1.5163
   71SLPC  H12B 6116   4.967   3.689  10.948 -2.5779  0.0819 -1.4597
   71SLPC   C11 6117   4.865   3.766  10.770  0.6452  0.5954  0.8065
   71SLPC  H11A 6118   4.770   3.774  10.826 -0.9491  1.8742 -1.9106
   71SLPC  H11B 6119   4.853   3.668  10.719  2.2842  0.5359  0.4708
   71SLPC     P 6120   4.802   4.006  10.699  0.1515  0.0733  0.0206
   71SLPC   O13 6121   4.812   4.055  10.840 -0.3598 -0.4004  0.0053
   71SLPC   O14 6122   4.841   4.100  10.590  0.6154 -0.3888 -0.2699
   71SLPC   O12 6123   4.883   3.869  10.675  0.2894 -0.0655  0.1826
   71SLPC   O11 6124   4.647   3.969  10.677 -0.5524 -0.3207 -0.8498
   71SLPC    C1 6125   4.600   3.862  10.602  0.3877  0.2102  0.1683
   71SLPC    HA 6126   4.665   3.771  10.604  0.4192  0.2323  0.1616
   71SLPC    HB 6127   4.498   3.825  10.628  0.1964 -0.1996 -1.1340
   71SLPC    C2 6128   4.599   3.893  10.448  0.3942 -0.1549 -0.4459
   71SLPC    HS 6129   4.700   3.933  10.424  0.5710  0.2218  0.8848
   71SLPC   O21 6130   4.490   3.991  10.425 -0.2293  0.5241  0.0152
   71SLPC   C21 6131   4.529   4.080  10.325 -0.1267  0.3047  0.3338
   71SLPC   O22 6132   4.630   4.070  10.260  0.4993 -0.1452 -0.3356
   71SLPC   C22 6133   4.416   4.181  10.303  0.0479 -0.2767  0.5976
   71SLPC   H2R 6134   4.317   4.133  10.320  0.7195 -1.8869  0.1907
   71SLPC   H2S 6135   4.429   4.244  10.393 -1.1984 -2.3823  2.3676
   71SLPC    C3 6136   4.557   3.768  10.365  0.0466  0.0368 -0.3150
   71SLPC    HX 6137   4.452   3.753  10.397  0.0114  1.9838  0.6189
   71SLPC    HY 6138   4.616   3.676  10.387 -1.3221 -1.0168 -0.9377
   71SLPC   O31 6139   4.564   3.793  10.221 -0.0882  0.1298 -0.5264
   71SLPC   C31 6140   4.694   3.776  10.173 -0.2444 -0.1790  0.5903
   71SLPC   O32 6141   4.793   3.750  10.239 -0.6793 -0.1308  0.2620
   71SLPC   C32 6142   4.695   3.774  10.019 -0.4059  0.3383  0.1893
   71SLPC   H2X 6143   4.709   3.882   9.996  1.6342  0.1908  0.5020
   71SLPC   H2Y 6144   4.598   3.737   9.979  0.2975 -0.3486 -0.9481
   71SLPC   C23 6145   4.419   4.263  10.172 -0.3513  0.2309  0.0594
   71SLPC   H3R 6146   4.506   4.331  10.159  0.2155 -0.6066 -0.5697
   71SLPC   H3S 6147   4.337   4.338  10.180 -1.8095 -1.4203  1.4060
   71SLPC   C24 6148   4.395   4.178  10.047 -0.1542  0.2968 -0.5319
   71SLPC   H4R 6149   4.309   4.110  10.065 -1.2979  2.2621  1.8920
   71SLPC   H4S 6150   4.493   4.131  10.021  1.5780  3.4226 -0.1041
   71SLPC   C25 6151   4.355   4.257   9.922 -0.2229  0.3304  0.0382
   71SLPC   H5R 6152   4.418   4.348   9.911 -0.0424 -0.0180 -1.9861
   71SLPC   H5S 6153   4.252   4.301   9.915 -0.6683 -0.5544  0.7983
   71SLPC   C26 6154   4.386   4.179   9.792  0.5355 -0.5582 -0.1469
   71SLPC   H6R 6155   4.303   4.108   9.774 -1.5901  0.7648  3.3700
   71SLPC   H6S 6156   4.481   4.123   9.808  0.2239 -0.3148  3.1838
   71SLPC   C27 6157   4.394   4.267   9.672  0.0693 -0.3512 -0.1589
   71SLPC   H7R 6158   4.486   4.327   9.688  0.6893 -2.0670  3.7844
   71SLPC   H7S 6159   4.302   4.327   9.652  0.8791  2.6281  3.8277
   71SLPC   C28 6160   4.421   4.177   9.544 -0.1751 -0.1016 -0.9341
   71SLPC   H8R 6161   4.454   4.083   9.592 -1.4880  0.0601  0.3868
   71SLPC   H8S 6162   4.497   4.220   9.475  0.2995  0.7317  0.0870
   71SLPC   C29 6163   4.311   4.131   9.469  0.9604 -0.6025  0.8572
   71SLPC   H9R 6164   4.224   4.093   9.525 -1.4725  0.4797 -1.8756
   71SLPC  C210 6165   4.300   4.121   9.333  0.4036 -0.0384 -0.2982
   71SLPC  H10R 6166   4.210   4.081   9.284 -0.0111 -1.5778  1.5639
   71SLPC  C211 6167   4.404   4.164   9.227 -0.4585 -0.4866 -0.3853
   71SLPC  H11R 6168   4.409   4.071   9.166 -1.2115 -2.3323  2.1527
   71SLPC  H11S 6169   4.503   4.180   9.275 -0.0765 -0.6282 -1.1169
   71SLPC  C212 6170   4.362   4.292   9.159  0.7497 -0.3865 -0.0262
   71SLPC  H12R 6171   4.307   4.360   9.226 -1.3682 -2.6781  0.7273
   71SLPC  C213 6172   4.365   4.313   9.030 -0.2834  0.3348  0.5525
   71SLPC  H13R 6173   4.328   4.407   8.987 -1.5318 -0.0416  0.7709
   71SLPC  C214 6174   4.423   4.218   8.930 -1.0882 -0.0199  0.0489
   71SLPC  H14R 6175   4.438   4.119   8.978  3.2157  0.5968  0.3715
   71SLPC  H14S 6176   4.522   4.263   8.910 -1.5842  0.0559 -2.6131
   71SLPC  C215 6177   4.340   4.180   8.807  0.2483  0.7541  0.3923
   71SLPC  H15R 6178   4.397   4.105   8.747 -0.7142 -1.0395  1.6575
   71SLPC  H15S 6179   4.321   4.273   8.748 -1.2916  1.4555  1.9285
   71SLPC  C216 6180   4.203   4.121   8.835 -0.3316 -0.0578  0.8913
   71SLPC  H16R 6181   4.126   4.189   8.877 -3.0584 -1.2928 -1.7016
   71SLPC  H16S 6182   4.199   4.030   8.897 -0.2482 -1.0434 -0.4962
   71SLPC  C217 6183   4.146   4.095   8.695 -0.0663 -0.2870  0.3397
   71SLPC  H17R 6184   4.209   4.015   8.650 -0.2256  0.3951 -1.1629
   71SLPC  H17S 6185   4.161   4.190   8.638 -0.4905  0.1226  0.8966
   71SLPC  C218 6186   4.000   4.050   8.686  0.2477  0.0800 -0.2140
   71SLPC  H18R 6187   3.996   3.954   8.741 -0.3728 -0.1076 -0.5781
   71SLPC  H18S 6188   3.959   4.033   8.584 -2.0312  0.3700  0.6197
   71SLPC  H18T 6189   3.943   4.130   8.736 -0.3590 -0.4671 -0.0254
   71SLPC   C33 6190   4.815   3.700   9.967  1.2442  0.1746 -0.6184
   71SLPC   H3X 6191   4.838   3.618  10.038 -1.5573  1.1262  1.5674
   71SLPC   H3Y 6192   4.902   3.769   9.979  0.1708  1.4845 -0.0968
   71SLPC   C34 6193   4.792   3.646   9.824 -0.5908  0.2948  0.1119
   71SLPC   H4X 6194   4.704   3.579   9.824 -0.2233 -0.2113  1.7459
   71SLPC   H4Y 6195   4.879   3.583   9.794  0.0855  1.5236 -0.5975
   71SLPC   C35 6196   4.765   3.752   9.721 -0.0355  0.1885  0.2197
   71SLPC   H5X 6197   4.842   3.828   9.750  2.0866 -1.9657  0.5603
   71SLPC   H5Y 6198   4.667   3.800   9.741 -0.3957 -0.3606 -0.2033
   71SLPC   C36 6199   4.774   3.704   9.571 -0.0987 -0.3240  0.2672
   71SLPC   H6X 6200   4.687   3.638   9.550 -0.7663  0.7132 -0.3011
   71SLPC   H6Y 6201   4.869   3.645   9.573  0.6522  0.8526  1.3273
   71SLPC   C37 6202   4.798   3.819   9.470 -0.2695 -0.6020 -0.1041
   71SLPC   H7X 6203   4.894   3.871   9.491 -0.2018 -0.1829 -1.3578
   71SLPC   H7Y 6204   4.719   3.896   9.483  1.7835  1.8230 -1.0870
   71SLPC   C38 6205   4.804   3.792   9.320 -0.5852 -0.3916 -0.3750
   71SLPC   H8X 6206   4.725   3.717   9.297  0.1152 -0.8791 -1.2469
   71SLPC   H8Y 6207   4.905   3.747   9.310 -1.2264 -1.9147 -0.2593
   71SLPC   C39 6208   4.794   3.917   9.227  0.2038 -0.0699 -0.7824
   71SLPC   H9X 6209   4.870   3.984   9.273 -0.3312 -1.6237  2.6844
   71SLPC   H9Y 6210   4.691   3.955   9.243  0.1905 -0.1583 -0.6610
   71SLPC  C310 6211   4.814   3.897   9.079 -0.8925 -0.2481  0.3168
   71SLPC  H10X 6212   4.761   3.806   9.043 -0.7970  0.1614 -0.9034
   71SLPC  H10Y 6213   4.921   3.870   9.065  0.2479  4.3069 -1.3320
   71SLPC  C311 6214   4.775   4.013   8.983 -0.2369 -0.8963 -1.2715
   71SLPC  H11X 6215   4.811   4.107   9.028 -0.5038 -1.3696 -0.0386
   71SLPC  H11Y 6216   4.667   4.039   8.992  0.0619 -0.3692  1.3964
   71SLPC  C312 6217   4.819   3.983   8.843  0.4923  0.7759 -0.0202
   71SLPC  H12X 6218   4.783   3.887   8.800  2.3666  0.6143 -1.3496
   71SLPC  H12Y 6219   4.928   3.966   8.852  0.7017  2.9535  5.7473
   71SLPC  C313 6220   4.795   4.100   8.742  0.2715  0.5353 -0.6735
   71SLPC  H13X 6221   4.861   4.184   8.773 -2.2299  2.1264  0.6705
   71SLPC  H13Y 6222   4.694   4.143   8.757 -0.0186  0.5274 -2.4755
   71SLPC  C314 6223   4.814   4.055   8.595  0.1379  0.4522  0.5189
   71SLPC  H14X 6224   4.747   3.970   8.570  1.7413 -0.0819 -2.3429
   71SLPC  H14Y 6225   4.912   4.004   8.581 -0.4327  0.0709 -3.0663
   71SLPC  C315 6226   4.804   4.173   8.491 -0.0140 -0.0290 -0.2291
   71SLPC  H15X 6227   4.884   4.247   8.511  0.3421 -0.3034 -0.6225
   71SLPC  H15Y 6228   4.709   4.222   8.520  0.4450  1.1890 -0.7049
   71SLPC  C316 6229   4.790   4.139   8.340 -0.7387  0.8375 -0.2585
   71SLPC  H16X 6230   4.714   4.061   8.316  0.7108 -0.8136  0.2968
   71SLPC  H16Y 6231   4.883   4.090   8.304 -0.8296  0.7669 -0.3989
   71SLPC  C317 6232   4.754   4.259   8.254  0.3859  0.0295 -0.2389
   71SLPC  H17X 6233   4.846   4.321   8.252  0.6451 -0.3595 -1.7163
   71SLPC  H17Y 6234   4.670   4.317   8.297  1.2288  0.0723  1.4349
   71SLPC  C318 6235   4.715   4.205   8.108 -0.0124 -0.4207 -0.4058
   71SLPC  H18X 6236   4.801   4.154   8.060 -0.3331 -0.9729 -0.4070
   71SLPC  H18Y 6237   4.687   4.288   8.040 -1.9747 -1.9790 -1.5990
   71SLPC  H18Z 6238   4.623   4.145   8.126 -1.4783  2.0210  0.6546
   72SLPC     N 6239   6.360   1.573  10.645  0.0917  0.5219 -0.3813
   72SLPC   C13 6240   6.342   1.709  10.582  0.3624  0.5393 -0.4581
   72SLPC  H13A 6241   6.262   1.699  10.510 -1.8923 -0.7126  2.0326
   72SLPC  H13B 6242   6.306   1.776  10.658 -4.5207 -1.0459 -1.0435
   72SLPC  H13C 6243   6.435   1.741  10.535  0.4856  1.3497  0.3146
   72SLPC   C14 6244   6.231   1.542  10.707  0.4336  0.1706 -0.5383
   72SLPC  H14A 6245   6.231   1.444  10.751  2.4642  0.2782 -0.1982
   72SLPC  H14B 6246   6.210   1.615  10.784 -0.8799  0.2409 -0.9476
   72SLPC  H14C 6247   6.155   1.542  10.631  1.2894 -0.6502 -1.4339
   72SLPC   C15 6248   6.473   1.591  10.753  0.0581 -0.3546 -0.0897
   72SLPC  H15A 6249   6.573   1.615  10.719  1.4545 -1.2941  3.0470
   72SLPC  H15B 6250   6.458   1.670  10.824  1.0916 -0.1409 -0.0996
   72SLPC  H15C 6251   6.482   1.495  10.803  0.0947 -0.6123 -0.5790
   72SLPC   C12 6252   6.395   1.469  10.535  0.3604 -0.2206  0.0753
   72SLPC  H12A 6253   6.491   1.501  10.500 -0.7583  0.3110 -2.7186
   72SLPC  H12B 6254   6.333   1.484  10.448 -1.4165 -0.2806  1.2630
   72SLPC   C11 6255   6.402   1.322  10.582  0.6186 -0.6635  0.1197
   72SLPC  H11A 6256   6.425   1.256  10.495  0.1645  1.3827 -1.6514
   72SLPC  H11B 6257   6.298   1.294  10.607 -0.0850  0.0426 -1.8239
   72SLPC     P 6258   6.515   1.158  10.735 -0.0214 -0.1755 -0.1287
   72SLPC   O13 6259   6.587   1.164  10.866 -0.2500  0.0348  0.1439
   72SLPC   O14 6260   6.379   1.102  10.736 -0.3834  0.1495  0.0505
   72SLPC   O12 6261   6.497   1.307  10.689  0.2528  0.8607  0.0492
   72SLPC   O11 6262   6.602   1.094  10.620 -0.1672 -0.2006 -0.1939
   72SLPC    C1 6263   6.728   1.146  10.579  0.5952  0.4006  0.5464
   72SLPC    HA 6264   6.773   1.201  10.664  0.6533 -0.6093  1.1881
   72SLPC    HB 6265   6.799   1.067  10.545 -0.2278  0.2439 -0.8774
   72SLPC    C2 6266   6.720   1.238  10.456  0.5427  0.2047 -0.1066
   72SLPC    HS 6267   6.650   1.317  10.490  1.3758  1.0124 -0.2112
   72SLPC   O21 6268   6.678   1.158  10.344  0.0872 -0.5520 -0.3266
   72SLPC   C21 6269   6.628   1.235  10.247 -0.2019  1.1575 -0.0362
   72SLPC   O22 6270   6.614   1.355  10.249  0.0805 -0.6586  0.8324
   72SLPC   C22 6271   6.589   1.142  10.125 -0.0528  0.1117  1.0267
   72SLPC   H2R 6272   6.651   1.054  10.152 -1.0649 -1.3028 -1.0136
   72SLPC   H2S 6273   6.481   1.118  10.127 -0.3861  1.5543  1.6635
   72SLPC    C3 6274   6.851   1.321  10.426  0.0133 -0.0987  0.7535
   72SLPC    HX 6275   6.875   1.389  10.510 -2.5019  1.2221  0.4927
   72SLPC    HY 6276   6.833   1.400  10.349 -1.6080 -1.4179 -0.2923
   72SLPC   O31 6277   6.956   1.236  10.374 -0.1842  0.4104  0.4504
   72SLPC   C31 6278   7.032   1.187  10.464 -0.3464  0.1367 -0.1020
   72SLPC   O32 6279   7.018   1.199  10.586  0.0207 -0.2508  0.3779
   72SLPC   C32 6280   7.125   1.102  10.390 -0.1445 -0.1354  0.1285
   72SLPC   H2X 6281   7.223   1.124  10.437 -0.1098 -2.4701  1.2634
   72SLPC   H2Y 6282   7.138   1.119  10.281  0.0460  0.5481  0.2549
   72SLPC   C23 6283   6.617   1.202   9.983 -0.3121  0.2558  0.0230
   72SLPC   H3R 6284   6.714   1.255   9.972 -0.6113  0.6080 -1.0456
   72SLPC   H3S 6285   6.540   1.282   9.972 -1.1805 -0.4251  0.9021
   72SLPC   C24 6286   6.603   1.094   9.872  0.0626  0.0175 -0.3104
   72SLPC   H4R 6287   6.670   1.007   9.886 -1.0366 -1.1982 -2.2861
   72SLPC   H4S 6288   6.628   1.140   9.774  0.0336  1.0184  0.1311
   72SLPC   C25 6289   6.465   1.025   9.854 -0.3009 -0.2782  0.2253
   72SLPC   H5R 6290   6.426   0.973   9.944  2.5781 -0.0136  1.7301
   72SLPC   H5S 6291   6.475   0.950   9.772  4.5372  0.2371  0.0921
   72SLPC   C26 6292   6.359   1.124   9.802  0.2497  0.4887  0.2005
   72SLPC   H6R 6293   6.344   1.215   9.862 -1.1769  0.9528 -0.7817
   72SLPC   H6S 6294   6.261   1.073   9.820  0.5772 -0.1266  0.2782
   72SLPC   C27 6295   6.378   1.172   9.657 -0.4240  0.4602  0.3431
   72SLPC   H7R 6296   6.344   1.082   9.601  0.8368  1.2370 -1.7540
   72SLPC   H7S 6297   6.484   1.191   9.631 -0.5563 -0.8775 -1.3610
   72SLPC   C28 6298   6.284   1.288   9.618  0.3522 -0.5440  0.8265
   72SLPC   H8R 6299   6.310   1.329   9.518 -0.5298 -1.9017  0.0149
   72SLPC   H8S 6300   6.284   1.370   9.693 -2.8665  1.1341 -0.8117
   72SLPC   C29 6301   6.141   1.240   9.604 -0.1045 -0.4820  0.0054
   72SLPC   H9R 6302   6.096   1.193   9.693  2.3003 -0.6230  1.2116
   72SLPC  C210 6303   6.090   1.216   9.484 -0.0126 -0.4826 -0.0086
   72SLPC  H10R 6304   5.988   1.176   9.475  0.3744 -1.0341 -3.9192
   72SLPC  C211 6305   6.145   1.242   9.343  0.0372  0.5596 -0.4176
   72SLPC  H11R 6306   6.238   1.180   9.347 -0.4701 -0.2063 -0.3277
   72SLPC  H11S 6307   6.164   1.350   9.327  0.3083  0.5608 -0.1078
   72SLPC  C212 6308   6.078   1.171   9.225  0.1481  0.6795  0.3036
   72SLPC  H12R 6309   6.022   1.079   9.244 -0.2241 -0.0156 -3.4826
   72SLPC  C213 6310   6.073   1.218   9.099 -0.4804 -0.1258  0.1967
   72SLPC  H13R 6311   6.021   1.158   9.022 -0.2645  1.1900 -1.0169
   72SLPC  C214 6312   6.134   1.354   9.061  0.2197 -0.4836  0.5816
   72SLPC  H14R 6313   6.237   1.354   9.102  0.2720 -3.5772  0.6370
   72SLPC  H14S 6314   6.074   1.434   9.111  0.1953 -0.4012  0.4210
   72SLPC  C215 6315   6.145   1.379   8.912  0.3503 -0.5508 -0.2134
   72SLPC  H15R 6316   6.186   1.289   8.863  3.0178 -0.3088  1.3999
   72SLPC  H15S 6317   6.218   1.458   8.884  1.2201 -1.3677 -0.2606
   72SLPC  C216 6318   6.012   1.412   8.850  0.5814  0.3399  0.1822
   72SLPC  H16R 6319   5.965   1.499   8.900 -0.0975 -0.3413  0.7627
   72SLPC  H16S 6320   5.943   1.332   8.886  0.0604  1.0912  0.9140
   72SLPC  C217 6321   6.022   1.453   8.698  0.2524 -0.5023 -0.4844
   72SLPC  H17R 6322   6.079   1.365   8.662  1.9235 -1.3011  3.4805
   72SLPC  H17S 6323   6.093   1.537   8.682 -1.8678  1.6196  0.5621
   72SLPC  C218 6324   5.893   1.457   8.623  0.2843  0.4645  0.3136
   72SLPC  H18R 6325   5.907   1.476   8.514  1.8549 -3.4469 -0.3324
   72SLPC  H18S 6326   5.828   1.537   8.663 -2.6936 -0.4666 -2.1968
   72SLPC  H18T 6327   5.828   1.367   8.632  0.0144  0.5945 -0.2729
   72SLPC   C33 6328   7.112   0.950  10.413  0.2244 -0.1504 -0.1427
   72SLPC   H3X 6329   7.105   0.931  10.522  0.6195 -0.0978 -0.1087
   72SLPC   H3Y 6330   7.211   0.918  10.374  1.4629  4.3888 -1.3027
   72SLPC   C34 6331   6.996   0.886  10.339  0.1419  0.3472  1.1031
   72SLPC   H4X 6332   6.903   0.916  10.392 -0.1231 -0.1041  0.9019
   72SLPC   H4Y 6333   7.008   0.777  10.357 -2.2391 -0.0487  0.5789
   72SLPC   C35 6334   6.997   0.903  10.188 -0.3064  0.7750 -0.0919
   72SLPC   H5X 6335   7.092   0.866  10.143  0.7724  3.5335 -0.2573
   72SLPC   H5Y 6336   6.986   1.006  10.149  0.2911  0.0601 -2.3545
   72SLPC   C36 6337   6.880   0.830  10.114 -0.5792  0.6540  0.3318
   72SLPC   H6X 6338   6.775   0.855  10.139 -0.9015 -2.0291  2.0201
   72SLPC   H6Y 6339   6.881   0.720  10.132 -0.8154  0.7177  0.7253
   72SLPC   C37 6340   6.897   0.839   9.964 -0.3867  0.4213 -0.4235
   72SLPC   H7X 6341   6.993   0.799   9.926 -0.5996 -0.9048  0.3956
   72SLPC   H7Y 6342   6.889   0.946   9.935 -3.3849 -0.2060 -2.4117
   72SLPC   C38 6343   6.785   0.762   9.889  0.0674 -0.3329 -0.0579
   72SLPC   H8X 6344   6.692   0.810   9.927 -0.2209  1.1489 -2.4483
   72SLPC   H8Y 6345   6.796   0.656   9.923  2.9092  0.0997  0.5980
   72SLPC   C39 6346   6.785   0.782   9.741 -0.4257 -0.7768  0.2761
   72SLPC   H9X 6347   6.781   0.887   9.703  0.6286 -0.2425  1.5548
   72SLPC   H9Y 6348   6.688   0.739   9.709 -1.3388  0.9845  0.5665
   72SLPC  C310 6349   6.898   0.703   9.667  0.3217 -0.3204  0.8497
   72SLPC  H10X 6350   6.888   0.597   9.701  1.9805 -0.8897 -0.3109
   72SLPC  H10Y 6351   6.998   0.737   9.701  0.8937  0.4566 -1.4483
   72SLPC  C311 6352   6.896   0.701   9.514  1.0481  0.9403 -0.5258
   72SLPC  H11X 6353   6.815   0.636   9.472  2.0280 -0.2664 -0.6149
   72SLPC  H11Y 6354   6.990   0.654   9.479  1.0909 -0.9428  1.8478
   72SLPC  C312 6355   6.874   0.835   9.442  0.1502 -0.2191  1.0306
   72SLPC  H12X 6356   6.939   0.911   9.491  1.2897  0.0032 -0.7240
   72SLPC  H12Y 6357   6.767   0.861   9.453 -0.5678  1.0528 -5.4508
   72SLPC  C313 6358   6.873   0.822   9.286 -0.1733  0.1088  0.2421
   72SLPC  H13X 6359   6.792   0.750   9.261  0.1971 -0.9110  1.8502
   72SLPC  H13Y 6360   6.971   0.782   9.251  0.2312  1.7544 -0.5759
   72SLPC  C314 6361   6.828   0.938   9.195  0.4258 -1.6048  0.7841
   72SLPC  H14X 6362   6.731   0.977   9.231  1.7866  2.2390  0.8731
   72SLPC  H14Y 6363   6.820   0.908   9.089 -0.7830  1.8725 -0.2504
   72SLPC  C315 6364   6.922   1.062   9.200  0.5609  0.7847 -0.3430
   72SLPC  H15X 6365   6.952   1.077   9.306 -0.1167  0.5274 -0.1065
   72SLPC  H15Y 6366   6.860   1.151   9.177 -0.2643 -0.1752 -2.0447
   72SLPC  C316 6367   7.032   1.064   9.093 -0.0688 -0.6605 -1.1842
   72SLPC  H16X 6368   7.078   0.963   9.086 -1.9927 -1.5271 -2.2667
   72SLPC  H16Y 6369   7.110   1.136   9.126 -1.4735  0.2482  0.3303
   72SLPC  C317 6370   6.987   1.119   8.962 -0.0532  0.4861 -0.0345
   72SLPC  H17X 6371   6.945   1.221   8.979  1.8551  0.9366  2.5499
   72SLPC  H17Y 6372   6.906   1.049   8.931  0.5497  0.1022 -0.7782
   72SLPC  C318 6373   7.099   1.138   8.852  0.1650 -0.5792 -0.3264
   72SLPC  H18X 6374   7.066   1.207   8.772 -1.2560  0.7103  1.3070
   72SLPC  H18Y 6375   7.135   1.040   8.815  2.5330 -0.1621  0.6857
   72SLPC  H18Z 6376   7.184   1.187   8.904 -0.5709 -0.4373  0.7685
   73SLPC     N 6377   6.103   0.849  10.717 -0.2544  0.2018  0.1716
   73SLPC   C13 6378   5.993   0.782  10.640  0.4490  0.1225 -0.1478
   73SLPC  H13A 6379   5.966   0.841  10.555  1.0593 -0.0171 -0.4471
   73SLPC  H13B 6380   6.027   0.699  10.580  0.1124 -0.2485  0.1635
   73SLPC  H13C 6381   5.908   0.756  10.702  2.0834  1.9082  3.0514
   73SLPC   C14 6382   6.048   0.981  10.769 -0.2131  0.4729  0.3622
   73SLPC  H14A 6383   6.110   1.016  10.849  0.8324 -1.3827  0.4126
   73SLPC  H14B 6384   6.030   1.055  10.692  3.1692 -0.2048 -1.2868
   73SLPC  H14C 6385   5.953   0.964  10.818 -0.8239  1.0990 -0.5544
   73SLPC   C15 6386   6.215   0.867  10.627  0.1107 -0.0165  0.4997
   73SLPC  H15A 6387   6.265   0.772  10.617 -2.3620 -1.3274 -0.0985
   73SLPC  H15B 6388   6.188   0.905  10.529  1.3078 -0.2993  0.0385
   73SLPC  H15C 6389   6.278   0.951  10.654 -0.5764  0.4046  0.8130
   73SLPC   C12 6390   6.140   0.763  10.835  0.7245 -0.0495  0.2751
   73SLPC  H12A 6391   6.060   0.742  10.904  2.7038 -0.8537  2.4828
   73SLPC  H12B 6392   6.202   0.823  10.899 -1.8327  1.1411  1.7833
   73SLPC   C11 6393   6.218   0.632  10.808 -0.0411  0.5668 -0.5262
   73SLPC  H11A 6394   6.160   0.564  10.743  0.2139 -1.5353  1.3464
   73SLPC  H11B 6395   6.219   0.570  10.900 -0.7608  0.8461 -0.3246
   73SLPC     P 6396   6.470   0.671  10.835 -0.0669  0.1640 -0.1092
   73SLPC   O13 6397   6.444   0.791  10.919 -0.0502 -0.2664  0.1822
   73SLPC   O14 6398   6.516   0.551  10.908 -0.6998 -0.2630  0.4032
   73SLPC   O12 6399   6.348   0.638  10.748  0.1742 -0.4982 -0.2427
   73SLPC   O11 6400   6.594   0.714  10.742 -0.4809 -0.3679 -0.6287
   73SLPC    C1 6401   6.570   0.804  10.632 -0.1096 -0.4120 -1.1694
   73SLPC    HA 6402   6.482   0.872  10.632 -1.3874 -2.0016 -3.0232
   73SLPC    HB 6403   6.661   0.868  10.624  0.1160 -0.5478  0.0328
   73SLPC    C2 6404   6.569   0.724  10.498  0.3046 -0.6518  0.0682
   73SLPC    HS 6405   6.478   0.660  10.490 -1.4973  1.8618 -0.7029
   73SLPC   O21 6406   6.695   0.660  10.484  0.2739 -0.0704  0.0151
   73SLPC   C21 6407   6.688   0.536  10.429  0.2007  0.0186 -0.7058
   73SLPC   O22 6408   6.587   0.472  10.407  0.1254 -0.4088  0.5301
   73SLPC   C22 6409   6.831   0.499  10.387 -0.0987 -0.2696  0.0224
   73SLPC   H2R 6410   6.894   0.586  10.357  2.4405 -2.0411 -0.1523
   73SLPC   H2S 6411   6.875   0.472  10.486 -3.4777 -3.2251  0.9159
   73SLPC    C3 6412   6.552   0.825  10.375  0.0347  0.6320 -0.1165
   73SLPC    HX 6413   6.631   0.904  10.378  2.9562 -1.9695 -2.1681
   73SLPC    HY 6414   6.456   0.874  10.402  0.5565  0.8845  1.3717
   73SLPC   O31 6415   6.549   0.753  10.245 -0.1040 -0.4235  0.5711
   73SLPC   C31 6416   6.431   0.714  10.199  0.7785 -0.3973 -0.1107
   73SLPC   O32 6417   6.325   0.740  10.249  0.4616 -0.2843 -0.1017
   73SLPC   C32 6418   6.455   0.635  10.072  0.4941 -0.4501  0.0297
   73SLPC   H2X 6419   6.490   0.535  10.104  1.3699 -0.3990 -0.7396
   73SLPC   H2Y 6420   6.523   0.682   9.999  0.5342 -1.0479 -0.3268
   73SLPC   C23 6421   6.852   0.378  10.297  0.8866 -0.1214 -0.0376
   73SLPC   H3R 6422   6.787   0.294  10.331  0.8047  0.1526  0.4788
   73SLPC   H3S 6423   6.958   0.345  10.301  0.4966 -1.3915  3.6944
   73SLPC   C24 6424   6.812   0.404  10.154 -0.3669  0.5013 -0.3043
   73SLPC   H4R 6425   6.850   0.503  10.120  1.0478 -0.1628 -0.7244
   73SLPC   H4S 6426   6.702   0.419  10.149 -0.2042  1.3577 -2.5041
   73SLPC   C25 6427   6.851   0.294  10.061 -0.3972  0.1950  0.6100
   73SLPC   H5R 6428   6.802   0.198  10.089 -2.2468  0.7626 -0.5349
   73SLPC   H5S 6429   6.962   0.281  10.061 -0.1660  1.7439 -1.1502
   73SLPC   C26 6430   6.822   0.334   9.919  0.7884  0.3754  0.5042
   73SLPC   H6R 6431   6.876   0.430   9.904  0.5923  0.3452 -0.4737
   73SLPC   H6S 6432   6.713   0.355   9.918  0.6606 -0.2726 -0.0832
   73SLPC   C27 6433   6.865   0.239   9.812 -0.4013 -0.4195  0.1048
   73SLPC   H7R 6434   6.853   0.135   9.848 -1.6980  0.2143  1.6625
   73SLPC   H7S 6435   6.973   0.264   9.797 -0.6143  1.2066  1.0206
   73SLPC   C28 6436   6.802   0.255   9.673  0.0758 -0.0771  0.2246
   73SLPC   H8R 6437   6.828   0.354   9.629  1.8492 -0.7075 -0.2315
   73SLPC   H8S 6438   6.692   0.238   9.681  0.3857 -1.7898  1.3697
   73SLPC   C29 6439   6.841   0.134   9.579 -0.0849 -0.7157 -0.2523
   73SLPC   H9R 6440   6.904   0.058   9.628 -0.0592 -1.0363 -0.7720
   73SLPC  C210 6441   6.821   0.128   9.449  0.3207 -0.1954  0.4501
   73SLPC  H10R 6442   6.864   0.041   9.396 -0.7249 -0.1376 -0.5248
   73SLPC  C211 6443   6.749   0.227   9.358 -0.2215 -0.0125  0.7820
   73SLPC  H11R 6444   6.657   0.273   9.400  0.3425  0.1171  1.9068
   73SLPC  H11S 6445   6.723   0.175   9.263  0.1355 -2.5581  2.0081
   73SLPC  C212 6446   6.845   0.343   9.325 -0.4220  0.8515 -0.0678
   73SLPC  H12R 6447   6.943   0.334   9.373 -0.2520 -1.0570 -0.6738
   73SLPC  C213 6448   6.817   0.436   9.236 -0.0884 -0.0126 -0.5894
   73SLPC  H13R 6449   6.895   0.510   9.212  0.3432  0.1600  1.1935
   73SLPC  C214 6450   6.682   0.458   9.173  0.1599  0.5510 -0.7867
   73SLPC  H14R 6451   6.640   0.554   9.210 -0.2202 -0.0448  0.3846
   73SLPC  H14S 6452   6.612   0.374   9.191  0.0225  0.5141 -1.4765
   73SLPC  C215 6453   6.699   0.469   9.023  0.3369  0.8254  0.1107
   73SLPC  H15R 6454   6.747   0.383   8.970 -0.2001  1.3049 -1.1829
   73SLPC  H15S 6455   6.748   0.568   9.012 -2.3395  2.0995 -1.2830
   73SLPC  C216 6456   6.567   0.488   8.948  0.4012 -0.1105  0.1536
   73SLPC  H16R 6457   6.498   0.550   9.009 -0.1394 -1.7174  1.2283
   73SLPC  H16S 6458   6.512   0.392   8.939 -0.6684  0.5620 -0.7822
   73SLPC  C217 6459   6.581   0.542   8.805  0.5429  0.3507  0.4205
   73SLPC  H17R 6460   6.614   0.648   8.817 -0.1771  0.6021  0.2437
   73SLPC  H17S 6461   6.484   0.553   8.752  0.8796  1.6009  0.0264
   73SLPC  C218 6462   6.687   0.479   8.716 -0.6202  0.1928 -0.0818
   73SLPC  H18R 6463   6.650   0.375   8.699 -0.7571 -0.3984  3.0923
   73SLPC  H18S 6464   6.786   0.469   8.766 -0.1525 -0.1445 -1.0528
   73SLPC  H18T 6465   6.705   0.533   8.621  0.5476 -0.9758 -0.5664
   73SLPC   C33 6466   6.315   0.600  10.007 -0.2632  0.3183  0.2755
   73SLPC   H3X 6467   6.229   0.619  10.075 -0.9078  0.4244 -0.5510
   73SLPC   H3Y 6468   6.311   0.490   9.993  0.0526  0.3551 -0.1052
   73SLPC   C34 6469   6.283   0.675   9.878 -0.3039  0.4144 -0.4080
   73SLPC   H4X 6470   6.275   0.782   9.903 -0.4236  0.2436  0.3031
   73SLPC   H4Y 6471   6.181   0.641   9.850 -1.0350 -0.3632  2.7455
   73SLPC   C35 6472   6.375   0.650   9.751  0.0841  0.1126  0.0342
   73SLPC   H5X 6473   6.375   0.539   9.740  2.2474  0.0377  0.3961
   73SLPC   H5Y 6474   6.484   0.666   9.765  0.6325 -1.3773 -1.9927
   73SLPC   C36 6475   6.326   0.723   9.627  0.1664  0.2440 -0.4438
   73SLPC   H6X 6476   6.288   0.826   9.642  0.7039  0.5095 -0.8741
   73SLPC   H6Y 6477   6.241   0.669   9.580  0.1038  0.2834 -0.3753
   73SLPC   C37 6478   6.439   0.744   9.523  0.5678 -0.1169 -0.1555
   73SLPC   H7X 6479   6.492   0.647   9.512  1.2481  0.3339 -1.0519
   73SLPC   H7Y 6480   6.508   0.818   9.569  1.3825 -1.9229  1.6798
   73SLPC   C38 6481   6.392   0.792   9.387 -0.3741  0.2896  0.0778
   73SLPC   H8X 6482   6.320   0.875   9.404 -0.5761  0.1694 -0.1786
   73SLPC   H8Y 6483   6.339   0.716   9.326 -2.9926  2.0305 -0.0003
   73SLPC   C39 6484   6.507   0.829   9.291  0.1497 -0.2765  0.6231
   73SLPC   H9X 6485   6.600   0.774   9.317  1.9893  1.6665 -1.4257
   73SLPC   H9Y 6486   6.523   0.938   9.303 -2.0861  0.3853 -1.5697
   73SLPC  C310 6487   6.478   0.810   9.139  0.0408  0.5875 -0.2620
   73SLPC  H10X 6488   6.442   0.705   9.131  0.5641  0.2276  1.7280
   73SLPC  H10Y 6489   6.575   0.814   9.085  0.0870 -1.6140 -0.4294
   73SLPC  C311 6490   6.361   0.891   9.082 -0.2624  0.0242  0.1686
   73SLPC  H11X 6491   6.380   1.001   9.090 -3.7403  0.7901 -0.2908
   73SLPC  H11Y 6492   6.265   0.875   9.136 -0.4494  2.1368  0.5774
   73SLPC  C312 6493   6.330   0.864   8.930 -0.6657  1.1234 -0.7515
   73SLPC  H12X 6494   6.288   0.761   8.934  2.0215 -0.0802  2.8495
   73SLPC  H12Y 6495   6.425   0.841   8.877 -1.1829  1.0682 -1.6772
   73SLPC  C313 6496   6.252   0.969   8.869  0.2820 -0.6211  0.1706
   73SLPC  H13X 6497   6.290   1.073   8.887  1.8926 -1.2820  0.7926
   73SLPC  H13Y 6498   6.154   0.955   8.919  0.2322 -2.5042 -0.4019
   73SLPC  C314 6499   6.220   0.960   8.723 -0.6719 -1.0112 -0.8296
   73SLPC  H14X 6500   6.211   0.855   8.689 -1.8308 -2.0520  2.3543
   73SLPC  H14Y 6501   6.310   1.004   8.676 -0.9275  1.9810  1.1967
   73SLPC  C315 6502   6.099   1.041   8.673  0.5187  0.0490 -0.3270
   73SLPC  H15X 6503   6.121   1.148   8.695 -1.1882  0.5194 -0.7437
   73SLPC  H15Y 6504   6.009   1.014   8.732  2.7286  0.9023  3.7995
   73SLPC  C316 6505   6.058   1.032   8.524  0.4928 -0.4412  0.0746
   73SLPC  H16X 6506   6.134   1.073   8.455  1.2942 -0.7683  0.7480
   73SLPC  H16Y 6507   5.976   1.105   8.508 -1.5880 -1.7675  3.4866
   73SLPC  C317 6508   6.031   0.890   8.475 -0.5529  0.2300  1.3620
   73SLPC  H17X 6509   6.109   0.817   8.504  0.0359 -0.7092 -2.2273
   73SLPC  H17Y 6510   6.047   0.883   8.366  1.2931  2.2433  1.4475
   73SLPC  C318 6511   5.903   0.827   8.525  0.1343 -0.0677 -0.1233
   73SLPC  H18X 6512   5.814   0.892   8.510  2.5662  3.3513 -0.7643
   73SLPC  H18Y 6513   5.903   0.814   8.635  2.1561 -1.3756 -0.2332
   73SLPC  H18Z 6514   5.882   0.733   8.469 -2.1369  0.9754 -1.1608
   74SLPC     N 6515   0.841   1.597  10.769 -0.1883  0.3246 -0.0963
   74SLPC   C13 6516   0.862   1.729  10.710 -0.2585 -0.0859  0.0369
   74SLPC  H13A 6517   0.966   1.749  10.689 -0.0597 -1.4412 -0.3738
   74SLPC  H13B 6518   0.799   1.757  10.627  1.6315  0.4299 -1.2661
   74SLPC  H13C 6519   0.830   1.803  10.782 -0.7179 -0.4240  0.1921
   74SLPC   C14 6520   0.694   1.570  10.801  0.7916  0.0981  0.4343
   74SLPC  H14A 6521   0.655   1.638  10.875  2.6130  0.6275  0.9591
   74SLPC  H14B 6522   0.631   1.574  10.713  2.1549  1.7382 -0.5167
   74SLPC  H14C 6523   0.681   1.470  10.840  1.4553  0.3959  1.4420
   74SLPC   C15 6524   0.915   1.595  10.896  0.0670 -0.2153 -0.2840
   74SLPC  H15A 6525   0.893   1.506  10.951 -2.5807  1.0408  0.8668
   74SLPC  H15B 6526   1.018   1.618  10.869 -0.0730 -1.0494 -1.5777
   74SLPC  H15C 6527   0.886   1.677  10.960 -4.1453 -1.9632  0.3095
   74SLPC   C12 6528   0.894   1.492  10.675  0.4778  0.7165 -0.4516
   74SLPC  H12A 6529   0.853   1.401  10.717  0.5106  2.0864  2.8964
   74SLPC  H12B 6530   1.002   1.481  10.677  0.3139 -1.3077  0.0981
   74SLPC   C11 6531   0.857   1.504  10.524  0.0095  0.0459 -0.7732
   74SLPC  H11A 6532   0.913   1.425  10.469 -1.5696 -2.6187  1.2427
   74SLPC  H11B 6533   0.879   1.606  10.486 -0.0511  0.1311 -0.5809
   74SLPC     P 6534   0.648   1.352  10.519 -0.1970 -0.0726  0.2242
   74SLPC   O13 6535   0.733   1.259  10.601  0.4425 -0.2817 -0.1583
   74SLPC   O14 6536   0.512   1.366  10.570  0.6862  0.1530 -0.3108
   74SLPC   O12 6537   0.717   1.488  10.508 -0.8139 -0.8258 -0.4557
   74SLPC   O11 6538   0.642   1.311  10.362 -0.1329  0.0346  0.0310
   74SLPC    C1 6539   0.633   1.411  10.259  0.5032 -0.4848  0.2606
   74SLPC    HA 6540   0.565   1.494  10.284 -0.4299 -1.0180 -0.4620
   74SLPC    HB 6541   0.735   1.451  10.238  0.7389 -0.6154  1.1031
   74SLPC    C2 6542   0.576   1.357  10.125 -0.6703  0.3870  0.1039
   74SLPC    HS 6543   0.467   1.349  10.145 -0.4482 -0.6197  0.9841
   74SLPC   O21 6544   0.629   1.219  10.105 -0.6752 -0.2294 -0.4015
   74SLPC   C21 6545   0.539   1.140  10.052  0.1487  0.0793 -0.5330
   74SLPC   O22 6546   0.423   1.171  10.022 -0.1401 -0.1351 -0.2118
   74SLPC   C22 6547   0.588   0.998  10.046 -0.6618  0.1165  0.0436
   74SLPC   H2R 6548   0.699   1.001  10.047 -0.6125  0.5933  3.4629
   74SLPC   H2S 6549   0.537   0.944  10.129 -1.4872  0.5700 -0.1552
   74SLPC    C3 6550   0.597   1.448  10.005  0.8610 -0.2237 -0.4826
   74SLPC    HX 6551   0.704   1.465   9.980  0.3305  0.9090 -2.1309
   74SLPC    HY 6552   0.562   1.549  10.034 -0.1179 -0.4335 -0.8842
   74SLPC   O31 6553   0.533   1.398   9.887 -0.3816 -0.2447  0.1313
   74SLPC   C31 6554   0.407   1.442   9.866  0.2408  0.1298  0.5391
   74SLPC   O32 6555   0.351   1.527   9.937 -0.0908  0.1293  0.2083
   74SLPC   C32 6556   0.343   1.365   9.748  0.1323 -0.7115 -0.2187
   74SLPC   H2X 6557   0.336   1.259   9.780  0.5883  0.1596  3.1373
   74SLPC   H2Y 6558   0.413   1.374   9.662  1.6819 -1.1634  0.9456
   74SLPC   C23 6559   0.537   0.921   9.921  0.0512 -0.0210  0.5669
   74SLPC   H3R 6560   0.426   0.928   9.917  0.1732  1.9232 -2.4030
   74SLPC   H3S 6561   0.559   0.812   9.931 -1.5919 -0.3452  0.9799
   74SLPC   C24 6562   0.608   0.961   9.792 -0.1480 -1.1497  1.0071
   74SLPC   H4R 6563   0.718   0.961   9.804  0.0608 -0.2032 -0.6241
   74SLPC   H4S 6564   0.581   1.065   9.763  0.5883 -1.3270 -0.3518
   74SLPC   C25 6565   0.559   0.872   9.671  0.7209 -1.1230 -0.1752
   74SLPC   H5R 6566   0.452   0.885   9.643 -0.1555 -3.1770  1.8381
   74SLPC   H5S 6567   0.575   0.767   9.704  0.4592 -0.9860  0.3919
   74SLPC   C26 6568   0.642   0.901   9.544 -1.0398  0.3153  0.2329
   74SLPC   H6R 6569   0.720   0.821   9.538 -1.5899 -0.2913  0.9169
   74SLPC   H6S 6570   0.686   1.001   9.563 -3.9566  1.8180 -0.3353
   74SLPC   C27 6571   0.559   0.889   9.408  0.5031 -0.0553 -0.2160
   74SLPC   H7R 6572   0.523   0.991   9.382  1.2902  0.3271  0.1419
   74SLPC   H7S 6573   0.472   0.821   9.417  1.6649 -1.8989 -1.9852
   74SLPC   C28 6574   0.631   0.832   9.284 -0.3713  0.5350 -0.3619
   74SLPC   H8R 6575   0.548   0.811   9.213 -0.2925  0.8337 -0.5460
   74SLPC   H8S 6576   0.680   0.738   9.316 -0.6060  0.2720 -0.7651
   74SLPC   C29 6577   0.722   0.935   9.213  0.0170  0.0903  0.2074
   74SLPC   H9R 6578   0.786   0.986   9.287  0.5557  0.3769 -0.4446
   74SLPC  C210 6579   0.704   0.988   9.088 -0.7659  0.1973  0.3183
   74SLPC  H10R 6580   0.781   1.050   9.040 -0.7567  0.8056  1.1049
   74SLPC  C211 6581   0.597   0.936   8.994  0.2252  0.5848  0.0033
   74SLPC  H11R 6582   0.575   1.008   8.912 -0.7493 -1.0650 -1.2573
   74SLPC  H11S 6583   0.502   0.915   9.047  1.7174 -2.7365  1.6308
   74SLPC  C212 6584   0.637   0.808   8.928  0.1915  0.5869  0.2150
   74SLPC  H12R 6585   0.730   0.808   8.869  0.3201 -0.6449  0.3963
   74SLPC  C213 6586   0.569   0.693   8.919  0.3166  0.0016 -0.2622
   74SLPC  H13R 6587   0.606   0.612   8.855  1.6182 -0.4959  1.0728
   74SLPC  C214 6588   0.429   0.669   8.973 -0.1967 -0.1235  0.1210
   74SLPC  H14R 6589   0.378   0.767   8.984  0.0471  0.0087  0.0453
   74SLPC  H14S 6590   0.446   0.621   9.072  4.2824  0.7744 -0.0412
   74SLPC  C215 6591   0.326   0.588   8.888  0.6068  0.9936 -0.4745
   74SLPC  H15R 6592   0.299   0.640   8.794  0.6619  0.6232 -0.6972
   74SLPC  H15S 6593   0.234   0.581   8.951  1.7958 -0.7188  1.2062
   74SLPC  C216 6594   0.375   0.440   8.854 -0.0154  0.0880  0.0481
   74SLPC  H16R 6595   0.380   0.369   8.939 -0.3539 -0.8621 -0.7134
   74SLPC  H16S 6596   0.477   0.446   8.810 -0.0073 -0.4002 -0.0009
   74SLPC  C217 6597   0.280   0.377   8.753  0.0768 -0.1614  0.2244
   74SLPC  H17R 6598   0.245   0.445   8.673  0.7501  0.0090  0.0636
   74SLPC  H17S 6599   0.191   0.349   8.812 -1.4165  0.0036 -1.8519
   74SLPC  C218 6600   0.344   0.256   8.693 -0.2844  0.5305 -0.7407
   74SLPC  H18R 6601   0.415   0.274   8.609  0.1277 -0.8385 -0.7103
   74SLPC  H18S 6602   0.269   0.183   8.655  1.3902 -1.0457 -1.1461
   74SLPC  H18T 6603   0.402   0.212   8.776 -3.0390 -2.2582 -0.0957
   74SLPC   C33 6604   0.197   1.394   9.709 -0.1225 -0.2196 -0.2020
   74SLPC   H3X 6605   0.195   1.502   9.682 -0.7247 -0.5123 -1.4478
   74SLPC   H3Y 6606   0.136   1.395   9.802  0.3119  3.0925  0.1550
   74SLPC   C34 6607   0.128   1.310   9.603  0.2399  0.1041 -0.0387
   74SLPC   H4X 6608   0.135   1.206   9.640  1.6259  0.5903  1.1396
   74SLPC   H4Y 6609   0.198   1.313   9.517  0.4344  1.7217  0.1502
   74SLPC   C35 6610  -0.009   1.342   9.557 -0.0082  0.3556 -0.2778
   74SLPC   H5X 6611  -0.033   1.446   9.587  1.6476  0.3777  1.0855
   74SLPC   H5Y 6612  -0.082   1.283   9.616  1.0015 -2.3961 -1.5966
   74SLPC   C36 6613  -0.035   1.296   9.411  0.2058 -0.2700 -0.3702
   74SLPC   H6X 6614  -0.038   1.185   9.402 -0.3936 -0.3001  0.1348
   74SLPC   H6Y 6615   0.038   1.328   9.333 -0.1424 -1.2617 -1.1301
   74SLPC   C37 6616  -0.175   1.342   9.360 -0.5647  0.0171  0.4954
   74SLPC   H7X 6617  -0.166   1.452   9.350  0.5042 -0.0273  0.8476
   74SLPC   H7Y 6618  -0.247   1.316   9.440  1.7985 -1.8974  2.1518
   74SLPC   C38 6619  -0.230   1.293   9.220  0.0677  0.9980 -0.1829
   74SLPC   H8X 6620  -0.339   1.312   9.221  0.0158  0.7414 -0.6309
   74SLPC   H8Y 6621  -0.237   1.182   9.229 -2.1398  1.1440  0.4061
   74SLPC   C39 6622  -0.154   1.369   9.105  0.2709  0.3153 -0.2520
   74SLPC   H9X 6623  -0.043   1.370   9.105  0.3896 -0.3429 -3.6776
   74SLPC   H9Y 6624  -0.190   1.474   9.110 -2.7822 -0.5310 -1.7754
   74SLPC  C310 6625  -0.190   1.327   8.966  0.2437  0.3340 -0.0174
   74SLPC  H10X 6626  -0.301   1.331   8.954  0.1661 -0.9744  0.0818
   74SLPC  H10Y 6627  -0.154   1.222   8.962 -4.1898 -1.3817 -1.6495
   74SLPC  C311 6628  -0.111   1.417   8.864 -0.8742  0.3473 -0.4290
   74SLPC  H11X 6629  -0.016   1.363   8.844 -1.7216 -1.6863  0.6189
   74SLPC  H11Y 6630  -0.090   1.519   8.902  2.3325 -0.8347  1.4096
   74SLPC  C312 6631  -0.172   1.417   8.721  0.5362 -0.3484 -0.5828
   74SLPC  H12X 6632  -0.214   1.317   8.697 -3.2348  0.6636  1.0281
   74SLPC  H12Y 6633  -0.095   1.440   8.645  0.9919 -1.1379 -0.3756
   74SLPC  C313 6634  -0.286   1.522   8.712  0.5956  0.0847 -0.2377
   74SLPC  H13X 6635  -0.238   1.619   8.734  3.3851 -1.1701 -0.3463
   74SLPC  H13Y 6636  -0.361   1.492   8.789 -1.9106  3.2874 -1.1971
   74SLPC  C314 6637  -0.342   1.532   8.570  0.5713  0.3600  0.3309
   74SLPC  H14X 6638  -0.262   1.576   8.506  0.0783  2.0111  0.8173
   74SLPC  H14Y 6639  -0.425   1.606   8.575 -0.3631 -0.6351  0.1011
   74SLPC  C315 6640  -0.383   1.402   8.497 -0.1351 -0.7872 -0.3742
   74SLPC  H15X 6641  -0.438   1.339   8.569  1.6963 -1.2741  0.6714
   74SLPC  H15Y 6642  -0.289   1.349   8.469  0.4147  0.0679 -0.1779
   74SLPC  C316 6643  -0.470   1.418   8.372 -0.1600  0.6857  0.1190
   74SLPC  H16X 6644  -0.420   1.499   8.315  1.2478  1.1117  1.8867
   74SLPC  H16Y 6645  -0.569   1.447   8.414  0.2778 -0.6733  2.1989
   74SLPC  C317 6646  -0.467   1.286   8.289 -0.6581  0.1096 -0.5603
   74SLPC  H17X 6647  -0.549   1.302   8.216 -2.0996 -0.5523  0.8684
   74SLPC  H17Y 6648  -0.490   1.201   8.357 -0.2245  0.0886 -0.4321
   74SLPC  C318 6649  -0.335   1.247   8.213 -0.3407 -0.1391 -0.6513
   74SLPC  H18X 6650  -0.303   1.340   8.162 -2.8615  0.7105 -0.8307
   74SLPC  H18Y 6651  -0.360   1.167   8.140 -2.6117  0.9031 -1.1095
   74SLPC  H18Z 6652  -0.255   1.210   8.280  1.1418  1.2306 -1.6082
   75SLPC     N 6653   4.844   0.047   6.146  0.9467 -0.0574 -0.1873
   75SLPC   C13 6654   4.838   0.057   5.997  0.3242 -0.4307  0.7462
   75SLPC  H13A 6655   4.777  -0.024   5.960 -0.4004 -0.1031  1.2002
   75SLPC  H13B 6656   4.811   0.155   5.959 -0.0988 -0.5873  0.6426
   75SLPC  H13C 6657   4.936   0.046   5.953  0.2736 -2.0651  0.9798
   75SLPC   C14 6658   4.711   0.101   6.191 -0.5170  0.0114 -0.2555
   75SLPC  H14A 6659   4.630   0.048   6.145 -1.2484  0.1323  0.8647
   75SLPC  H14B 6660   4.710   0.106   6.299  1.6963 -0.2048 -0.1804
   75SLPC  H14C 6661   4.700   0.206   6.169  0.7345  0.1317 -0.4267
   75SLPC   C15 6662   4.952   0.140   6.197  0.5527 -0.1963  0.9197
   75SLPC  H15A 6663   4.933   0.241   6.163 -1.1274 -0.7538  0.0719
   75SLPC  H15B 6664   4.960   0.131   6.304  2.2162  0.5379  0.8869
   75SLPC  H15C 6665   5.052   0.108   6.173  0.9820 -0.1845  2.5435
   75SLPC   C12 6666   4.871  -0.093   6.197 -0.5198 -0.9761 -0.0266
   75SLPC  H12A 6667   4.969  -0.131   6.171  0.6982  2.2007 -0.5208
   75SLPC  H12B 6668   4.798  -0.161   6.156  0.2647 -1.0619 -1.3291
   75SLPC   C11 6669   4.874  -0.108   6.355 -0.0217 -0.4809  0.6825
   75SLPC  H11A 6670   4.946  -0.031   6.391  0.9707  0.0550 -2.1479
   75SLPC  H11B 6671   4.913  -0.208   6.381 -1.7848 -1.1328  0.9396
   75SLPC     P 6672   4.644  -0.211   6.414 -0.3271  0.1997 -0.4838
   75SLPC   O13 6673   4.512  -0.151   6.458  0.3683 -0.2025 -0.7027
   75SLPC   O14 6674   4.642  -0.295   6.294 -0.2516  0.2477 -0.0357
   75SLPC   O12 6675   4.746  -0.090   6.410 -0.6273 -0.2584 -0.2165
   75SLPC   O11 6676   4.716  -0.291   6.530 -0.2048  0.4279  0.3818
   75SLPC    C1 6677   4.730  -0.230   6.655 -0.4319 -0.4823 -0.0804
   75SLPC    HA 6678   4.840  -0.228   6.670 -0.3904 -2.3442  0.1134
   75SLPC    HB 6679   4.712  -0.120   6.646  0.1509 -0.4903 -1.7115
   75SLPC    C2 6680   4.647  -0.282   6.767  1.1130 -0.1274  0.4338
   75SLPC    HS 6681   4.676  -0.224   6.857  0.2113  0.4725  0.3536
   75SLPC   O21 6682   4.680  -0.422   6.796  0.2306  0.1375  0.1655
   75SLPC   C21 6683   4.796  -0.431   6.859  0.1185 -0.7988  0.6064
   75SLPC   O22 6684   4.867  -0.334   6.897  0.0443 -0.1852  0.5198
   75SLPC   C22 6685   4.832  -0.573   6.891  0.8092 -0.0169 -0.2060
   75SLPC   H2R 6686   4.852  -0.614   6.790 -1.8457  1.0214 -1.2643
   75SLPC   H2S 6687   4.932  -0.565   6.939  0.6003  1.6173  0.0296
   75SLPC    C3 6688   4.494  -0.277   6.746 -0.2800 -0.0228  0.5177
   75SLPC    HX 6689   4.481  -0.365   6.680  1.2862 -1.1961  1.6833
   75SLPC    HY 6690   4.445  -0.195   6.689 -0.1818  0.5273  1.2084
   75SLPC   O31 6691   4.422  -0.300   6.867 -0.3435  0.2466 -0.4403
   75SLPC   C31 6692   4.424  -0.198   6.947 -0.2588 -0.4917  0.9439
   75SLPC   O32 6693   4.477  -0.090   6.924 -0.0553  0.1302  0.6258
   75SLPC   C32 6694   4.356  -0.233   7.080 -0.3801 -0.0235 -0.6209
   75SLPC   H2X 6695   4.299  -0.329   7.082 -0.6014  0.0792 -1.5174
   75SLPC   H2Y 6696   4.276  -0.157   7.092 -0.4244  0.2693 -2.4946
   75SLPC   C23 6697   4.726  -0.655   6.974 -0.2811  0.1867  0.5271
   75SLPC   H3R 6698   4.768  -0.756   6.995  0.4424  0.1799 -0.8642
   75SLPC   H3S 6699   4.634  -0.666   6.913  1.2802 -2.6876 -1.5582
   75SLPC   C24 6700   4.700  -0.605   7.116 -0.3252 -0.6212  0.2766
   75SLPC   H4R 6701   4.619  -0.670   7.156 -2.0036  0.9848 -0.3303
   75SLPC   H4S 6702   4.663  -0.501   7.100 -0.2591 -0.7571 -0.8311
   75SLPC   C25 6703   4.822  -0.597   7.214 -0.3343 -0.6471 -0.0908
   75SLPC   H5R 6704   4.896  -0.528   7.169 -1.5170  0.4555 -0.4099
   75SLPC   H5S 6705   4.870  -0.698   7.213  1.9546  0.3822 -0.7620
   75SLPC   C26 6706   4.778  -0.557   7.355 -0.1532  0.2882 -0.1099
   75SLPC   H6R 6707   4.709  -0.639   7.381 -0.8514  1.1292  0.7639
   75SLPC   H6S 6708   4.721  -0.461   7.356  2.3590  1.9206 -1.2097
   75SLPC   C27 6709   4.892  -0.561   7.452  0.0909 -0.3810 -0.3522
   75SLPC   H7R 6710   4.961  -0.479   7.424 -0.0381  0.2735  1.1407
   75SLPC   H7S 6711   4.946  -0.658   7.450 -0.1053 -0.4779 -1.0883
   75SLPC   C28 6712   4.841  -0.526   7.591  0.2221 -0.3996  0.3033
   75SLPC   H8R 6713   4.744  -0.577   7.610 -0.7617  0.9400 -0.8802
   75SLPC   H8S 6714   4.817  -0.419   7.579  0.8266 -0.5147 -2.8245
   75SLPC   C29 6715   4.947  -0.536   7.699 -0.8719  0.4493 -0.1416
   75SLPC   H9R 6716   5.051  -0.514   7.671 -0.7020  1.2329  1.0388
   75SLPC  C210 6717   4.930  -0.571   7.834  0.3348  0.5876 -0.2170
   75SLPC  H10R 6718   5.013  -0.566   7.906 -2.0323  1.6500  2.6383
   75SLPC  C211 6719   4.794  -0.602   7.900 -0.5116 -0.4200  0.5531
   75SLPC  H11R 6720   4.714  -0.577   7.828 -2.0957 -0.1337  2.3145
   75SLPC  H11S 6721   4.779  -0.537   7.989  2.1363 -0.2932  0.9942
   75SLPC  C212 6722   4.780  -0.748   7.945 -0.5633  0.3587 -0.3179
   75SLPC  H12R 6723   4.793  -0.817   7.861 -0.4467 -2.2642  1.7053
   75SLPC  C213 6724   4.754  -0.798   8.061 -0.2180  0.4870 -0.1329
   75SLPC  H13R 6725   4.766  -0.907   8.072  3.4836  0.7417 -0.4225
   75SLPC  C214 6726   4.727  -0.741   8.200 -0.2408  0.3136  0.1411
   75SLPC  H14R 6727   4.630  -0.790   8.222  0.9774 -2.5727 -0.3580
   75SLPC  H14S 6728   4.707  -0.632   8.197  1.1899  0.5736 -1.9841
   75SLPC  C215 6729   4.818  -0.769   8.316  0.3807  0.3927  0.1411
   75SLPC  H15R 6730   4.767  -0.737   8.410  0.5744 -0.1704  0.4437
   75SLPC  H15S 6731   4.902  -0.697   8.316  1.7398 -0.9049 -3.9558
   75SLPC  C216 6732   4.864  -0.920   8.325 -0.2202 -0.3260 -0.1709
   75SLPC  H16R 6733   4.941  -0.914   8.406 -0.6726  1.6800  0.1821
   75SLPC  H16S 6734   4.925  -0.938   8.235 -0.1456 -0.1245 -0.1618
   75SLPC  C217 6735   4.748  -1.014   8.361  0.0386  0.0777  0.1024
   75SLPC  H17R 6736   4.655  -1.004   8.302  1.0056  3.7168 -1.0817
   75SLPC  H17S 6737   4.722  -0.988   8.465  1.8257 -0.3965  0.7165
   75SLPC  C218 6738   4.783  -1.165   8.374 -0.0398 -0.4662 -0.5030
   75SLPC  H18R 6739   4.882  -1.191   8.417  0.5602  0.7153 -1.1213
   75SLPC  H18S 6740   4.774  -1.227   8.282 -1.5472 -2.4555  0.9027
   75SLPC  H18T 6741   4.706  -1.212   8.438  0.5225 -0.1225  0.4490
   75SLPC   C33 6742   4.457  -0.230   7.188  0.0066 -0.8872 -1.1637
   75SLPC   H3X 6743   4.544  -0.299   7.183  0.0323 -1.2483  2.0111
   75SLPC   H3Y 6744   4.498  -0.127   7.196 -0.8807 -0.5431 -0.9916
   75SLPC   C34 6745   4.387  -0.263   7.322  0.5389 -0.1661  0.3422
   75SLPC   H4X 6746   4.354  -0.369   7.319 -0.4392  0.1307 -2.8876
   75SLPC   H4Y 6747   4.297  -0.198   7.336 -0.9204 -1.7201 -1.2716
   75SLPC   C35 6748   4.475  -0.249   7.446  0.0520 -0.1829 -0.1956
   75SLPC   H5X 6749   4.534  -0.161   7.415  1.5097 -0.7349  0.8595
   75SLPC   H5Y 6750   4.555  -0.326   7.447 -0.5480 -0.8237  0.6496
   75SLPC   C36 6751   4.409  -0.233   7.584 -0.0911 -0.4486  0.0724
   75SLPC   H6X 6752   4.335  -0.313   7.601 -2.0005  0.6555 -2.3696
   75SLPC   H6Y 6753   4.369  -0.129   7.588  0.5286 -0.2000 -0.0312
   75SLPC   C37 6754   4.515  -0.230   7.692  1.1644 -0.8278 -0.1123
   75SLPC   H7X 6755   4.592  -0.154   7.672  1.6489 -1.1461  0.5117
   75SLPC   H7Y 6756   4.563  -0.329   7.712  2.9462  0.6014  3.6416
   75SLPC   C38 6757   4.459  -0.200   7.831 -0.1260 -0.1959 -0.8008
   75SLPC   H8X 6758   4.376  -0.273   7.845 -1.7280  1.4533 -1.2814
   75SLPC   H8Y 6759   4.412  -0.099   7.823  1.0820  0.3481 -1.2830
   75SLPC   C39 6760   4.566  -0.185   7.938  0.7154 -0.2006  0.0187
   75SLPC   H9X 6761   4.646  -0.119   7.899  0.3073  0.1275 -0.2639
   75SLPC   H9Y 6762   4.611  -0.286   7.940 -0.2226 -0.6245  1.1740
   75SLPC  C310 6763   4.528  -0.148   8.078 -0.9385  0.2312 -0.4895
   75SLPC  H10X 6764   4.457  -0.223   8.118  1.6000 -1.3321  1.3760
   75SLPC  H10Y 6765   4.489  -0.045   8.094  1.7761  1.0183  2.0157
   75SLPC  C311 6766   4.652  -0.180   8.159  0.5228 -0.2066 -0.2467
   75SLPC  H11X 6767   4.729  -0.103   8.137 -2.1865  2.0731 -2.6319
   75SLPC  H11Y 6768   4.680  -0.283   8.127 -1.6998 -0.0287 -3.2196
   75SLPC  C312 6769   4.628  -0.181   8.313  0.0223 -0.0226  0.1921
   75SLPC  H12X 6770   4.524  -0.207   8.340 -1.7958  2.8435 -3.2260
   75SLPC  H12Y 6771   4.644  -0.076   8.347  0.5336  0.2126 -0.7392
   75SLPC  C313 6772   4.738  -0.260   8.386 -0.0922 -0.0960  0.8218
   75SLPC  H13X 6773   4.830  -0.203   8.361  0.4566 -1.4915 -0.5383
   75SLPC  H13Y 6774   4.757  -0.355   8.332 -0.9032  1.5138 -2.5969
   75SLPC  C314 6775   4.703  -0.270   8.530 -0.4310  0.4848 -0.4608
   75SLPC  H14X 6776   4.606  -0.320   8.553 -0.0194 -0.7523 -1.3048
   75SLPC  H14Y 6777   4.703  -0.170   8.578  2.3915  0.5353 -0.4100
   75SLPC  C315 6778   4.817  -0.341   8.609 -0.0572 -0.1335 -0.3230
   75SLPC  H15X 6779   4.786  -0.366   8.713  2.6774  0.8051  0.7988
   75SLPC  H15Y 6780   4.906  -0.277   8.626 -0.6968  0.5580  0.5633
   75SLPC  C316 6781   4.858  -0.475   8.554 -0.0055  0.2107  0.1162
   75SLPC  H16X 6782   4.916  -0.456   8.461  0.5563  1.4279  0.6943
   75SLPC  H16Y 6783   4.766  -0.537   8.543  1.2229 -1.5875 -0.4123
   75SLPC  C317 6784   4.963  -0.543   8.643  0.3010  0.8556  0.7860
   75SLPC  H17X 6785   4.910  -0.566   8.738 -2.1010 -2.8695 -1.2161
   75SLPC  H17Y 6786   5.047  -0.471   8.656  0.3179  1.3582 -1.7475
   75SLPC  C318 6787   5.019  -0.676   8.580  1.0047  0.4140  0.3503
   75SLPC  H18X 6788   5.110  -0.708   8.635  0.4578 -0.4566  0.7666
   75SLPC  H18Y 6789   5.057  -0.654   8.478 -0.6302  1.3531 -0.1032
   75SLPC  H18Z 6790   4.949  -0.762   8.571  1.6771  0.0026 -1.3564
   76SLPC     N 6791   0.193   5.588   6.354 -0.7554 -0.0874  0.0933
   76SLPC   C13 6792   0.185   5.709   6.266  0.6686 -0.4311 -0.1607
   76SLPC  H13A 6793   0.138   5.783   6.329 -0.7354  0.5431 -2.2303
   76SLPC  H13B 6794   0.281   5.745   6.231  2.2916  0.7841  4.7115
   76SLPC  H13C 6795   0.122   5.693   6.180  2.3022 -0.8785 -1.3288
   76SLPC   C14 6796   0.051   5.547   6.394  0.6020  0.8351  1.1714
   76SLPC  H14A 6797  -0.001   5.610   6.464  0.1368  2.4521 -0.5504
   76SLPC  H14B 6798  -0.005   5.557   6.302  1.5960  0.1071  0.4582
   76SLPC  H14C 6799   0.049   5.442   6.418  1.3462  0.4119 -0.4537
   76SLPC   C15 6800   0.276   5.622   6.476  0.4725 -0.1044  0.0259
   76SLPC  H15A 6801   0.376   5.646   6.443  0.5928  1.2972  1.3103
   76SLPC  H15B 6802   0.227   5.705   6.526  0.1279 -0.9468  1.1136
   76SLPC  H15C 6803   0.290   5.543   6.548 -0.9117 -0.6091 -0.2225
   76SLPC   C12 6804   0.250   5.477   6.266  0.1269  0.3049  0.0705
   76SLPC  H12A 6805   0.346   5.498   6.222 -0.8386 -0.4807 -2.5769
   76SLPC  H12B 6806   0.189   5.454   6.180 -1.0544  1.7644  0.4710
   76SLPC   C11 6807   0.255   5.342   6.345  0.6123  0.5467 -0.6562
   76SLPC  H11A 6808   0.302   5.356   6.444 -0.2239  1.0852 -0.3284
   76SLPC  H11B 6809   0.326   5.275   6.291  1.0425  1.9721 -1.9526
   76SLPC     P 6810   0.084   5.126   6.327 -0.0298 -0.3130 -0.0100
   76SLPC   O13 6811  -0.009   5.126   6.212  0.0810  0.0577 -0.1000
   76SLPC   O14 6812   0.198   5.039   6.323 -0.3122  0.0893 -0.0905
   76SLPC   O12 6813   0.130   5.277   6.372 -0.0217  0.4264  0.2957
   76SLPC   O11 6814  -0.005   5.079   6.441 -0.0513 -0.5434 -0.7021
   76SLPC    C1 6815  -0.083   5.171   6.522  0.0114 -0.0595  0.2197
   76SLPC    HA 6816  -0.079   5.278   6.492 -2.3674 -0.3673 -1.5461
   76SLPC    HB 6817  -0.190   5.141   6.517  0.3369 -1.0917 -1.2112
   76SLPC    C2 6818  -0.058   5.159   6.674 -0.3614  0.1330  0.1481
   76SLPC    HS 6819  -0.140   5.219   6.719 -0.3659 -0.2748  0.6845
   76SLPC   O21 6820   0.075   5.205   6.698  0.0350 -0.2756 -0.1511
   76SLPC   C21 6821   0.081   5.332   6.715  0.2967 -0.6987  0.8091
   76SLPC   O22 6822  -0.002   5.418   6.697  0.4706  0.2843  0.2571
   76SLPC   C22 6823   0.223   5.366   6.747  0.0009 -0.2787  0.7353
   76SLPC   H2R 6824   0.289   5.279   6.729 -1.3072 -1.7240  2.5412
   76SLPC   H2S 6825   0.260   5.441   6.673 -0.6845 -0.7718 -0.1193
   76SLPC    C3 6826  -0.078   5.015   6.724  0.0101 -0.1833  0.2502
   76SLPC    HX 6827  -0.015   4.944   6.666 -1.5788 -3.6418  2.4139
   76SLPC    HY 6828  -0.186   5.000   6.701  0.0178 -0.4581  0.3819
   76SLPC   O31 6829  -0.053   5.008   6.863 -0.4395  0.1733 -0.6053
   76SLPC   C31 6830   0.064   4.956   6.911  0.8507  0.2653 -0.5863
   76SLPC   O32 6831   0.160   4.920   6.847  0.2201 -0.3959  0.4060
   76SLPC   C32 6832   0.051   4.938   7.067 -1.0511  0.2931  0.7803
   76SLPC   H2X 6833  -0.010   4.845   7.062 -1.3005  0.4773  0.3070
   76SLPC   H2Y 6834   0.003   5.026   7.117  0.5555  1.8243 -0.2609
   76SLPC   C23 6835   0.221   5.434   6.887  0.1338  0.5257 -0.3681
   76SLPC   H3R 6836   0.145   5.513   6.896 -0.3058 -0.1434  2.9986
   76SLPC   H3S 6837   0.315   5.493   6.889  0.2098  0.4298 -0.9179
   76SLPC   C24 6838   0.202   5.333   7.003 -0.0673  0.2228  0.4317
   76SLPC   H4R 6839   0.281   5.258   6.981 -1.4015 -0.9481 -0.5723
   76SLPC   H4S 6840   0.111   5.270   6.989  0.8796 -1.4143  1.2983
   76SLPC   C25 6841   0.200   5.395   7.141  0.0454  0.1560 -0.1696
   76SLPC   H5R 6842   0.097   5.434   7.157 -1.0204 -1.4009 -2.6891
   76SLPC   H5S 6843   0.271   5.481   7.143  0.7710 -0.4397  0.1103
   76SLPC   C26 6844   0.232   5.297   7.259  0.6314 -0.3559 -0.1481
   76SLPC   H6R 6845   0.329   5.247   7.237  1.8795  2.0589 -0.5126
   76SLPC   H6S 6846   0.147   5.228   7.244  1.3041 -0.8907 -1.7353
   76SLPC   C27 6847   0.232   5.353   7.400  0.1611 -0.2936 -0.5686
   76SLPC   H7R 6848   0.132   5.397   7.421 -0.2318 -0.8884 -1.1538
   76SLPC   H7S 6849   0.304   5.436   7.416 -1.7763  1.1462  1.0704
   76SLPC   C28 6850   0.248   5.243   7.511  0.2517 -0.3301 -0.0594
   76SLPC   H8R 6851   0.200   5.275   7.606  1.3470 -0.2161  0.4648
   76SLPC   H8S 6852   0.190   5.153   7.482 -0.3596 -0.4371  1.4159
   76SLPC   C29 6853   0.389   5.210   7.526 -0.4247  0.2671  0.3825
   76SLPC   H9R 6854   0.431   5.164   7.435 -2.3043  0.5194 -0.6603
   76SLPC  C210 6855   0.460   5.227   7.644  0.7303 -0.2655 -0.6248
   76SLPC  H10R 6856   0.568   5.208   7.639  0.7591  0.0864 -1.4037
   76SLPC  C211 6857   0.399   5.275   7.776 -0.2134  0.0151 -0.7001
   76SLPC  H11R 6858   0.307   5.217   7.799 -0.0228 -0.3874 -0.9298
   76SLPC  H11S 6859   0.353   5.375   7.760  0.9050  0.5544 -0.6160
   76SLPC  C212 6860   0.487   5.296   7.897  0.3051  0.5595 -0.9016
   76SLPC  H12R 6861   0.582   5.350   7.885  1.6988 -1.1121  1.7302
   76SLPC  C213 6862   0.453   5.256   8.019  0.0075 -0.5101  0.1639
   76SLPC  H13R 6863   0.523   5.290   8.097 -0.7955  2.9109 -0.4283
   76SLPC  C214 6864   0.334   5.185   8.072  0.4554 -0.0924 -0.1862
   76SLPC  H14R 6865   0.350   5.076   8.081 -0.1512 -0.5056 -3.0328
   76SLPC  H14S 6866   0.245   5.204   8.008  0.7020  0.7061 -0.3079
   76SLPC  C215 6867   0.289   5.238   8.216 -0.2252  1.0556  0.0219
   76SLPC  H15R 6868   0.186   5.209   8.244 -0.4969  1.0861 -0.9035
   76SLPC  H15S 6869   0.283   5.349   8.212 -2.1328  0.9582 -0.5617
   76SLPC  C216 6870   0.393   5.191   8.325 -0.3188 -0.0701  0.2983
   76SLPC  H16R 6871   0.357   5.239   8.419  1.6772  0.1526  1.0060
   76SLPC  H16S 6872   0.492   5.231   8.295  0.8321 -2.6937  0.2952
   76SLPC  C217 6873   0.404   5.040   8.361  0.0771 -0.3045  0.3718
   76SLPC  H17R 6874   0.509   5.014   8.390 -0.2208 -2.1725 -0.1038
   76SLPC  H17S 6875   0.387   4.972   8.275 -3.8127 -0.7683  1.3596
   76SLPC  C218 6876   0.313   5.006   8.480 -0.0002  0.2323 -0.2051
   76SLPC  H18R 6877   0.211   5.033   8.447 -0.2160  2.2485  1.8464
   76SLPC  H18S 6878   0.339   5.062   8.573 -2.8100  1.0705  0.1732
   76SLPC  H18T 6879   0.304   4.896   8.490 -2.8325  0.3330 -0.9688
   76SLPC   C33 6880   0.184   4.910   7.136 -0.4000 -0.7069  0.1536
   76SLPC   H3X 6881   0.249   4.997   7.116 -1.3592  0.8639  3.3011
   76SLPC   H3Y 6882   0.238   4.820   7.098  2.3045  0.5847  0.6514
   76SLPC   C34 6883   0.179   4.894   7.288  0.5666 -0.1483 -0.0299
   76SLPC   H4X 6884   0.092   4.825   7.298 -1.8686  2.8435  0.8830
   76SLPC   H4Y 6885   0.151   4.989   7.338 -2.4503  0.2476 -2.1782
   76SLPC   C35 6886   0.313   4.848   7.349 -0.6011  0.3992  0.5462
   76SLPC   H5X 6887   0.393   4.919   7.319  0.4630 -1.5509 -1.5125
   76SLPC   H5Y 6888   0.352   4.752   7.311 -2.6937 -0.1567 -0.3203
   76SLPC   C36 6889   0.312   4.840   7.499  0.3695  0.3908 -0.6043
   76SLPC   H6X 6890   0.274   4.737   7.519 -0.0776 -0.2607 -4.0451
   76SLPC   H6Y 6891   0.253   4.925   7.539  0.2078  0.2220 -0.4831
   76SLPC   C37 6892   0.452   4.842   7.559  0.0449  0.4296  1.1241
   76SLPC   H7X 6893   0.503   4.937   7.530  0.1598 -0.0051 -0.1485
   76SLPC   H7Y 6894   0.505   4.753   7.520 -1.6156 -1.0019  2.0081
   76SLPC   C38 6895   0.457   4.841   7.708  0.7814  0.4245 -0.2455
   76SLPC   H8X 6896   0.430   4.738   7.739  2.1742 -0.6175 -2.3180
   76SLPC   H8Y 6897   0.385   4.917   7.746  1.3243 -0.3388  2.6065
   76SLPC   C39 6898   0.590   4.874   7.761  0.4070  0.2596  0.3014
   76SLPC   H9X 6899   0.616   4.979   7.736  1.9009  0.7489  3.4268
   76SLPC   H9Y 6900   0.673   4.805   7.732  1.5729  2.0914 -0.9165
   76SLPC  C310 6901   0.591   4.880   7.919 -0.6230  0.2232  0.7385
   76SLPC  H10X 6902   0.573   4.779   7.960 -0.8291 -0.7691 -1.6214
   76SLPC  H10Y 6903   0.506   4.945   7.948 -0.4438  0.8171 -0.0160
   76SLPC  C311 6904   0.718   4.938   7.973  0.1722  0.1861  0.3334
   76SLPC  H11X 6905   0.739   5.033   7.921  1.6320  0.0773  0.6791
   76SLPC  H11Y 6906   0.803   4.869   7.952 -0.3532 -0.2818 -0.3039
   76SLPC  C312 6907   0.702   4.947   8.123 -0.9123 -0.4535  0.4914
   76SLPC  H12X 6908   0.701   4.846   8.168  2.7532  0.0009  1.9759
   76SLPC  H12Y 6909   0.609   5.000   8.154  0.2982  1.0556  1.7133
   76SLPC  C313 6910   0.815   5.024   8.185 -0.3653  0.0892 -0.5647
   76SLPC  H13X 6911   0.841   5.109   8.118 -1.2275 -0.3039 -1.4195
   76SLPC  H13Y 6912   0.908   4.967   8.205 -0.6215 -0.0126  0.3556
   76SLPC  C314 6913   0.786   5.082   8.328  0.1050 -0.6634  0.1135
   76SLPC  H14X 6914   0.771   4.996   8.397  1.5971 -1.3305 -0.3537
   76SLPC  H14Y 6915   0.693   5.142   8.316 -1.3542 -2.7722  0.3043
   76SLPC  C315 6916   0.893   5.171   8.389  0.0659 -0.5676 -0.3331
   76SLPC  H15X 6917   0.922   5.255   8.322 -1.0759  0.2025  0.1091
   76SLPC  H15Y 6918   0.983   5.107   8.392  0.4909 -0.1668 -2.5720
   76SLPC  C316 6919   0.862   5.231   8.529  0.0767  0.4760 -0.1501
   76SLPC  H16X 6920   0.941   5.298   8.568 -0.3128  1.5406 -1.1272
   76SLPC  H16Y 6921   0.846   5.148   8.601 -1.1940 -0.5733 -1.5709
   76SLPC  C317 6922   0.724   5.302   8.530 -0.1011  0.5614  0.1697
   76SLPC  H17X 6923   0.645   5.227   8.506  1.1214 -0.0985 -2.0379
   76SLPC  H17Y 6924   0.726   5.390   8.462 -0.3527  2.8079  2.8866
   76SLPC  C318 6925   0.700   5.364   8.667  0.0976  0.5247  0.3571
   76SLPC  H18X 6926   0.776   5.435   8.705  0.7857  1.5525 -2.6333
   76SLPC  H18Y 6927   0.691   5.286   8.745  3.0601  0.5830  0.8572
   76SLPC  H18Z 6928   0.601   5.413   8.659 -1.1067 -1.8233  0.0332
   77SLPC     N 6929   3.710   4.061   6.325 -0.2163 -0.5828  0.2424
   77SLPC   C13 6930   3.804   4.126   6.216 -0.4537  0.4420  0.3181
   77SLPC  H13A 6931   3.804   4.062   6.129 -0.2936 -0.1812  0.7672
   77SLPC  H13B 6932   3.784   4.231   6.201  0.9603  0.6288 -0.4301
   77SLPC  H13C 6933   3.903   4.128   6.258  0.5302 -1.6871 -1.6580
   77SLPC   C14 6934   3.757   3.924   6.353  0.1392  0.4711  0.1208
   77SLPC  H14A 6935   3.854   3.912   6.398  0.5593 -2.7767 -1.3595
   77SLPC  H14B 6936   3.693   3.877   6.427 -1.6820  0.3405 -1.4492
   77SLPC  H14C 6937   3.756   3.855   6.269  1.4217 -0.2734  0.6925
   77SLPC   C15 6938   3.581   4.047   6.255 -0.1562 -0.1009 -0.7957
   77SLPC  H15A 6939   3.506   4.004   6.320  0.9974 -0.9129  0.0476
   77SLPC  H15B 6940   3.536   4.141   6.229  2.7592  2.2838  1.9280
   77SLPC  H15C 6941   3.582   3.983   6.168 -2.1643 -1.2032 -0.0769
   77SLPC   C12 6942   3.707   4.147   6.442  0.3828  0.5979 -0.0751
   77SLPC  H12A 6943   3.648   4.102   6.521  1.7117 -0.0526  0.5844
   77SLPC  H12B 6944   3.659   4.241   6.418 -0.2740  0.3581  0.2539
   77SLPC   C11 6945   3.848   4.185   6.511 -0.0192 -0.1270 -0.0524
   77SLPC  H11A 6946   3.902   4.090   6.531  0.0405 -0.8225 -3.1072
   77SLPC  H11B 6947   3.819   4.241   6.603 -0.8423 -0.1859 -0.2682
   77SLPC     P 6948   3.922   4.413   6.432  0.0505  0.2067 -0.4613
   77SLPC   O13 6949   4.008   4.473   6.326 -0.0527 -0.0593 -0.8856
   77SLPC   O14 6950   3.784   4.463   6.429  0.8972  0.6249  0.0268
   77SLPC   O12 6951   3.930   4.255   6.423 -0.0092 -0.5625  0.1094
   77SLPC   O11 6952   3.982   4.444   6.575  0.1915 -0.2092 -0.1589
   77SLPC    C1 6953   4.126   4.429   6.601 -0.0130 -1.1683  0.2176
   77SLPC    HA 6954   4.150   4.321   6.608 -0.4490 -1.1515  3.1449
   77SLPC    HB 6955   4.184   4.481   6.521 -2.1501  0.2948 -0.4528
   77SLPC    C2 6956   4.168   4.501   6.727  0.2246  0.5378 -0.1488
   77SLPC    HS 6957   4.273   4.469   6.747  0.5148  1.1656 -0.6713
   77SLPC   O21 6958   4.084   4.468   6.838 -0.4372  0.2869 -0.1862
   77SLPC   C21 6959   4.089   4.351   6.883 -0.6208 -0.1585  0.2832
   77SLPC   O22 6960   4.137   4.252   6.825  0.3027  0.1956  0.2059
   77SLPC   C22 6961   4.024   4.345   7.025  0.1436  0.8314 -0.7454
   77SLPC   H2R 6962   3.963   4.436   7.041  0.6063  1.5619 -2.7806
   77SLPC   H2S 6963   3.959   4.256   7.016  0.0032  0.8554 -0.0032
   77SLPC    C3 6964   4.156   4.654   6.703  0.2904 -0.4185 -0.4837
   77SLPC    HX 6965   4.050   4.679   6.679  0.4003 -0.3654 -0.9229
   77SLPC    HY 6966   4.208   4.677   6.607  1.3540 -0.3615  0.0921
   77SLPC   O31 6967   4.222   4.726   6.816  0.9650 -0.3140 -0.7062
   77SLPC   C31 6968   4.143   4.773   6.917  0.5042  0.1942 -0.1755
   77SLPC   O32 6969   4.022   4.777   6.913 -0.2621  0.5286  0.5127
   77SLPC   C32 6970   4.232   4.842   7.020  0.1144  0.1079  0.0997
   77SLPC   H2X 6971   4.314   4.893   6.965  0.7711 -0.4813  0.5085
   77SLPC   H2Y 6972   4.269   4.763   7.089  1.3383 -1.6702 -2.4469
   77SLPC   C23 6973   4.130   4.320   7.132  0.9794 -0.4756 -0.4258
   77SLPC   H3R 6974   4.201   4.245   7.092  1.0866  0.0120 -1.1791
   77SLPC   H3S 6975   4.079   4.279   7.221  2.0479 -1.3150 -0.1824
   77SLPC   C24 6976   4.218   4.443   7.166  0.2383  0.3285 -0.5004
   77SLPC   H4R 6977   4.161   4.526   7.213  0.7610 -0.3366  1.3955
   77SLPC   H4S 6978   4.266   4.480   7.073 -2.7213  0.2854 -2.1849
   77SLPC   C25 6979   4.332   4.410   7.263 -0.1300  0.1735  0.1268
   77SLPC   H5R 6980   4.417   4.480   7.247 -1.4754  1.5980 -1.1533
   77SLPC   H5S 6981   4.358   4.302   7.251 -1.8844 -0.4238  1.3293
   77SLPC   C26 6982   4.295   4.411   7.405  0.6520 -0.0885 -0.5868
   77SLPC   H6R 6983   4.205   4.347   7.420  0.9377 -0.3505  0.0820
   77SLPC   H6S 6984   4.264   4.513   7.435  1.0767 -0.4614  1.2393
   77SLPC   C27 6985   4.403   4.363   7.502  0.1599  0.6313 -0.3435
   77SLPC   H7R 6986   4.499   4.414   7.482  2.4972 -3.1569  0.1195
   77SLPC   H7S 6987   4.423   4.254   7.491 -1.7214  0.2409 -0.2148
   77SLPC   C28 6988   4.377   4.392   7.652  0.8652 -0.1119  0.4878
   77SLPC   H8R 6989   4.361   4.502   7.653  0.4399 -0.1771  1.2839
   77SLPC   H8S 6990   4.475   4.392   7.704  1.0586  0.0041  0.1335
   77SLPC   C29 6991   4.266   4.311   7.714 -0.7940  0.2303  0.0638
   77SLPC   H9R 6992   4.188   4.276   7.644 -2.1071  4.1508 -0.6456
   77SLPC  C210 6993   4.262   4.268   7.840 -0.3491 -0.2614 -0.6390
   77SLPC  H10R 6994   4.171   4.210   7.862  0.5085 -1.7295 -0.8595
   77SLPC  C211 6995   4.342   4.289   7.960  0.8372  0.2872  0.3257
   77SLPC  H11R 6996   4.414   4.206   7.973  0.1977 -0.0128  2.4238
   77SLPC  H11S 6997   4.275   4.262   8.044  0.7601  2.4476  1.0335
   77SLPC  C212 6998   4.408   4.419   8.001 -0.2521  1.0520 -0.0014
   77SLPC  H12R 6999   4.451   4.465   7.911 -2.5947  0.0853 -1.7118
   77SLPC  C213 7000   4.427   4.482   8.120 -0.2628 -0.1061 -0.5190
   77SLPC  H13R 7001   4.481   4.578   8.122 -0.3706 -0.0206 -1.4267
   77SLPC  C214 7002   4.385   4.429   8.257 -0.5661  0.0016  0.3024
   77SLPC  H14R 7003   4.467   4.442   8.330  0.9274  1.1076 -1.4732
   77SLPC  H14S 7004   4.375   4.318   8.253  1.7539 -0.2964  0.9712
   77SLPC  C215 7005   4.263   4.503   8.309 -0.5693 -0.3351 -0.0285
   77SLPC  H15R 7006   4.178   4.505   8.237 -0.1083  0.2875 -0.5731
   77SLPC  H15S 7007   4.295   4.608   8.325  0.7157 -0.1497 -3.0277
   77SLPC  C216 7008   4.210   4.429   8.438  0.6881 -0.9118  0.3425
   77SLPC  H16R 7009   4.294   4.426   8.509  1.5250 -1.7796 -0.6521
   77SLPC  H16S 7010   4.192   4.327   8.398  1.2047 -1.3576  1.2185
   77SLPC  C217 7011   4.085   4.497   8.493 -0.0289  0.9749  0.1401
   77SLPC  H17R 7012   4.013   4.516   8.411 -0.1950  0.6998  0.2172
   77SLPC  H17S 7013   4.109   4.595   8.541  2.5592  0.9390 -0.9296
   77SLPC  C218 7014   4.004   4.410   8.591  0.2278  0.6436 -0.3608
   77SLPC  H18R 7015   3.912   4.462   8.624 -0.2827  0.4260 -1.3923
   77SLPC  H18S 7016   4.080   4.394   8.671 -2.0903 -2.6694  1.3849
   77SLPC  H18T 7017   3.989   4.316   8.533  2.9758 -0.3907  0.4412
   77SLPC   C33 7018   4.155   4.945   7.098  0.2108 -0.1658  0.4071
   77SLPC   H3X 7019   4.065   4.982   7.045 -0.4392 -0.9471  0.9530
   77SLPC   H3Y 7020   4.221   5.034   7.106  0.3528 -0.3136  0.8929
   77SLPC   C34 7021   4.100   4.894   7.229 -0.8144  0.3777 -0.2104
   77SLPC   H4X 7022   4.033   4.809   7.207  2.3286 -1.9440 -1.6703
   77SLPC   H4Y 7023   4.064   4.986   7.280 -0.6238 -0.0549  0.7322
   77SLPC   C35 7024   4.209   4.839   7.319 -0.1082 -0.1881 -0.2118
   77SLPC   H5X 7025   4.312   4.863   7.286 -0.6866 -0.5024 -2.3639
   77SLPC   H5Y 7026   4.206   4.728   7.322 -1.4801 -0.1589  0.7791
   77SLPC   C36 7027   4.184   4.890   7.464 -0.1841 -0.1039 -0.4571
   77SLPC   H6X 7028   4.073   4.901   7.473 -0.0271  0.6432  0.9206
   77SLPC   H6Y 7029   4.229   4.990   7.478  0.1436 -0.1880 -0.9122
   77SLPC   C37 7030   4.224   4.789   7.574  1.0129 -0.4945 -0.7286
   77SLPC   H7X 7031   4.330   4.755   7.574  0.4539 -2.3318 -0.2438
   77SLPC   H7Y 7032   4.159   4.701   7.556  0.8395 -0.3656 -0.7248
   77SLPC   C38 7033   4.179   4.838   7.714  0.5573  0.5352 -0.4316
   77SLPC   H8X 7034   4.158   4.754   7.783  0.6548 -0.7050 -1.8626
   77SLPC   H8Y 7035   4.080   4.888   7.713 -0.7989 -1.9718  0.4604
   77SLPC   C39 7036   4.289   4.928   7.771 -0.1711  0.0837 -0.1123
   77SLPC   H9X 7037   4.251   5.020   7.821  0.4115  0.5629 -0.5337
   77SLPC   H9Y 7038   4.358   4.960   7.690 -0.9390  0.1161 -0.7614
   77SLPC  C310 7039   4.377   4.855   7.879  0.0497  0.6185  0.3936
   77SLPC  H10X 7040   4.451   4.929   7.918  1.6470 -0.3717 -0.6636
   77SLPC  H10Y 7041   4.436   4.784   7.817 -1.7193 -0.8219  0.3100
   77SLPC  C311 7042   4.314   4.786   7.998 -0.5364 -0.0795  0.2340
   77SLPC  H11X 7043   4.380   4.774   8.086 -2.0247 -2.3583  1.1446
   77SLPC  H11Y 7044   4.283   4.684   7.968  1.8276 -1.0069  0.7440
   77SLPC  C312 7045   4.202   4.879   8.042 -0.1753  0.4930 -0.2823
   77SLPC  H12X 7046   4.125   4.893   7.963 -1.1370  1.6530  0.8113
   77SLPC  H12Y 7047   4.254   4.973   8.069 -0.8892  0.6002  0.8115
   77SLPC  C313 7048   4.127   4.813   8.156 -0.5214  0.3897  0.0436
   77SLPC  H13X 7049   4.195   4.807   8.244  0.5062 -0.5564 -0.7832
   77SLPC  H13Y 7050   4.093   4.711   8.132  0.5119 -0.0026  0.1963
   77SLPC  C314 7051   4.002   4.888   8.210  0.4312 -0.6525 -0.2476
   77SLPC  H14X 7052   3.927   4.916   8.133 -0.4645 -2.1247  0.0589
   77SLPC  H14Y 7053   4.036   4.983   8.257 -0.0825 -0.5770 -0.0278
   77SLPC  C315 7054   3.940   4.801   8.324 -0.3516 -0.5143  0.1685
   77SLPC  H15X 7055   4.025   4.762   8.385  1.7106  1.1508 -1.4776
   77SLPC  H15Y 7056   3.895   4.709   8.281 -1.9883 -0.8300  2.3531
   77SLPC  C316 7057   3.836   4.866   8.413 -0.1958 -0.2066 -0.9706
   77SLPC  H16X 7058   3.869   4.953   8.474 -0.0875 -1.2439  0.4942
   77SLPC  H16Y 7059   3.820   4.783   8.486  0.4148 -0.3484 -0.9949
   77SLPC  C317 7060   3.700   4.891   8.348  0.0392  0.3706 -0.2180
   77SLPC  H17X 7061   3.710   4.961   8.263 -2.2946  0.9174 -0.1118
   77SLPC  H17Y 7062   3.633   4.932   8.426  0.0742 -2.3410  1.3753
   77SLPC  C318 7063   3.627   4.761   8.294 -0.0914  0.5845  0.5125
   77SLPC  H18X 7064   3.626   4.689   8.379  1.7868  0.2509  0.3083
   77SLPC  H18Y 7065   3.688   4.717   8.212 -4.8461 -3.3225 -1.4657
   77SLPC  H18Z 7066   3.525   4.795   8.265 -0.3357  0.0687  0.7592
   78SLPC     N 7067   5.465   5.531   5.740 -0.4327  0.0717  0.0890
   78SLPC   C13 7068   5.499   5.481   5.609 -0.2061 -0.0456  1.2499
   78SLPC  H13A 7069   5.421   5.428   5.556 -0.1859 -0.2026  1.3774
   78SLPC  H13B 7070   5.517   5.569   5.549  0.4344  0.0324  1.5501
   78SLPC  H13C 7071   5.580   5.411   5.601 -0.5509 -0.3149 -0.2077
   78SLPC   C14 7072   5.343   5.609   5.713  0.7100 -0.7888  0.1279
   78SLPC  H14A 7073   5.355   5.679   5.632 -4.0382 -0.3447 -0.4569
   78SLPC  H14B 7074   5.269   5.542   5.673 -1.3233  1.2974  0.1756
   78SLPC  H14C 7075   5.302   5.656   5.801 -0.4273 -2.8932  0.7949
   78SLPC   C15 7076   5.571   5.615   5.790  0.0972 -0.3069  0.3481
   78SLPC  H15A 7077   5.658   5.559   5.822 -0.1970 -0.6703  0.5344
   78SLPC  H15B 7078   5.595   5.674   5.703 -1.1342 -0.3297 -0.0194
   78SLPC  H15C 7079   5.544   5.673   5.877  3.3796  0.6360  0.8861
   78SLPC   C12 7080   5.440   5.409   5.831 -0.6059  0.0591  0.8900
   78SLPC  H12A 7081   5.533   5.356   5.845 -0.0125  1.4699  2.6447
   78SLPC  H12B 7082   5.379   5.336   5.780 -0.3594 -0.5771  1.4898
   78SLPC   C11 7083   5.374   5.424   5.968 -0.1305 -0.0591  0.5726
   78SLPC  H11A 7084   5.324   5.326   5.985 -1.9826  0.9942  1.5053
   78SLPC  H11B 7085   5.294   5.499   5.984 -0.8282 -1.1128  2.3501
   78SLPC     P 7086   5.520   5.337   6.165  0.2019  0.0664  0.6225
   78SLPC   O13 7087   5.583   5.225   6.092  0.0736 -0.1364 -0.1847
   78SLPC   O14 7088   5.603   5.407   6.260 -0.5789  0.1099 -0.1894
   78SLPC   O12 7089   5.480   5.452   6.059  0.0019  0.0424 -0.7607
   78SLPC   O11 7090   5.384   5.273   6.229  0.0142 -0.2929  0.4731
   78SLPC    C1 7091   5.308   5.370   6.294  0.2886 -0.4241  0.1605
   78SLPC    HA 7092   5.310   5.475   6.258 -0.9895 -0.5182 -0.2640
   78SLPC    HB 7093   5.200   5.342   6.291 -0.2580  1.4617  0.8390
   78SLPC    C2 7094   5.350   5.382   6.443 -0.3291  0.7323  0.0176
   78SLPC    HS 7095   5.459   5.401   6.440 -0.3547  0.8703 -2.6040
   78SLPC   O21 7096   5.311   5.256   6.501  0.4186  0.1756 -0.6853
   78SLPC   C21 7097   5.385   5.221   6.605 -0.6142 -0.2830  0.4161
   78SLPC   O22 7098   5.478   5.286   6.647 -0.3443 -0.1731 -0.8360
   78SLPC   C22 7099   5.338   5.080   6.652  1.0151  0.1691  0.8829
   78SLPC   H2R 7100   5.233   5.096   6.685  0.3039 -1.4729 -0.4384
   78SLPC   H2S 7101   5.331   5.022   6.557 -0.7882  1.5420  0.1159
   78SLPC    C3 7102   5.276   5.508   6.504 -0.2661 -1.1877 -0.8120
   78SLPC    HX 7103   5.167   5.486   6.507 -0.5678  0.1673  2.3071
   78SLPC    HY 7104   5.286   5.600   6.442  0.4257 -0.6911  0.0179
   78SLPC   O31 7105   5.304   5.537   6.641  0.1999 -0.1856 -0.1014
   78SLPC   C31 7106   5.424   5.588   6.671 -0.4457  0.2800 -0.2062
   78SLPC   O32 7107   5.506   5.614   6.586 -0.2836  0.3614 -0.3623
   78SLPC   C32 7108   5.425   5.631   6.817 -0.9509  0.8775 -0.1508
   78SLPC   H2X 7109   5.346   5.581   6.877  0.5215 -0.6595  0.5938
   78SLPC   H2Y 7110   5.397   5.738   6.821  0.1260  1.1572  2.4532
   78SLPC   C23 7111   5.426   5.012   6.753  0.3948 -0.3106 -0.0149
   78SLPC   H3R 7112   5.525   4.996   6.705  1.6366  1.7502  1.6611
   78SLPC   H3S 7113   5.403   4.911   6.792  1.6654 -1.0269 -1.0444
   78SLPC   C24 7114   5.460   5.092   6.884 -0.1739  0.0411  0.1631
   78SLPC   H4R 7115   5.361   5.107   6.930 -0.9527 -2.1826 -0.6260
   78SLPC   H4S 7116   5.498   5.192   6.856 -1.3160 -0.2689 -2.8598
   78SLPC   C25 7117   5.555   5.016   6.979 -0.8970  0.0326 -0.5424
   78SLPC   H5R 7118   5.652   5.008   6.925 -0.8468  0.4894 -0.5174
   78SLPC   H5S 7119   5.529   4.910   7.003 -0.9840 -0.1630 -1.4438
   78SLPC   C26 7120   5.577   5.096   7.106  0.2781 -0.3611 -0.2471
   78SLPC   H6R 7121   5.652   5.042   7.167  1.0494  1.3001  0.3253
   78SLPC   H6S 7122   5.483   5.100   7.165  1.4653 -1.2190  1.8063
   78SLPC   C27 7123   5.635   5.231   7.083 -0.4338 -0.4371 -0.0416
   78SLPC   H7R 7124   5.639   5.276   7.185  0.8448  1.6948 -0.9546
   78SLPC   H7S 7125   5.587   5.310   7.021 -0.2565  0.2269  0.6517
   78SLPC   C28 7126   5.781   5.232   7.036 -0.1013 -0.1935 -0.6627
   78SLPC   H8R 7127   5.780   5.196   6.931 -3.3369 -1.7059 -0.2356
   78SLPC   H8S 7128   5.840   5.152   7.085  1.0810 -0.5272 -2.5397
   78SLPC   C29 7129   5.848   5.366   7.051 -0.3758  0.0577  0.5682
   78SLPC   H9R 7130   5.798   5.447   6.996  0.7015 -0.2895 -0.9825
   78SLPC  C210 7131   5.949   5.393   7.130 -0.8519 -0.4763 -0.5513
   78SLPC  H10R 7132   6.009   5.482   7.103 -0.5808 -0.9206 -1.4333
   78SLPC  C211 7133   6.019   5.293   7.217 -1.0229 -0.3606  0.0578
   78SLPC  H11R 7134   6.062   5.216   7.150 -0.6955  0.9605 -1.3111
   78SLPC  H11S 7135   5.940   5.248   7.281 -0.5885 -1.3601 -0.0877
   78SLPC  C212 7136   6.128   5.350   7.293 -0.1101  0.1653 -0.5510
   78SLPC  H12R 7137   6.151   5.458   7.289 -2.1656  0.9429  3.3528
   78SLPC  C213 7138   6.203   5.298   7.392  0.3187  0.7933  0.6881
   78SLPC  H13R 7139   6.288   5.353   7.434  1.3737 -0.9228  0.8561
   78SLPC  C214 7140   6.193   5.160   7.448  0.5234 -0.1323 -0.7095
   78SLPC  H14R 7141   6.266   5.089   7.404 -1.5304 -2.7567 -0.1043
   78SLPC  H14S 7142   6.092   5.119   7.426  0.6450  0.3084 -2.2096
   78SLPC  C215 7143   6.215   5.172   7.599 -0.0156 -0.2400  0.1078
   78SLPC  H15R 7144   6.138   5.233   7.651  0.0910 -2.1521  2.7457
   78SLPC  H15S 7145   6.319   5.206   7.617  1.2185 -2.9540 -1.3106
   78SLPC  C216 7146   6.189   5.039   7.664  0.1744  0.7286 -0.1821
   78SLPC  H16R 7147   6.269   4.964   7.645  0.2032 -0.0462  2.6341
   78SLPC  H16S 7148   6.098   4.991   7.622  0.7306  0.7951 -1.5251
   78SLPC  C217 7149   6.183   5.052   7.815 -0.0715 -0.8743 -0.7885
   78SLPC  H17R 7150   6.153   4.962   7.872 -2.7487  0.3938 -0.0279
   78SLPC  H17S 7151   6.105   5.127   7.839  0.9237 -0.4628  1.4223
   78SLPC  C218 7152   6.320   5.101   7.876  0.3282 -0.3879  0.3853
   78SLPC  H18R 7153   6.382   5.008   7.880  1.3727  0.2407 -0.4718
   78SLPC  H18S 7154   6.308   5.147   7.976 -2.4365 -2.3043  1.0491
   78SLPC  H18T 7155   6.374   5.180   7.820  1.1215 -0.4687  1.0124
   78SLPC   C33 7156   5.564   5.615   6.886 -0.3213 -0.3539 -0.4329
   78SLPC   H3X 7157   5.642   5.679   6.841  1.2095 -1.3641  0.6621
   78SLPC   H3Y 7158   5.621   5.519   6.889  1.6558  0.8034  0.2666
   78SLPC   C34 7159   5.550   5.678   7.024  0.3511  0.0495 -0.0363
   78SLPC   H4X 7160   5.496   5.614   7.096  0.6662 -0.1049  0.0656
   78SLPC   H4Y 7161   5.498   5.775   7.009 -0.3249 -0.2887  0.0898
   78SLPC   C35 7162   5.679   5.719   7.089 -0.2326 -0.2535 -0.1745
   78SLPC   H5X 7163   5.727   5.802   7.033  0.8656 -1.3966 -0.9800
   78SLPC   H5Y 7164   5.747   5.632   7.079  1.7530  1.4300 -2.4060
   78SLPC   C36 7165   5.648   5.761   7.233  0.0139 -0.4997 -0.2501
   78SLPC   H6X 7166   5.579   5.684   7.273 -1.6463  0.0546 -1.9358
   78SLPC   H6Y 7167   5.594   5.858   7.235  2.0391  0.7468 -1.8097
   78SLPC   C37 7168   5.773   5.769   7.326  0.3836 -0.3862  0.2564
   78SLPC   H7X 7169   5.843   5.843   7.283 -1.6600  2.3191  1.3254
   78SLPC   H7Y 7170   5.827   5.672   7.323 -2.3772 -2.0782 -3.7891
   78SLPC   C38 7171   5.756   5.827   7.464  0.0583  0.7956  0.4790
   78SLPC   H8X 7172   5.678   5.776   7.524 -3.4844  1.6892 -2.9892
   78SLPC   H8Y 7173   5.725   5.932   7.448 -2.1985 -0.0997 -1.7119
   78SLPC   C39 7174   5.895   5.816   7.540 -0.2603  0.2740  0.0661
   78SLPC   H9X 7175   5.955   5.894   7.488  0.0802 -1.6773 -2.6469
   78SLPC   H9Y 7176   5.948   5.722   7.513 -0.8722  0.7250 -3.0007
   78SLPC  C310 7177   5.879   5.835   7.695  0.2047 -0.1238  0.3874
   78SLPC  H10X 7178   5.798   5.776   7.742 -0.7089  0.7661 -0.0425
   78SLPC  H10Y 7179   5.871   5.945   7.711  3.5799  0.4146 -0.6528
   78SLPC  C311 7180   6.005   5.803   7.779 -0.2083  0.2938  0.1509
   78SLPC  H11X 7181   5.980   5.814   7.887 -1.1983  1.1038 -0.1517
   78SLPC  H11Y 7182   6.080   5.882   7.758 -0.0779 -0.0477 -0.6913
   78SLPC  C312 7183   6.064   5.670   7.764  0.1024  0.2723 -0.6927
   78SLPC  H12X 7184   6.097   5.661   7.658  0.1955 -0.0550 -0.6383
   78SLPC  H12Y 7185   5.993   5.585   7.771 -1.0754  1.2547 -0.3621
   78SLPC  C313 7186   6.200   5.636   7.849  1.2882  0.2548 -0.1471
   78SLPC  H13X 7187   6.276   5.715   7.833  0.0696  1.4554 -0.1481
   78SLPC  H13Y 7188   6.236   5.541   7.803  1.5232  0.9921 -1.5729
   78SLPC  C314 7189   6.167   5.616   7.996 -0.4986 -0.3482 -0.0758
   78SLPC  H14X 7190   6.088   5.539   8.010 -1.5137  0.4891 -0.9713
   78SLPC  H14Y 7191   6.125   5.709   8.041  1.7741  0.1344  1.1922
   78SLPC  C315 7192   6.293   5.587   8.080  0.2636  0.1750  0.4931
   78SLPC  H15X 7193   6.333   5.690   8.095 -1.1183  0.7415  0.4794
   78SLPC  H15Y 7194   6.373   5.527   8.032  1.1365  0.3981  1.6431
   78SLPC  C316 7195   6.256   5.523   8.214 -0.2358 -0.6588  0.2401
   78SLPC  H16X 7196   6.231   5.415   8.206  2.1161 -1.1990 -0.4106
   78SLPC  H16Y 7197   6.172   5.579   8.260 -1.3727 -1.9948 -0.1335
   78SLPC  C317 7198   6.382   5.542   8.302  0.7535 -0.4612  0.1843
   78SLPC  H17X 7199   6.402   5.651   8.293 -6.6316  1.4919  0.8523
   78SLPC  H17Y 7200   6.460   5.475   8.261  0.7551 -0.1765 -0.2837
   78SLPC  C318 7201   6.358   5.489   8.443  0.4242  0.2070 -0.7951
   78SLPC  H18X 7202   6.271   5.542   8.489  0.2368 -2.0183  1.6327
   78SLPC  H18Y 7203   6.435   5.520   8.516 -1.6115  0.8323  1.1920
   78SLPC  H18Z 7204   6.360   5.379   8.454  1.6872  0.0351 -2.3939
   79SLPC     N 7205   3.559   1.723   6.117  0.5313 -0.0035 -0.6870
   79SLPC   C13 7206   3.644   1.600   6.097 -0.1283 -0.1717 -0.3178
   79SLPC  H13A 7207   3.741   1.627   6.057 -0.1406  0.2991 -0.0526
   79SLPC  H13B 7208   3.653   1.554   6.195 -3.1510  3.9082  2.2310
   79SLPC  H13C 7209   3.609   1.527   6.027 -1.3463  0.1490 -0.0688
   79SLPC   C14 7210   3.416   1.687   6.158  0.0899 -0.1758 -0.3648
   79SLPC  H14A 7211   3.381   1.621   6.080 -0.4206  1.6057 -1.7125
   79SLPC  H14B 7212   3.412   1.626   6.247 -1.0627 -1.8001 -1.4679
   79SLPC  H14C 7213   3.346   1.769   6.166  2.5369  1.8763  1.7747
   79SLPC   C15 7214   3.554   1.802   5.987 -0.1340  0.0557 -0.0347
   79SLPC  H15A 7215   3.512   1.744   5.906  2.3509  1.1391 -2.2821
   79SLPC  H15B 7216   3.501   1.896   5.994  0.9690  0.5698  2.0613
   79SLPC  H15C 7217   3.656   1.825   5.959 -1.2092  2.3196 -2.6142
   79SLPC   C12 7218   3.632   1.814   6.213 -0.1958 -0.1166 -0.0911
   79SLPC  H12A 7219   3.576   1.905   6.223 -0.6250 -0.4451  0.5359
   79SLPC  H12B 7220   3.729   1.830   6.166 -0.7641  1.2622 -0.8379
   79SLPC   C11 7221   3.657   1.761   6.354  0.1558  1.2551  0.0887
   79SLPC  H11A 7222   3.575   1.702   6.400  1.6587 -0.4811  0.6935
   79SLPC  H11B 7223   3.676   1.845   6.424  1.5414  0.7230  0.3768
   79SLPC     P 7224   3.915   1.731   6.352 -0.1443  0.1024 -0.7825
   79SLPC   O13 7225   4.000   1.614   6.315  0.2151 -0.3090 -0.3917
   79SLPC   O14 7226   3.921   1.847   6.263 -0.8544 -0.2032 -0.1080
   79SLPC   O12 7227   3.764   1.674   6.353  0.2349 -0.1896 -0.1146
   79SLPC   O11 7228   3.944   1.774   6.497 -0.2533 -0.0351  0.0374
   79SLPC    C1 7229   3.941   1.678   6.605  0.5266 -0.7927  0.2102
   79SLPC    HA 7230   3.916   1.576   6.568 -2.3219 -0.0789 -0.0624
   79SLPC    HB 7231   4.037   1.669   6.659  0.6818 -2.2828 -0.2524
   79SLPC    C2 7232   3.829   1.710   6.713 -0.5066  0.0570  0.7605
   79SLPC    HS 7233   3.734   1.726   6.658  0.3569  2.2472 -0.2151
   79SLPC   O21 7234   3.874   1.829   6.779  0.0603 -0.4560 -0.0630
   79SLPC   C21 7235   3.798   1.883   6.864  0.9118  0.9175 -0.2307
   79SLPC   O22 7236   3.689   1.843   6.909 -0.1259  0.0638  0.9212
   79SLPC   C22 7237   3.870   2.002   6.925 -0.1526  0.4478  0.2998
   79SLPC   H2R 7238   3.888   1.972   7.030 -1.6851  0.8938  0.7182
   79SLPC   H2S 7239   3.966   2.028   6.875 -0.2003  2.5267  1.1890
   79SLPC    C3 7240   3.806   1.575   6.795 -0.6197 -0.3169  0.6055
   79SLPC    HX 7241   3.808   1.489   6.726  1.8332 -1.1042  1.5458
   79SLPC    HY 7242   3.706   1.586   6.842 -1.7352 -0.4041 -1.6146
   79SLPC   O31 7243   3.916   1.550   6.885  1.0036 -0.8903 -0.0758
   79SLPC   C31 7244   3.881   1.442   6.968  0.2571 -0.3923  1.0171
   79SLPC   O32 7245   3.796   1.358   6.945  0.0951  0.0577  0.4701
   79SLPC   C32 7246   3.981   1.436   7.087  0.5342  0.1460 -0.2411
   79SLPC   H2X 7247   4.053   1.516   7.061  1.2998  0.8561  3.4254
   79SLPC   H2Y 7248   4.029   1.336   7.081  1.5804  0.6413 -0.4108
   79SLPC   C23 7249   3.789   2.136   6.915  0.2835 -0.4482 -0.3457
   79SLPC   H3R 7250   3.760   2.135   6.807 -2.9789 -2.1164  0.4218
   79SLPC   H3S 7251   3.856   2.222   6.937 -0.7343 -0.0598  1.4107
   79SLPC   C24 7252   3.669   2.147   7.008 -0.1788 -0.3848 -0.1896
   79SLPC   H4R 7253   3.582   2.088   6.974  0.0762 -0.3475 -0.9260
   79SLPC   H4S 7254   3.651   2.257   7.007  0.4485 -0.2308  1.3121
   79SLPC   C25 7255   3.703   2.112   7.146 -0.4678 -0.2609  0.0362
   79SLPC   H5R 7256   3.799   2.160   7.176 -1.0704  0.5933  0.6262
   79SLPC   H5S 7257   3.719   2.002   7.152 -1.0084 -0.3233  0.3740
   79SLPC   C26 7258   3.593   2.153   7.252 -0.1434 -0.5700  0.1906
   79SLPC   H6R 7259   3.492   2.121   7.219 -0.5071  0.5072  0.2363
   79SLPC   H6S 7260   3.588   2.264   7.258 -3.7093 -0.7040  2.4105
   79SLPC   C27 7261   3.640   2.089   7.386  0.2006 -0.0685  0.2370
   79SLPC   H7R 7262   3.744   2.124   7.404  0.7097 -0.2367 -2.0005
   79SLPC   H7S 7263   3.654   1.979   7.373  1.0946  0.0859 -0.2073
   79SLPC   C28 7264   3.536   2.111   7.500 -0.3091  0.0540  0.5392
   79SLPC   H8R 7265   3.563   2.043   7.583 -0.6134 -1.2334 -0.3827
   79SLPC   H8S 7266   3.445   2.067   7.454  0.3097  0.4222 -1.1361
   79SLPC   C29 7267   3.518   2.253   7.544 -0.2344 -0.0487  0.0014
   79SLPC   H9R 7268   3.569   2.329   7.483 -2.0342 -0.6411 -2.4035
   79SLPC  C210 7269   3.451   2.299   7.651  0.0725 -0.4689 -0.0391
   79SLPC  H10R 7270   3.455   2.408   7.656  3.3240 -0.4584 -1.0043
   79SLPC  C211 7271   3.367   2.212   7.742 -0.2704 -0.0789  0.3400
   79SLPC  H11R 7272   3.415   2.216   7.842 -0.0455  1.2212  0.2022
   79SLPC  H11S 7273   3.372   2.108   7.704 -3.5183  0.9675 -3.6981
   79SLPC  C212 7274   3.220   2.255   7.745 -0.3388 -0.0589  0.1598
   79SLPC  H12R 7275   3.183   2.296   7.650  0.2593 -1.6508 -0.8101
   79SLPC  C213 7276   3.143   2.265   7.860  0.7243  1.2248  0.7521
   79SLPC  H13R 7277   3.038   2.293   7.850  0.4160 -0.2514 -0.7150
   79SLPC  C214 7278   3.188   2.214   7.992  1.0974 -0.0001 -0.3890
   79SLPC  H14R 7279   3.297   2.230   8.001  1.0936 -0.2884  0.2333
   79SLPC  H14S 7280   3.159   2.107   8.008 -3.0093  0.9878  0.0920
   79SLPC  C215 7281   3.125   2.285   8.109 -0.8978  0.2327  0.1353
   79SLPC  H15R 7282   3.015   2.290   8.103 -1.2488  0.4863  4.0543
   79SLPC  H15S 7283   3.165   2.388   8.120  0.5750 -0.1694 -1.1021
   79SLPC  C216 7284   3.155   2.210   8.237  0.2224 -0.3493 -0.5360
   79SLPC  H16R 7285   3.265   2.209   8.245  0.2494 -2.6302 -0.6064
   79SLPC  H16S 7286   3.126   2.103   8.235  3.5756 -1.3536 -0.8744
   79SLPC  C217 7287   3.097   2.286   8.358 -0.5405  0.0511  0.1894
   79SLPC  H17R 7288   2.990   2.313   8.346 -1.4776 -3.3292 -0.1638
   79SLPC  H17S 7289   3.164   2.374   8.370 -0.1752 -0.1005 -0.6436
   79SLPC  C218 7290   3.109   2.202   8.484  0.0807 -0.3186  0.6654
   79SLPC  H18R 7291   3.212   2.168   8.508  0.9807  0.2290 -2.0783
   79SLPC  H18S 7292   3.039   2.116   8.472 -2.2341  1.7138 -1.5453
   79SLPC  H18T 7293   3.062   2.266   8.561 -0.2265 -0.5709  0.6922
   79SLPC   C33 7294   3.915   1.452   7.225  0.4988 -0.3110 -0.2356
   79SLPC   H3X 7295   3.830   1.523   7.234  1.6432  0.9432  1.3758
   79SLPC   H3Y 7296   3.990   1.476   7.304 -1.3516 -2.5851  2.4179
   79SLPC   C34 7297   3.855   1.322   7.287  0.6421  0.5963 -0.1178
   79SLPC   H4X 7298   3.936   1.246   7.289  0.3752  0.3180  0.1304
   79SLPC   H4Y 7299   3.774   1.284   7.221  1.4582 -1.2418 -0.1105
   79SLPC   C35 7300   3.799   1.342   7.430  0.6714  0.5866  0.2936
   79SLPC   H5X 7301   3.751   1.247   7.464 -0.1827  0.3107 -1.5821
   79SLPC   H5Y 7302   3.718   1.418   7.428 -1.2779 -1.3299  0.8888
   79SLPC   C36 7303   3.897   1.393   7.532 -0.1106  0.5230  0.1063
   79SLPC   H6X 7304   3.941   1.490   7.500  2.7131 -0.9881 -0.9046
   79SLPC   H6Y 7305   3.974   1.313   7.534  0.6261  1.2188  0.8576
   79SLPC   C37 7306   3.817   1.392   7.666 -0.4451  0.0698  0.2911
   79SLPC   H7X 7307   3.769   1.293   7.684 -1.4774  0.6539  0.8222
   79SLPC   H7Y 7308   3.731   1.462   7.656 -0.4060  0.0843  0.0456
   79SLPC   C38 7309   3.896   1.428   7.792  0.6181 -0.2563 -0.1457
   79SLPC   H8X 7310   3.913   1.536   7.778 -0.4221 -0.0959 -0.2500
   79SLPC   H8Y 7311   3.999   1.387   7.788  1.9135  2.6156  1.2237
   79SLPC   C39 7312   3.822   1.388   7.925 -0.2829 -0.2266  0.5576
   79SLPC   H9X 7313   3.825   1.279   7.948 -0.9866 -0.1379  1.1203
   79SLPC   H9Y 7314   3.715   1.414   7.912 -0.6393 -2.6776 -2.4321
   79SLPC  C310 7315   3.890   1.465   8.041 -0.3362  0.6717  0.3250
   79SLPC  H10X 7316   3.913   1.566   8.002  1.0151  0.3620  0.2894
   79SLPC  H10Y 7317   3.984   1.411   8.065 -0.0185  0.7060 -0.8129
   79SLPC  C311 7318   3.810   1.478   8.168  0.1865  0.2463  0.6678
   79SLPC  H11X 7319   3.783   1.373   8.194 -0.0617  0.0521 -0.3353
   79SLPC  H11Y 7320   3.716   1.533   8.149 -1.1772 -1.7693  1.2340
   79SLPC  C312 7321   3.891   1.544   8.279  0.1913 -0.9509 -0.3057
   79SLPC  H12X 7322   3.983   1.485   8.297  1.2302 -0.1575 -2.5411
   79SLPC  H12Y 7323   3.827   1.559   8.368  2.9214  0.4053  1.5812
   79SLPC  C313 7324   3.928   1.684   8.253  0.1180  0.0100  0.9734
   79SLPC  H13X 7325   3.844   1.731   8.199  3.7829  4.2922 -1.6737
   79SLPC  H13Y 7326   4.012   1.687   8.180 -0.7901 -0.1629 -0.0997
   79SLPC  C314 7327   3.953   1.768   8.379 -0.2229  0.3764  0.7089
   79SLPC  H14X 7328   4.009   1.704   8.451 -0.6081 -0.6922  0.0776
   79SLPC  H14Y 7329   3.852   1.790   8.419 -0.6704 -0.1865 -0.0924
   79SLPC  C315 7330   4.023   1.902   8.347  0.7126  0.4000  0.1311
   79SLPC  H15X 7331   4.011   1.970   8.435 -0.2898  0.5408 -0.1024
   79SLPC  H15Y 7332   3.966   1.957   8.269  1.2589  3.4909  1.7441
   79SLPC  C316 7333   4.156   1.897   8.283 -0.1111 -0.1437  0.4971
   79SLPC  H16X 7334   4.158   1.827   8.196 -4.0259  1.5155 -1.2048
   79SLPC  H16Y 7335   4.235   1.869   8.356  0.5852  2.4427  0.8510
   79SLPC  C317 7336   4.207   2.034   8.227 -0.2903 -0.0393 -0.2396
   79SLPC  H17X 7337   4.209   2.098   8.317  2.0176  0.9986 -0.9432
   79SLPC  H17Y 7338   4.123   2.057   8.159 -1.5342 -2.1320  0.5132
   79SLPC  C318 7339   4.345   2.025   8.170 -0.8196 -0.1566  0.4066
   79SLPC  H18X 7340   4.420   1.971   8.232  0.8907 -0.4485 -1.8016
   79SLPC  H18Y 7341   4.387   2.128   8.166 -0.8313  0.0052  2.8678
   79SLPC  H18Z 7342   4.336   1.980   8.069  2.0138 -0.0716  0.0373
   80SLPC     N 7343   3.328   4.538   6.170  0.7808  0.5725 -0.5318
   80SLPC   C13 7344   3.390   4.549   6.035  1.0008  0.1164 -0.4020
   80SLPC  H13A 7345   3.319   4.510   5.964 -0.5524  3.4003 -0.8817
   80SLPC  H13B 7346   3.414   4.651   6.008  0.1025  0.7672  1.1186
   80SLPC  H13C 7347   3.478   4.488   6.036  0.7672 -0.2971  2.4142
   80SLPC   C14 7348   3.330   4.397   6.215 -0.4286 -0.5605  0.4989
   80SLPC  H14A 7349   3.433   4.380   6.241 -0.6493  0.7900  2.4799
   80SLPC  H14B 7350   3.274   4.376   6.305 -2.5254 -3.5632 -1.3333
   80SLPC  H14C 7351   3.276   4.325   6.155  0.8094 -1.1058  0.0038
   80SLPC   C15 7352   3.193   4.596   6.163  0.5503 -0.3175  0.3778
   80SLPC  H15A 7353   3.146   4.596   6.260  0.7564  1.3605  0.4987
   80SLPC  H15B 7354   3.201   4.703   6.154 -0.8305 -0.1070  1.2819
   80SLPC  H15C 7355   3.126   4.549   6.092  1.6294  1.4623 -1.9581
   80SLPC   C12 7356   3.399   4.615   6.287 -0.4454 -0.3183 -0.2369
   80SLPC  H12A 7357   3.505   4.596   6.274 -0.0167  1.8428 -0.2214
   80SLPC  H12B 7358   3.376   4.572   6.383  2.9324  0.7518  1.2116
   80SLPC   C11 7359   3.389   4.770   6.295  0.0524 -0.3998 -0.1949
   80SLPC  H11A 7360   3.463   4.803   6.371  1.5541  1.2066 -2.2709
   80SLPC  H11B 7361   3.287   4.805   6.324  0.7681  1.6282  0.0281
   80SLPC     P 7362   3.559   4.845   6.119 -0.2343  0.4190 -0.0093
   80SLPC   O13 7363   3.639   4.727   6.159 -0.0218  0.0024 -0.3165
   80SLPC   O14 7364   3.558   4.884   5.976  0.4187  0.8170 -0.3953
   80SLPC   O12 7365   3.412   4.826   6.168  0.1273  0.1713 -0.1983
   80SLPC   O11 7366   3.607   4.966   6.211  0.3746  0.3212 -0.4045
   80SLPC    C1 7367   3.553   5.098   6.188  0.3309 -0.2340  0.0237
   80SLPC    HA 7368   3.591   5.137   6.092  0.9528  2.0933  1.1452
   80SLPC    HB 7369   3.442   5.104   6.186  0.3231  0.1818  0.9625
   80SLPC    C2 7370   3.617   5.202   6.285 -0.3143  0.2149 -0.1226
   80SLPC    HS 7371   3.727   5.189   6.271 -0.0433  0.2886  1.7378
   80SLPC   O21 7372   3.592   5.162   6.424 -0.2499 -0.2159  0.2153
   80SLPC   C21 7373   3.469   5.152   6.459  0.0591  0.2830 -0.3758
   80SLPC   O22 7374   3.366   5.170   6.402  0.0209 -0.0824  0.2088
   80SLPC   C22 7375   3.467   5.095   6.600 -0.3841  0.2846 -0.6999
   80SLPC   H2R 7376   3.501   5.169   6.676 -1.8140 -0.9152  1.1780
   80SLPC   H2S 7377   3.364   5.055   6.611  0.1472 -1.6805 -2.3550
   80SLPC    C3 7378   3.581   5.355   6.272  0.7246  0.0466 -0.6126
   80SLPC    HX 7379   3.474   5.368   6.295  1.3888  0.6793  2.6407
   80SLPC    HY 7380   3.595   5.395   6.169  1.9678 -2.4541 -1.5203
   80SLPC   O31 7381   3.654   5.428   6.374 -0.0173  0.1989  0.0339
   80SLPC   C31 7382   3.787   5.437   6.358  0.1460  0.6406 -0.5680
   80SLPC   O32 7383   3.846   5.394   6.260 -0.5097 -0.5908  0.0040
   80SLPC   C32 7384   3.842   5.501   6.479 -0.3062 -1.2719 -0.0188
   80SLPC   H2X 7385   3.945   5.462   6.499  0.7940  1.2229 -0.4682
   80SLPC   H2Y 7386   3.780   5.482   6.569 -1.9817 -1.5269 -1.1775
   80SLPC   C23 7387   3.558   4.966   6.620  0.3869 -0.0081  0.5482
   80SLPC   H3R 7388   3.663   4.994   6.595 -0.5607  2.3677 -1.1621
   80SLPC   H3S 7389   3.541   4.882   6.549  1.8749 -0.9334  1.2226
   80SLPC   C24 7390   3.531   4.902   6.761  0.1097  0.0707  0.6948
   80SLPC   H4R 7391   3.425   4.869   6.751  0.3755 -0.9427  1.0356
   80SLPC   H4S 7392   3.546   4.980   6.838  2.0049  1.9968 -1.4728
   80SLPC   C25 7393   3.611   4.777   6.788 -0.2673 -0.0631  0.1143
   80SLPC   H5R 7394   3.711   4.824   6.797 -0.7468  0.8857  0.6512
   80SLPC   H5S 7395   3.615   4.705   6.704  0.8236  0.3219 -0.1773
   80SLPC   C26 7396   3.589   4.717   6.926  0.1437  0.4522  0.2827
   80SLPC   H6R 7397   3.635   4.615   6.925  1.1681  0.9013 -0.1988
   80SLPC   H6S 7398   3.479   4.708   6.934  0.0857 -0.7060 -1.1096
   80SLPC   C27 7399   3.644   4.797   7.038 -0.0737 -0.2403  0.1708
   80SLPC   H7R 7400   3.567   4.860   7.088 -4.0358 -1.7618 -3.4455
   80SLPC   H7S 7401   3.718   4.869   6.998 -0.3335 -1.9789 -3.9700
   80SLPC   C28 7402   3.722   4.708   7.135 -0.3038 -0.5755 -0.0462
   80SLPC   H8R 7403   3.819   4.685   7.086 -0.0527  1.8234 -0.8188
   80SLPC   H8S 7404   3.660   4.617   7.154  2.9541 -2.9200  0.1788
   80SLPC   C29 7405   3.743   4.775   7.267  0.4072  0.4930 -0.4146
   80SLPC   H9R 7406   3.716   4.882   7.268  0.2912  0.5116  2.2235
   80SLPC  C210 7407   3.788   4.712   7.379  0.0708 -0.1663  0.4271
   80SLPC  H10R 7408   3.792   4.771   7.471  1.2377  0.0648  0.2534
   80SLPC  C211 7409   3.828   4.566   7.390  0.4050  0.6851  0.0970
   80SLPC  H11R 7410   3.835   4.517   7.290 -0.4625  0.4353  0.1447
   80SLPC  H11S 7411   3.753   4.504   7.444  0.8116  0.8220  0.8260
   80SLPC  C212 7412   3.962   4.557   7.459 -0.2338  0.6554  0.3620
   80SLPC  H12R 7413   4.046   4.591   7.397 -0.6500 -1.2288 -1.3628
   80SLPC  C213 7414   3.986   4.492   7.581 -0.4625  0.5284 -0.2426
   80SLPC  H13R 7415   4.092   4.475   7.605 -0.4346  1.2610  0.2103
   80SLPC  C214 7416   3.872   4.442   7.669  0.6507  0.7563 -0.1280
   80SLPC  H14R 7417   3.874   4.330   7.665  2.2015  0.7826 -0.8888
   80SLPC  H14S 7418   3.770   4.480   7.646  0.2966  0.7193  1.2916
   80SLPC  C215 7419   3.898   4.483   7.819  0.5364 -0.8669  0.5217
   80SLPC  H15R 7420   3.885   4.592   7.835 -0.0170 -0.9576  0.7385
   80SLPC  H15S 7421   3.997   4.454   7.860  0.3219 -1.0727  0.9056
   80SLPC  C216 7422   3.796   4.419   7.914 -0.0709 -0.4931  0.2626
   80SLPC  H16R 7423   3.789   4.309   7.908  0.3814 -0.4825 -0.5934
   80SLPC  H16S 7424   3.701   4.462   7.876  0.0612  1.2173  1.7010
   80SLPC  C217 7425   3.809   4.457   8.057  0.2783 -0.7143 -0.7685
   80SLPC  H17R 7426   3.722   4.415   8.112  0.0304 -0.2210 -0.7694
   80SLPC  H17S 7427   3.802   4.568   8.066 -0.9801 -0.8157 -0.1638
   80SLPC  C218 7428   3.940   4.416   8.129  0.6010  0.3110  0.3695
   80SLPC  H18R 7429   3.945   4.461   8.231  1.5937  0.2770  0.3458
   80SLPC  H18S 7430   4.032   4.452   8.078 -1.6311  1.1151 -3.4943
   80SLPC  H18T 7431   3.942   4.305   8.122 -0.3302  0.1573  1.9295
   80SLPC   C33 7432   3.855   5.657   6.461 -0.2381 -0.0122  0.2879
   80SLPC   H3X 7433   3.763   5.718   6.451 -1.0588 -1.1279  0.7606
   80SLPC   H3Y 7434   3.902   5.677   6.362  2.9144 -4.3810  0.6185
   80SLPC   C34 7435   3.939   5.709   6.577 -0.5245 -0.5160 -0.1856
   80SLPC   H4X 7436   3.961   5.817   6.562 -1.4691  0.1231  2.4568
   80SLPC   H4Y 7437   4.037   5.657   6.570 -1.7657 -3.1443  0.4117
   80SLPC   C35 7438   3.890   5.687   6.720 -0.6827 -0.0626 -0.9302
   80SLPC   H5X 7439   3.890   5.582   6.754  2.9420 -0.3710 -1.4431
   80SLPC   H5Y 7440   3.782   5.714   6.718 -1.2485 -2.1534 -0.4954
   80SLPC   C36 7441   3.979   5.764   6.819 -0.3454 -0.5354  0.1830
   80SLPC   H6X 7442   3.963   5.874   6.818  0.6414 -0.3480 -2.1375
   80SLPC   H6Y 7443   4.083   5.734   6.795 -0.2601  1.3215 -2.2208
   80SLPC   C37 7444   3.956   5.720   6.962 -0.1690  0.4228  0.0621
   80SLPC   H7X 7445   3.986   5.613   6.965  0.6274  0.6303 -0.0872
   80SLPC   H7Y 7446   3.851   5.736   6.992 -0.8636 -2.6105 -0.4637
   80SLPC   C38 7447   4.037   5.783   7.070 -0.7060 -0.2993 -0.3825
   80SLPC   H8X 7448   4.034   5.893   7.078  0.8660 -0.3276  1.2995
   80SLPC   H8Y 7449   4.143   5.762   7.043 -0.9191  1.1625 -2.5402
   80SLPC   C39 7450   4.004   5.709   7.207 -0.1821  0.5063  0.7797
   80SLPC   H9X 7451   4.025   5.600   7.196  2.3383  1.1809 -3.5245
   80SLPC   H9Y 7452   3.898   5.710   7.241  0.0300  2.3860  1.4661
   80SLPC  C310 7453   4.093   5.763   7.313 -0.8103  0.8359 -0.2768
   80SLPC  H10X 7454   4.066   5.868   7.339 -1.6874  0.4124  0.5711
   80SLPC  H10Y 7455   4.202   5.757   7.290 -0.4795 -1.1568  1.4952
   80SLPC  C311 7456   4.067   5.683   7.451  0.3291 -0.5252 -0.2262
   80SLPC  H11X 7457   4.106   5.583   7.424  1.2471 -0.5876  1.1737
   80SLPC  H11Y 7458   3.957   5.677   7.467  0.2435  1.8058  0.4933
   80SLPC  C312 7459   4.145   5.738   7.568  0.0928  0.1650  0.1893
   80SLPC  H12X 7460   4.106   5.840   7.590 -1.0873 -0.1877 -0.1495
   80SLPC  H12Y 7461   4.251   5.748   7.537  0.1327 -0.9659 -0.1072
   80SLPC  C313 7462   4.142   5.652   7.694 -0.3402  0.4941  0.1710
   80SLPC  H13X 7463   4.219   5.573   7.680 -0.5949  0.0838  1.0425
   80SLPC  H13Y 7464   4.040   5.609   7.702 -0.1245  0.1745  1.4585
   80SLPC  C314 7465   4.167   5.739   7.821 -0.6797  0.1914  0.2537
   80SLPC  H14X 7466   4.116   5.838   7.825 -0.2752  0.4175 -0.1487
   80SLPC  H14Y 7467   4.275   5.762   7.828 -0.9718  2.4186 -1.4644
   80SLPC  C315 7468   4.124   5.667   7.948  0.2782 -0.8742 -0.0202
   80SLPC  H15X 7469   4.151   5.560   7.936 -3.5937 -1.7360 -3.2225
   80SLPC  H15Y 7470   4.015   5.683   7.957  0.4663 -0.4436  1.7943
   80SLPC  C316 7471   4.192   5.737   8.066 -0.0720  0.5018  0.1975
   80SLPC  H16X 7472   4.168   5.845   8.070 -1.8058  0.1245  2.6819
   80SLPC  H16Y 7473   4.301   5.723   8.055 -0.1181  0.9421 -0.9837
   80SLPC  C317 7474   4.136   5.690   8.195 -0.7531  0.4372  0.3829
   80SLPC  H17X 7475   4.216   5.671   8.269 -0.0758 -3.3951 -1.0968
   80SLPC  H17Y 7476   4.092   5.590   8.173 -0.5907  0.2563  0.8672
   80SLPC  C318 7477   4.026   5.776   8.260  0.4362 -0.5632  0.5841
   80SLPC  H18X 7478   3.937   5.777   8.192  0.7261 -1.8197  0.1543
   80SLPC  H18Y 7479   4.053   5.883   8.271 -1.2044 -0.0807  0.2024
   80SLPC  H18Z 7480   3.991   5.732   8.356 -0.2564  1.7655  1.4496
   81SAPS     N 7481   5.653   5.256  10.875 -0.7191  0.1648 -0.1708
   81SAPS   HN1 7482   5.703   5.337  10.835 -1.1967 -0.0235 -1.1693
   81SAPS   HN2 7483   5.717   5.176  10.895 -0.1732  0.4980 -0.5729
   81SAPS   HN3 7484   5.588   5.213  10.806 -1.2802  2.0010 -0.8400
   81SAPS   C12 7485   5.581   5.293  10.999 -0.8278  0.3291 -0.3262
   81SAPS  H12A 7486   5.526   5.209  11.041 -1.1620  1.0144  0.6427
   81SAPS   C13 7487   5.663   5.357  11.111 -0.2645  0.0961  0.3004
   81SAPS  O13A 7488   5.791   5.353  11.112 -0.6192 -0.0681 -0.6903
   81SAPS  O13B 7489   5.610   5.387  11.223  0.5067  0.2222  0.0308
   81SAPS   C11 7490   5.480   5.403  10.968  0.5752  0.6126 -0.3008
   81SAPS  H11A 7491   5.531   5.500  10.948 -0.3793  0.8402 -1.8136
   81SAPS  H11B 7492   5.417   5.421  11.058 -1.8830  1.9462 -2.1455
   81SAPS     P 7493   5.279   5.453  10.800  0.3309 -0.2139 -0.0047
   81SAPS   O13 7494   5.158   5.370  10.771  0.4084  0.3566  0.3013
   81SAPS   O14 7495   5.260   5.572  10.886 -0.3461  0.0559 -0.3445
   81SAPS   O12 7496   5.393   5.369  10.858 -0.0245 -0.5142 -0.0953
   81SAPS   O11 7497   5.331   5.502  10.656 -0.5972 -0.4220  0.1763
   81SAPS    C1 7498   5.452   5.582  10.663 -0.6483 -0.5464  0.3387
   81SAPS    HA 7499   5.467   5.661  10.739 -1.0967  0.6553 -0.8035
   81SAPS    HB 7500   5.543   5.518  10.666 -0.7122 -0.6270  3.1111
   81SAPS    C2 7501   5.468   5.676  10.530  0.3202  0.7758 -0.3948
   81SAPS    HS 7502   5.379   5.742  10.540 -1.4340 -1.4079 -1.0168
   81SAPS   O21 7503   5.468   5.591  10.413  0.0549 -0.1668  0.6026
   81SAPS   C21 7504   5.414   5.649  10.305 -0.2462 -0.3273  0.3780
   81SAPS   O22 7505   5.381   5.765  10.300 -0.2725 -0.1363 -0.1107
   81SAPS   C22 7506   5.402   5.544  10.191 -0.6866 -0.2362 -0.1246
   81SAPS   H2R 7507   5.396   5.606  10.099  1.2918  1.3384  0.7414
   81SAPS   H2S 7508   5.489   5.475  10.197 -0.9304 -0.4098  1.7375
   81SAPS    C3 7509   5.600   5.747  10.541  0.2496  0.1102 -0.1613
   81SAPS    HX 7510   5.682   5.674  10.558  1.6643  1.4857 -0.7381
   81SAPS    HY 7511   5.603   5.812  10.631  0.3739 -1.7629  1.2208
   81SAPS   O31 7512   5.634   5.824  10.419 -0.1919  0.1128 -0.1328
   81SAPS   C31 7513   5.616   5.964  10.431 -0.7899  0.0144 -0.6545
   81SAPS   O32 7514   5.591   6.018  10.535  0.2636 -0.5193 -0.4847
   81SAPS   C32 7515   5.656   6.038  10.298  0.0536  0.3961  0.1378
   81SAPS   H2X 7516   5.654   5.966  10.213 -1.8436 -0.4577  0.8582
   81SAPS   H2Y 7517   5.766   6.055  10.311  0.4302 -1.2236 -0.6482
   81SAPS   C23 7518   5.264   5.469  10.194  0.0820 -0.5372  0.5758
   81SAPS   H3R 7519   5.248   5.435  10.298  1.3648  1.0391  1.3317
   81SAPS   H3S 7520   5.256   5.381  10.127  0.4480  0.1799 -0.4329
   81SAPS   C24 7521   5.138   5.564  10.175 -0.1232 -0.2674  0.0151
   81SAPS   H4R 7522   5.162   5.622  10.083  0.7244  2.1867  1.7044
   81SAPS   H4S 7523   5.139   5.641  10.255  1.3846  0.6410 -0.8415
   81SAPS   C25 7524   5.008   5.488  10.158 -0.4616 -0.1177  0.1816
   81SAPS   H5R 7525   4.945   5.498  10.247 -0.1131  0.4948  0.3685
   81SAPS   C26 7526   4.954   5.432  10.047 -0.0833  0.1057 -0.2474
   81SAPS   H6R 7527   4.851   5.394  10.057 -0.0109 -0.4339 -1.4480
   81SAPS   C27 7528   5.027   5.409   9.914  0.1487 -0.3330 -0.6216
   81SAPS   H7R 7529   4.979   5.318   9.873 -0.2566  0.3542 -1.7252
   81SAPS   H7S 7530   5.135   5.383   9.926 -0.4322 -2.3175  0.7768
   81SAPS   C28 7531   4.998   5.522   9.818  0.1943 -0.6322  0.2519
   81SAPS   H8R 7532   4.899   5.571   9.824 -0.3619 -1.6221 -0.5350
   81SAPS   C29 7533   5.062   5.554   9.707 -0.4169  0.8031 -0.6696
   81SAPS   H9R 7534   5.026   5.627   9.634  1.1596  1.1333 -1.1526
   81SAPS  C210 7535   5.196   5.493   9.659  0.1480  0.8854  1.0020
   81SAPS  H10R 7536   5.271   5.469   9.738 -0.2710 -2.5106  0.5159
   81SAPS  H10S 7537   5.250   5.566   9.595  0.2075  0.7934  0.9462
   81SAPS  C211 7538   5.164   5.364   9.589 -0.3511 -0.5010 -0.2435
   81SAPS  H11R 7539   5.157   5.281   9.661 -0.5832 -0.5816 -0.3579
   81SAPS  C212 7540   5.154   5.350   9.457 -0.2301  0.2556  0.2582
   81SAPS  H12R 7541   5.134   5.251   9.414  2.2417  0.5441 -1.8463
   81SAPS  C213 7542   5.173   5.455   9.355  0.5125  0.0348 -0.8854
   81SAPS  H13R 7543   5.273   5.500   9.374 -0.4704  1.7001  0.7234
   81SAPS  H13S 7544   5.095   5.534   9.352  1.6123  1.1746 -0.2249
   81SAPS  C214 7545   5.190   5.408   9.214 -0.4875  0.5475  0.5340
   81SAPS  H14R 7546   5.297   5.394   9.191 -0.4322  2.2861 -0.4723
   81SAPS  C215 7547   5.100   5.391   9.115 -0.6733  0.2230  0.9830
   81SAPS  H15R 7548   5.126   5.339   9.021 -1.5845 -1.1799  1.4811
   81SAPS  C216 7549   4.954   5.414   9.132 -0.9946 -0.1035  0.7804
   81SAPS  H16R 7550   4.934   5.482   9.218 -1.2909  2.6773 -1.3485
   81SAPS  H16S 7551   4.904   5.316   9.145  0.8584 -1.0871  0.8157
   81SAPS  C217 7552   4.911   5.481   8.990 -0.4244  0.1414 -0.3198
   81SAPS  H17R 7553   4.800   5.486   8.992 -0.4818 -0.9469  0.8353
   81SAPS  H17S 7554   4.932   5.413   8.904 -0.2407  0.4436 -0.5141
   81SAPS  C218 7555   4.961   5.622   8.960  0.3971  0.5332  0.7353
   81SAPS  H18R 7556   5.072   5.620   8.972  0.4896  1.9638  0.3871
   81SAPS  H18S 7557   4.915   5.694   9.031  2.5012  3.0425 -0.2247
   81SAPS  C219 7558   4.930   5.674   8.815 -0.2975 -0.0322 -0.3769
   81SAPS  H19R 7559   4.820   5.675   8.802 -0.2862 -2.4780 -1.1045
   81SAPS  H19S 7560   4.986   5.612   8.742  1.8736  0.5743  0.6675
   81SAPS  C220 7561   4.976   5.818   8.797  0.4365  0.2548 -0.4820
   81SAPS  H20R 7562   4.979   5.856   8.693  5.3806 -1.6283 -1.2977
   81SAPS  H20S 7563   5.085   5.811   8.821  0.4931 -1.0290 -1.0286
   81SAPS  H20T 7564   4.922   5.893   8.858  2.2051 -0.1926  1.7823
   81SAPS   C33 7565   5.565   6.160  10.265  0.1444 -0.1136 -0.4982
   81SAPS   H3X 7566   5.574   6.230  10.351  3.5153  0.1093 -0.9152
   81SAPS   H3Y 7567   5.459   6.135  10.243  0.3109 -0.5046 -0.8629
   81SAPS   C34 7568   5.617   6.235  10.148  0.1351  0.4391 -0.4505
   81SAPS   H4X 7569   5.627   6.155  10.072 -1.1996 -0.5629  0.3906
   81SAPS   H4Y 7570   5.721   6.271  10.168 -0.8973  2.8471  1.0060
   81SAPS   C35 7571   5.524   6.340  10.089  0.3116 -0.5310 -0.6812
   81SAPS   H5X 7572   5.510   6.420  10.165  1.2663  1.4914 -2.5188
   81SAPS   H5Y 7573   5.430   6.289  10.059 -0.2474 -0.2340  0.5105
   81SAPS   C36 7574   5.563   6.417   9.962 -0.9405  0.1114 -0.4664
   81SAPS   H6X 7575   5.671   6.442   9.972 -0.2208 -3.0299  0.8597
   81SAPS   H6Y 7576   5.510   6.514   9.949  2.3901  1.9822 -1.3005
   81SAPS   C37 7577   5.538   6.343   9.828 -0.0525 -0.1407 -0.5223
   81SAPS   H7X 7578   5.430   6.319   9.813  0.5201 -2.3180 -1.4795
   81SAPS   H7Y 7579   5.584   6.243   9.843  2.2014  1.1955  2.6375
   81SAPS   C38 7580   5.601   6.429   9.713  0.6680  0.1514  0.6216
   81SAPS   H8X 7581   5.710   6.447   9.724  1.1614 -0.1982 -2.7368
   81SAPS   H8Y 7582   5.566   6.534   9.706  0.5075  0.0037 -1.0501
   81SAPS   C39 7583   5.554   6.364   9.583  0.3722 -0.5780  0.1954
   81SAPS   H9X 7584   5.447   6.334   9.591 -0.2215  1.2372 -0.4446
   81SAPS   H9Y 7585   5.607   6.276   9.540  0.9806  0.5455 -1.4535
   81SAPS  C310 7586   5.559   6.474   9.473 -0.0116 -0.7832 -0.1018
   81SAPS  H10X 7587   5.659   6.524   9.471 -0.1028 -0.5616  0.7491
   81SAPS  H10Y 7588   5.473   6.539   9.498  1.0870  0.9395 -0.6168
   81SAPS  C311 7589   5.522   6.423   9.330 -0.2277  0.2942 -0.1900
   81SAPS  H11X 7590   5.488   6.513   9.276  0.9421 -0.2535 -1.9281
   81SAPS  H11Y 7591   5.440   6.349   9.332  0.8738 -0.9750  1.6078
   81SAPS  C312 7592   5.643   6.355   9.252 -0.2395 -0.2577  0.4423
   81SAPS  H12X 7593   5.653   6.261   9.309  1.5915 -0.5714 -0.3078
   81SAPS  H12Y 7594   5.738   6.414   9.254 -1.0834  1.1373  1.0710
   81SAPS  C313 7595   5.614   6.301   9.108  0.1491  0.6331  0.2118
   81SAPS  H13X 7596   5.573   6.384   9.048 -1.3297  1.0475  1.6995
   81SAPS  H13Y 7597   5.539   6.219   9.117 -0.6762  0.9144 -2.9724
   81SAPS  C314 7598   5.735   6.232   9.044 -0.1916 -0.0481  0.7974
   81SAPS  H14X 7599   5.782   6.163   9.117 -0.9240 -2.5743 -0.9853
   81SAPS  H14Y 7600   5.803   6.316   9.017 -0.5851  0.2143  0.6077
   81SAPS  C315 7601   5.695   6.159   8.911  0.7970  0.1620 -0.4976
   81SAPS  H15X 7602   5.640   6.069   8.945 -0.1604  0.4090 -1.3359
   81SAPS  H15Y 7603   5.788   6.126   8.861  0.1474 -2.5852 -0.0393
   81SAPS  C316 7604   5.621   6.241   8.807 -0.4097  0.8928 -0.3598
   81SAPS  H16X 7605   5.697   6.314   8.771  2.3621 -1.1205  1.0222
   81SAPS  H16Y 7606   5.532   6.291   8.849 -1.2213 -0.4339 -0.4482
   81SAPS  C317 7607   5.551   6.160   8.691 -0.5804 -0.7636 -0.1337
   81SAPS  H17X 7608   5.615   6.082   8.644 -0.7935 -1.7673  1.1647
   81SAPS  H17Y 7609   5.550   6.240   8.615  0.8120 -0.6443 -0.0572
   81SAPS  C318 7610   5.407   6.113   8.714  0.0066  0.0693 -0.2215
   81SAPS  H18X 7611   5.353   6.203   8.749 -0.8358 -0.5924  0.2380
   81SAPS  H18Y 7612   5.395   6.035   8.793 -1.7027  0.4043 -0.1305
   81SAPS  H18Z 7613   5.370   6.072   8.618  1.0448  0.1713 -0.6844
   82SAPS     N 7614   3.010   4.548  10.981  0.3956  0.3053 -0.2428
   82SAPS   HN1 7615   3.107   4.586  10.976  0.7627 -0.6003 -0.1342
   82SAPS   HN2 7616   3.001   4.468  11.047  0.5877  0.9079  0.5218
   82SAPS   HN3 7617   2.975   4.519  10.887 -0.3720  3.2828 -1.0106
   82SAPS   C12 7618   2.919   4.657  11.042  0.1193  0.5748  0.2410
   82SAPS  H12A 7619   2.818   4.620  11.035 -0.5231  2.5762 -2.4773
   82SAPS   C13 7620   2.963   4.706  11.185 -0.1010  0.1716  0.0285
   82SAPS  O13A 7621   3.061   4.655  11.232 -0.6546  0.7836  0.5757
   82SAPS  O13B 7622   2.900   4.798  11.241  0.3357 -0.3369 -0.5596
   82SAPS   C11 7623   2.923   4.774  10.945  0.6782 -0.9410  0.7109
   82SAPS  H11A 7624   3.025   4.810  10.920  0.3373 -0.0924  0.4799
   82SAPS  H11B 7625   2.887   4.869  10.991  3.1716  1.1161 -1.2715
   82SAPS     P 7626   2.821   4.859  10.717 -0.8074  0.3351  0.4188
   82SAPS   O13 7627   2.709   4.822  10.634 -0.1812 -0.3443  0.0036
   82SAPS   O14 7628   2.824   4.989  10.780 -0.5561  0.0293  0.2724
   82SAPS   O12 7629   2.846   4.748  10.828 -0.4900  0.5561  0.1532
   82SAPS   O11 7630   2.958   4.849  10.632  0.2613 -0.5789  0.2563
   82SAPS    C1 7631   3.053   4.742  10.637 -0.1069  0.6917  0.6504
   82SAPS    HA 7632   3.143   4.770  10.695  0.8539  0.3054 -0.6051
   82SAPS    HB 7633   3.008   4.643  10.661  0.5630 -0.2422 -1.6494
   82SAPS    C2 7634   3.110   4.719  10.490 -0.4674  0.1683 -0.3177
   82SAPS    HS 7635   3.180   4.633  10.493 -0.9336 -0.2046 -0.0818
   82SAPS   O21 7636   3.165   4.845  10.450 -0.0806  0.8197  0.1182
   82SAPS   C21 7637   3.267   4.841  10.364 -0.0595 -0.9417  0.1231
   82SAPS   O22 7638   3.329   4.740  10.333 -0.0161 -0.2382 -0.3806
   82SAPS   C22 7639   3.282   4.979  10.306 -0.2859 -1.2595  0.1073
   82SAPS   H2R 7640   3.185   5.034  10.308  1.5039  2.1470 -0.1226
   82SAPS   H2S 7641   3.340   5.040  10.379 -0.9671 -0.8374  0.3018
   82SAPS    C3 7642   2.993   4.680  10.400  0.6169 -0.5463  0.2863
   82SAPS    HX 7643   2.916   4.759  10.414  1.8264  0.4325  1.6692
   82SAPS    HY 7644   2.947   4.582  10.427 -0.3752 -0.3835 -0.7169
   82SAPS   O31 7645   3.027   4.676  10.260 -0.1572 -0.0163 -0.0245
   82SAPS   C31 7646   3.055   4.561  10.210  0.2329  0.6564 -1.3657
   82SAPS   O32 7647   3.063   4.461  10.278  0.3388  0.2546  0.1942
   82SAPS   C32 7648   3.064   4.571  10.055  0.5212  0.2411  0.3809
   82SAPS   H2X 7649   3.157   4.524  10.018  2.0720  2.3706  1.3192
   82SAPS   H2Y 7650   3.062   4.680  10.030 -1.9031  0.3830  0.9288
   82SAPS   C23 7651   3.364   4.974  10.179  0.4268  0.1931  0.0907
   82SAPS   H3R 7652   3.459   4.918  10.192 -0.9511 -1.9896  1.3015
   82SAPS   H3S 7653   3.402   5.073  10.146 -1.0632  0.8864  0.3548
   82SAPS   C24 7654   3.279   4.916  10.062 -0.5092 -0.2883 -0.9379
   82SAPS   H4R 7655   3.276   4.983   9.973  0.8672  1.1332  0.0227
   82SAPS   H4S 7656   3.177   4.911  10.106  0.0221  1.3277  0.6065
   82SAPS   C25 7657   3.324   4.780  10.008 -0.1690 -0.2330  0.2999
   82SAPS   H5R 7658   3.336   4.696  10.078 -0.4023 -1.8144 -1.4843
   82SAPS   C26 7659   3.352   4.751   9.878  0.1840 -0.1027  0.4045
   82SAPS   H6R 7660   3.385   4.649   9.855  2.0944  0.0411  2.2648
   82SAPS   C27 7661   3.362   4.841   9.758  0.6832 -0.1139 -0.9528
   82SAPS   H7R 7662   3.273   4.907   9.768  0.3486 -0.6681 -0.2077
   82SAPS   H7S 7663   3.347   4.781   9.666  0.3457 -1.3808 -0.0899
   82SAPS   C28 7664   3.487   4.924   9.739 -0.1914 -0.0886 -0.6081
   82SAPS   H8R 7665   3.526   4.958   9.836 -0.2720  1.4148 -1.0846
   82SAPS   C29 7666   3.523   4.977   9.622 -0.0315  0.2591 -0.5711
   82SAPS   H9R 7667   3.611   5.043   9.617 -0.4904  0.9057 -0.1722
   82SAPS  C210 7668   3.443   4.959   9.497  0.0460  0.4799  0.3132
   82SAPS  H10R 7669   3.425   5.058   9.452 -2.2327  0.0225  0.1275
   82SAPS  H10S 7670   3.340   4.924   9.522 -0.2430  0.9749 -0.1826
   82SAPS  C211 7671   3.502   4.852   9.411 -0.3258 -0.1275  0.0449
   82SAPS  H11R 7672   3.604   4.821   9.438 -0.4518 -1.7929 -1.2056
   82SAPS  C212 7673   3.448   4.774   9.314  0.5281 -0.0985 -0.2874
   82SAPS  H12R 7674   3.514   4.709   9.254  0.0961  1.7416 -2.9158
   82SAPS  C213 7675   3.305   4.778   9.258 -0.7151  0.0782  0.5343
   82SAPS  H13R 7676   3.229   4.806   9.334 -0.2060  1.5155  0.5452
   82SAPS  H13S 7677   3.286   4.671   9.235 -0.0117  0.1334 -0.3441
   82SAPS  C214 7678   3.300   4.884   9.147  0.1777 -0.1321  0.4676
   82SAPS  H14R 7679   3.292   4.987   9.183 -2.6869  0.3156 -1.1314
   82SAPS  C215 7680   3.287   4.852   9.017  0.6000 -0.1741 -0.3729
   82SAPS  H15R 7681   3.261   4.932   8.945 -1.6420  1.0677  1.6608
   82SAPS  C216 7682   3.288   4.712   8.957  0.0929 -0.1555  0.0345
   82SAPS  H16R 7683   3.184   4.681   8.934  0.5784 -0.7445 -1.4777
   82SAPS  H16S 7684   3.313   4.638   9.036 -0.0238  0.8432  1.0476
   82SAPS  C217 7685   3.367   4.679   8.835 -0.2216 -0.3205  0.4858
   82SAPS  H17R 7686   3.397   4.572   8.833  2.0424  0.2377  1.2939
   82SAPS  H17S 7687   3.462   4.738   8.838  0.7893 -1.7056 -1.4456
   82SAPS  C218 7688   3.287   4.699   8.709 -0.5222 -0.4356 -0.4017
   82SAPS  H18R 7689   3.252   4.804   8.707  1.4774  0.3298  1.4251
   82SAPS  H18S 7690   3.190   4.643   8.713  0.7949 -2.8023  0.7994
   82SAPS  C219 7691   3.363   4.674   8.585 -0.2216  0.1413  0.2605
   82SAPS  H19R 7692   3.424   4.581   8.597 -0.1023  0.1426 -0.2765
   82SAPS  H19S 7693   3.437   4.757   8.573  0.2354 -0.4493 -1.2946
   82SAPS  C220 7694   3.273   4.673   8.456  0.0112 -0.3305 -0.6236
   82SAPS  H20R 7695   3.327   4.646   8.362 -2.9815 -0.0634 -2.5568
   82SAPS  H20S 7696   3.254   4.781   8.438 -1.1765 -0.6792 -1.6381
   82SAPS  H20T 7697   3.187   4.605   8.470  1.2107 -1.4973  1.6377
   82SAPS   C33 7698   2.935   4.517   9.987  0.1573 -0.2972  0.2690
   82SAPS   H3X 7699   2.856   4.569  10.045  1.7146 -0.4316  2.6524
   82SAPS   H3Y 7700   2.912   4.409  10.000 -0.3883  0.0583  2.6459
   82SAPS   C34 7701   2.931   4.562   9.841  0.3834 -0.0402 -0.7113
   82SAPS   H4X 7702   2.961   4.666   9.813  0.1651 -0.2494 -1.7933
   82SAPS   H4Y 7703   2.828   4.546   9.803 -0.2519 -0.0726  0.9696
   82SAPS   C35 7704   3.019   4.474   9.748 -0.0349  0.6831 -0.4658
   82SAPS   H5X 7705   2.975   4.373   9.731  2.2281 -0.3910 -0.3716
   82SAPS   H5Y 7706   3.121   4.457   9.788  0.5826  1.0631 -1.8445
   82SAPS   C36 7707   3.013   4.538   9.612  0.0972  0.5006  0.4738
   82SAPS   H6X 7708   3.074   4.630   9.613  1.9569 -0.6849  0.2606
   82SAPS   H6Y 7709   2.906   4.556   9.587  0.1748 -1.4267 -1.6512
   82SAPS   C37 7710   3.065   4.435   9.509  0.4163 -0.2230  0.0879
   82SAPS   H7X 7711   3.001   4.344   9.520  1.1952 -0.9627 -1.2507
   82SAPS   H7Y 7712   3.171   4.405   9.528  1.1975  1.8110 -0.7982
   82SAPS   C38 7713   3.046   4.481   9.364 -0.3321 -0.3102 -0.1859
   82SAPS   H8X 7714   3.116   4.567   9.356 -1.4822  0.5099 -1.9676
   82SAPS   H8Y 7715   2.950   4.535   9.351  0.3402  0.8272 -0.5698
   82SAPS   C39 7716   3.060   4.367   9.256  0.2309  0.0171 -0.5685
   82SAPS   H9X 7717   2.997   4.284   9.295  1.2928  0.1255  1.5068
   82SAPS   H9Y 7718   3.168   4.347   9.249  0.2251 -0.2540  0.0884
   82SAPS  C310 7719   3.027   4.413   9.113  0.3616  0.1535  0.3714
   82SAPS  H10X 7720   3.076   4.510   9.090  1.3326 -0.6128 -0.9839
   82SAPS  H10Y 7721   2.920   4.441   9.108 -0.1884 -1.9508 -1.3788
   82SAPS  C311 7722   3.072   4.305   9.011  0.3735 -0.2859  0.3438
   82SAPS  H11X 7723   3.009   4.214   9.025  1.4918 -0.8239  2.4136
   82SAPS  H11Y 7724   3.175   4.265   9.025 -0.1180 -1.5261  0.5359
   82SAPS  C312 7725   3.077   4.349   8.861  0.2863 -0.2423 -0.4075
   82SAPS  H12X 7726   3.121   4.274   8.792 -0.6339 -0.2591 -0.9974
   82SAPS  H12Y 7727   3.142   4.439   8.861 -0.3194  0.2017 -1.3677
   82SAPS  C313 7728   2.933   4.374   8.806 -0.6813  0.0003  0.2124
   82SAPS  H13X 7729   2.885   4.452   8.868 -0.4749  0.7920 -0.5923
   82SAPS  H13Y 7730   2.886   4.274   8.800 -1.7353  0.4802  0.2363
   82SAPS  C314 7731   2.929   4.436   8.662 -0.8745  1.2425  0.2240
   82SAPS  H14X 7732   2.955   4.366   8.579 -0.2013  1.1305  0.5249
   82SAPS  H14Y 7733   2.998   4.522   8.650  1.2444 -0.4808 -0.5493
   82SAPS  C315 7734   2.789   4.491   8.631  0.1705 -0.3146 -0.3492
   82SAPS  H15X 7735   2.808   4.576   8.562 -0.3347  0.0271 -0.0747
   82SAPS  H15Y 7736   2.741   4.533   8.722 -1.5182 -2.2207 -0.2724
   82SAPS  C316 7737   2.690   4.391   8.564 -0.2086 -0.2428 -0.1257
   82SAPS  H16X 7738   2.664   4.313   8.638  4.3357 -3.2409 -1.3254
   82SAPS  H16Y 7739   2.750   4.328   8.496  1.8570  0.8918  0.5271
   82SAPS  C317 7740   2.566   4.463   8.509 -0.4282 -0.1376 -0.2430
   82SAPS  H17X 7741   2.516   4.393   8.439 -0.0285 -0.1452 -0.5201
   82SAPS  H17Y 7742   2.592   4.557   8.456  0.1217  0.9525  1.8541
   82SAPS  C318 7743   2.454   4.492   8.613 -0.2279 -0.8994 -0.8410
   82SAPS  H18X 7744   2.359   4.507   8.556  0.0343  1.8382 -0.6922
   82SAPS  H18Y 7745   2.472   4.579   8.680 -2.2294 -0.2966 -1.0129
   82SAPS  H18Z 7746   2.437   4.407   8.683  3.4949 -2.7630 -1.9174
   83SAPS     N 7747   5.858   6.427  11.237 -0.2990  0.3382  0.6935
   83SAPS   HN1 7748   5.882   6.393  11.142  0.4005  0.3463  0.8639
   83SAPS   HN2 7749   5.857   6.343  11.297  0.5807 -1.1817 -1.3149
   83SAPS   HN3 7750   5.761   6.464  11.247 -0.3388 -0.3339  3.6736
   83SAPS   C12 7751   5.945   6.535  11.289 -0.1488 -0.5067  0.1387
   83SAPS  H12A 7752   5.882   6.602  11.345  1.0292 -0.8580  2.0067
   83SAPS   C13 7753   6.060   6.479  11.384  0.1071  0.0691 -0.4608
   83SAPS  O13A 7754   6.079   6.357  11.399  0.0859 -0.5218  0.1408
   83SAPS  O13B 7755   6.152   6.564  11.416 -0.4501  0.1044 -0.2909
   83SAPS   C11 7756   6.012   6.615  11.176  0.6716  0.1318  0.3086
   83SAPS  H11A 7757   6.086   6.555  11.119 -0.9693 -1.7646  0.0332
   83SAPS  H11B 7758   6.058   6.706  11.220  0.0514  0.9646 -0.7162
   83SAPS     P 7759   5.901   6.807  11.027  0.1604  0.0052  0.0594
   83SAPS   O13 7760   5.811   6.880  11.114  0.2233 -0.2667 -0.4636
   83SAPS   O14 7761   6.036   6.863  11.007  0.4503  0.0701  0.0528
   83SAPS   O12 7762   5.908   6.658  11.088 -0.0753 -0.3655 -0.1015
   83SAPS   O11 7763   5.827   6.783  10.889 -0.0951  0.5000 -0.7546
   83SAPS    C1 7764   5.766   6.654  10.855 -0.2446  0.4465  0.0906
   83SAPS    HA 7765   5.845   6.576  10.859 -0.1638  0.4773 -0.7915
   83SAPS    HB 7766   5.691   6.621  10.930 -0.2249 -0.0490 -0.1096
   83SAPS    C2 7767   5.703   6.651  10.706  0.6606 -0.1406 -0.3210
   83SAPS    HS 7768   5.653   6.554  10.685  1.7127 -0.1775 -3.0628
   83SAPS   O21 7769   5.802   6.661  10.602 -0.1403  0.1432 -0.0284
   83SAPS   C21 7770   5.835   6.553  10.531  0.0955 -0.4373  0.5199
   83SAPS   O22 7771   5.787   6.443  10.542 -0.4290  0.3468  0.2167
   83SAPS   C22 7772   5.942   6.586  10.424  0.3502  0.3087 -0.3838
   83SAPS   H2R 7773   5.932   6.693  10.394 -1.8677  0.4766  0.7678
   83SAPS   H2S 7774   6.039   6.591  10.478  0.7288  3.2207 -1.1310
   83SAPS    C3 7775   5.592   6.758  10.694  0.5637  0.1986 -0.0587
   83SAPS    HX 7776   5.619   6.851  10.748 -1.4510  1.4384 -1.0757
   83SAPS    HY 7777   5.510   6.717  10.756  0.5141 -0.8811 -0.8124
   83SAPS   O31 7778   5.548   6.770  10.562 -0.3386  0.6741 -0.0047
   83SAPS   C31 7779   5.592   6.881  10.501 -0.1849 -0.6880  0.6407
   83SAPS   O32 7780   5.633   6.982  10.552  0.2606  0.0049  0.1206
   83SAPS   C32 7781   5.597   6.846  10.348 -0.2445  0.4162 -0.2749
   83SAPS   H2X 7782   5.548   6.747  10.333  0.2185  0.2180 -0.4900
   83SAPS   H2Y 7783   5.706   6.840  10.328 -0.3517  2.6428 -1.8671
   83SAPS   C23 7784   5.928   6.507  10.296 -0.2498  0.7982 -0.5932
   83SAPS   H3R 7785   5.825   6.529  10.258 -1.9789  0.4713  3.4452
   83SAPS   H3S 7786   5.930   6.396  10.302 -1.5029  0.8109  0.3386
   83SAPS   C24 7787   6.039   6.538  10.190 -0.1210  0.0298  0.3907
   83SAPS   H4R 7788   6.132   6.510  10.244  0.2126  2.7220  1.3367
   83SAPS   H4S 7789   6.041   6.648  10.176 -2.1456  0.1797  1.0080
   83SAPS   C25 7790   5.998   6.459  10.067  0.1384 -0.1623  0.0798
   83SAPS   H5R 7791   5.988   6.353  10.094 -1.1945 -0.4916 -1.5327
   83SAPS   C26 7792   5.990   6.511   9.943  0.4445  0.0186 -0.0784
   83SAPS   H6R 7793   5.988   6.451   9.851  1.3500 -1.2893  0.7149
   83SAPS   C27 7794   6.007   6.651   9.896 -0.2603 -0.3583 -0.3212
   83SAPS   H7R 7795   6.076   6.652   9.809  0.1138 -2.6846 -0.1123
   83SAPS   H7S 7796   6.064   6.713   9.969  0.1328  2.1368 -2.6171
   83SAPS   C28 7797   5.868   6.714   9.882 -0.4320  0.3140 -0.2129
   83SAPS   H8R 7798   5.804   6.711   9.971  1.1062  1.2986  0.9873
   83SAPS   C29 7799   5.817   6.763   9.772 -0.4850 -0.1475  0.7797
   83SAPS   H9R 7800   5.714   6.799   9.786  0.5427  3.0603  0.9134
   83SAPS  C210 7801   5.870   6.799   9.631 -0.3325  0.1425  0.2994
   83SAPS  H10R 7802   5.963   6.857   9.651 -0.7646  0.5513  1.2100
   83SAPS  H10S 7803   5.803   6.868   9.576 -0.7830 -1.7536 -1.6570
   83SAPS  C211 7804   5.908   6.673   9.552 -0.3473  0.1100 -0.2504
   83SAPS  H11R 7805   5.941   6.587   9.612 -0.9453 -0.0477 -0.1464
   83SAPS  C212 7806   5.909   6.661   9.418  0.0585 -0.1543 -0.8593
   83SAPS  H12R 7807   5.937   6.570   9.362  0.1150 -0.2162 -0.7308
   83SAPS  C213 7808   5.876   6.766   9.317  0.3222 -1.0359  0.8251
   83SAPS  H13R 7809   5.965   6.771   9.251  0.4624 -2.2504  0.8976
   83SAPS  H13S 7810   5.875   6.872   9.350 -1.9237 -0.3556 -1.1802
   83SAPS  C214 7811   5.743   6.756   9.240  0.0483  0.1365 -0.5430
   83SAPS  H14R 7812   5.656   6.774   9.305  0.8900 -2.9219  1.6274
   83SAPS  C215 7813   5.732   6.729   9.106 -0.0005  0.5585  0.3910
   83SAPS  H15R 7814   5.636   6.724   9.054 -0.1662  0.4805  0.6991
   83SAPS  C216 7815   5.852   6.710   9.019  0.1274 -0.1775  0.3740
   83SAPS  H16R 7816   5.829   6.636   8.939  1.6869 -0.7032  0.3838
   83SAPS  H16S 7817   5.941   6.669   9.072  0.0345  2.2705  2.6397
   83SAPS  C217 7818   5.884   6.844   8.949 -0.3541 -0.3211  0.5192
   83SAPS  H17R 7819   5.886   6.925   9.025 -1.6709  0.3471 -0.1216
   83SAPS  H17S 7820   5.793   6.864   8.888 -0.4257  0.6216  0.9290
   83SAPS  C218 7821   6.010   6.853   8.863  0.3288  0.3425  0.2628
   83SAPS  H18R 7822   6.014   6.761   8.799 -1.4011  0.8961 -0.7042
   83SAPS  H18S 7823   6.107   6.871   8.915  0.6996 -0.6064 -0.0700
   83SAPS  C219 7824   6.011   6.959   8.749  0.6186  0.3319 -0.1048
   83SAPS  H19R 7825   6.106   6.939   8.696  0.6087 -0.1617  0.0547
   83SAPS  H19S 7826   6.016   7.060   8.794  1.4866  0.4119 -0.3665
   83SAPS  C220 7827   5.901   6.935   8.641 -0.5552 -0.2439  0.4337
   83SAPS  H20R 7828   5.907   6.832   8.601  0.1822 -1.0050  2.3978
   83SAPS  H20S 7829   5.911   7.013   8.562  2.9590  0.1213  1.0744
   83SAPS  H20T 7830   5.799   6.939   8.686 -1.6684 -0.3630 -1.9573
   83SAPS   C33 7831   5.539   6.962  10.264  0.0567  0.2563 -0.2626
   83SAPS   H3X 7832   5.605   7.050  10.277 -1.2141  1.1071  0.7187
   83SAPS   H3Y 7833   5.437   6.982  10.302  0.1150 -2.7183  1.7762
   83SAPS   C34 7834   5.544   6.922  10.114 -0.3216  0.0801  0.3452
   83SAPS   H4X 7835   5.466   6.844  10.099 -0.8740  0.2804  1.9978
   83SAPS   H4Y 7836   5.647   6.882  10.103 -0.0740  1.0444 -1.1300
   83SAPS   C35 7837   5.523   7.042  10.024 -0.1523 -0.3095  0.5475
   83SAPS   H5X 7838   5.584   7.126  10.065 -0.2846 -0.6775  1.5237
   83SAPS   H5Y 7839   5.414   7.061  10.030 -0.8697 -3.2355 -1.2096
   83SAPS   C36 7840   5.559   6.983   9.887  0.0949 -0.1799 -0.0933
   83SAPS   H6X 7841   5.497   6.890   9.888 -0.6220  0.2162  2.9906
   83SAPS   H6Y 7842   5.666   6.957   9.875  0.7227  0.7244  2.7255
   83SAPS   C37 7843   5.505   7.063   9.764  0.1671  0.2737  0.1407
   83SAPS   H7X 7844   5.511   7.171   9.789  2.0726 -0.1972  2.0135
   83SAPS   H7Y 7845   5.401   7.034   9.739  1.1982 -0.7755 -3.6393
   83SAPS   C38 7846   5.586   7.047   9.635  0.4226 -0.1209 -0.0637
   83SAPS   H8X 7847   5.584   6.938   9.613 -1.4778 -0.4365  1.4635
   83SAPS   H8Y 7848   5.695   7.065   9.652  0.9986 -2.5986 -0.7201
   83SAPS   C39 7849   5.530   7.114   9.515 -0.5261  0.5142  0.2533
   83SAPS   H9X 7850   5.530   7.225   9.516 -0.2568  0.5123  1.1161
   83SAPS   H9Y 7851   5.422   7.090   9.509 -0.1833 -1.1170  0.0244
   83SAPS  C310 7852   5.615   7.076   9.389  0.0721  0.3302  0.5038
   83SAPS  H10X 7853   5.589   6.971   9.363  3.0047 -0.2473 -0.4877
   83SAPS  H10Y 7854   5.722   7.064   9.417  0.3926 -3.1694 -1.6730
   83SAPS  C311 7855   5.606   7.164   9.273 -0.0878 -0.4192 -0.2906
   83SAPS  H11X 7856   5.670   7.255   9.283  1.3575 -1.1819 -1.9985
   83SAPS  H11Y 7857   5.505   7.206   9.258  0.8406  1.8441 -0.7372
   83SAPS  C312 7858   5.659   7.094   9.142 -0.2721 -0.1598 -0.0471
   83SAPS  H12X 7859   5.608   6.996   9.131  0.3137 -0.6818  1.5993
   83SAPS  H12Y 7860   5.767   7.074   9.152 -0.4822 -0.6882  1.3527
   83SAPS  C313 7861   5.622   7.188   9.019  0.3842  0.1206 -0.9527
   83SAPS  H13X 7862   5.664   7.288   9.043 -1.5059  1.1459 -1.6706
   83SAPS  H13Y 7863   5.512   7.203   9.018  0.0976 -0.3988  3.0833
   83SAPS  C314 7864   5.656   7.145   8.875  0.2544 -1.0160  0.2625
   83SAPS  H14X 7865   5.614   7.042   8.865 -1.1924 -0.3653 -0.7846
   83SAPS  H14Y 7866   5.761   7.149   8.841  0.3993 -1.1335  0.6926
   83SAPS  C315 7867   5.569   7.217   8.761  0.4046  0.3544  0.8426
   83SAPS  H15X 7868   5.462   7.212   8.790 -0.5902 -0.9265 -2.5284
   83SAPS  H15Y 7869   5.576   7.162   8.665 -0.1837  1.3997  0.1865
   83SAPS  C316 7870   5.616   7.361   8.744  0.3046  0.3454  0.2543
   83SAPS  H16X 7871   5.714   7.355   8.694  0.5270  0.6247  0.6494
   83SAPS  H16Y 7872   5.632   7.407   8.844 -2.4791 -1.3715  1.6277
   83SAPS  C317 7873   5.529   7.451   8.656 -0.1639 -0.5670 -0.4585
   83SAPS  H17X 7874   5.573   7.553   8.651 -3.4671  0.9109 -2.1156
   83SAPS  H17Y 7875   5.429   7.451   8.703  0.2847 -3.2294  0.6904
   83SAPS  C318 7876   5.508   7.395   8.516 -0.8409  0.6480  0.2467
   83SAPS  H18X 7877   5.427   7.321   8.532 -0.0985  0.3515  3.2550
   83SAPS  H18Y 7878   5.596   7.347   8.467 -0.9009 -0.0347  0.7838
   83SAPS  H18Z 7879   5.479   7.471   8.441  0.6964  0.3976 -0.6583
   84SAPS     N 7880   6.019   5.263  11.021 -0.4054  0.0715 -0.3620
   84SAPS   HN1 7881   5.930   5.314  11.036 -0.9383 -0.4762 -1.5157
   84SAPS   HN2 7882   6.100   5.316  11.059  0.6971  0.2915 -2.8181
   84SAPS   HN3 7883   6.024   5.254  10.917 -0.4241  0.7388 -0.4258
   84SAPS   C12 7884   6.011   5.124  11.079  0.4741 -0.3150  0.5949
   84SAPS  H12A 7885   5.993   5.146  11.183  2.4230  2.9847  0.3796
   84SAPS   C13 7886   5.895   5.031  11.025 -0.2215  0.1964  0.3312
   84SAPS  O13A 7887   5.840   5.060  10.914  0.1326 -0.9175  0.6303
   84SAPS  O13B 7888   5.887   4.915  11.068  0.6024  0.1965  0.4539
   84SAPS   C11 7889   6.159   5.058  11.068  0.5998  0.1171  0.4474
   84SAPS  H11A 7890   6.195   5.055  10.963 -1.3877 -1.8483 -0.2607
   84SAPS  H11B 7891   6.145   4.950  11.087 -2.7428  0.1753 -0.8890
   84SAPS     P 7892   6.358   5.225  11.096 -0.5187 -0.0394  0.2906
   84SAPS   O13 7893   6.279   5.348  11.101  0.3855 -0.4342 -0.0257
   84SAPS   O14 7894   6.477   5.215  11.180 -0.1726  0.2828  0.0894
   84SAPS   O12 7895   6.264   5.108  11.147  0.0257 -0.3233 -0.7863
   84SAPS   O11 7896   6.387   5.190  10.952 -0.6754 -0.6610  0.1535
   84SAPS    C1 7897   6.514   5.138  10.898 -0.2952  0.5060 -0.7360
   84SAPS    HA 7898   6.586   5.140  10.982  0.6475  1.6593 -1.5317
   84SAPS    HB 7899   6.501   5.035  10.858 -0.0422  0.1580  0.0580
   84SAPS    C2 7900   6.559   5.228  10.780  1.3576 -0.0438 -0.6307
   84SAPS    HS 7901   6.537   5.328  10.823  0.0705 -1.1132  1.3310
   84SAPS   O21 7902   6.469   5.196  10.675 -0.1035 -0.1348  0.5403
   84SAPS   C21 7903   6.449   5.299  10.583  0.1369  0.0484  0.4291
   84SAPS   O22 7904   6.525   5.394  10.574 -0.6643  0.9391  0.7784
   84SAPS   C22 7905   6.338   5.253  10.484  0.2987 -0.3207 -0.8448
   84SAPS   H2R 7906   6.290   5.161  10.525 -1.2412  0.6573 -0.3344
   84SAPS   H2S 7907   6.256   5.329  10.488 -1.2949 -1.9778  2.2867
   84SAPS    C3 7908   6.705   5.223  10.739  0.7615 -0.6568  0.8403
   84SAPS    HX 7909   6.769   5.235  10.828 -0.0362 -1.7400  1.5907
   84SAPS    HY 7910   6.722   5.318  10.683  0.2575 -0.1420  1.5347
   84SAPS   O31 7911   6.735   5.100  10.679 -0.2808 -0.0828 -0.5936
   84SAPS   C31 7912   6.864   5.111  10.633  0.5812  0.3069 -0.6678
   84SAPS   O32 7913   6.927   5.210  10.625 -0.6484 -0.4473  0.3964
   84SAPS   C32 7914   6.909   4.970  10.582  1.0322 -0.6611 -0.0276
   84SAPS   H2X 7915   6.828   4.898  10.606 -0.8098  1.0681 -0.8118
   84SAPS   H2Y 7916   7.005   4.945  10.634 -0.7007 -1.0068  3.2789
   84SAPS   C23 7917   6.400   5.235  10.340 -0.2783  0.3102 -0.1192
   84SAPS   H3R 7918   6.463   5.144  10.339 -0.7683 -0.0895  1.6305
   84SAPS   H3S 7919   6.467   5.322  10.324 -2.2957  1.5980 -2.1108
   84SAPS   C24 7920   6.298   5.251  10.222  0.3937 -0.1090 -0.3854
   84SAPS   H4R 7921   6.354   5.290  10.134  1.0939 -0.2841 -0.0258
   84SAPS   H4S 7922   6.227   5.331  10.251  2.7054  1.8157  0.3339
   84SAPS   C25 7923   6.222   5.120  10.204 -0.1825 -0.4098  0.1190
   84SAPS   H5R 7924   6.186   5.067  10.293  1.1815 -3.8403 -1.1963
   84SAPS   C26 7925   6.213   5.059  10.086  0.5977 -0.4307 -0.4911
   84SAPS   H6R 7926   6.172   4.957  10.077 -0.3974 -0.3257  1.9812
   84SAPS   C27 7927   6.272   5.112   9.956  0.0091 -0.6446 -0.1256
   84SAPS   H7R 7928   6.290   5.023   9.892 -0.6167 -1.6594  1.0582
   84SAPS   H7S 7929   6.374   5.154   9.975  0.6347 -1.7123 -1.0042
   84SAPS   C28 7930   6.187   5.203   9.878 -0.3604  0.3114 -0.0900
   84SAPS   H8R 7931   6.151   5.291   9.932  1.9478  0.1051  1.9325
   84SAPS   C29 7932   6.137   5.187   9.754  0.7322  0.6602 -0.2775
   84SAPS   H9R 7933   6.066   5.260   9.713 -0.6891  0.2613  1.3511
   84SAPS  C210 7934   6.169   5.074   9.660 -0.0735  0.3907 -0.5582
   84SAPS  H10R 7935   6.213   4.986   9.712 -0.3043  0.4655 -0.2271
   84SAPS  H10S 7936   6.250   5.122   9.601 -0.1905 -0.1781 -1.1973
   84SAPS  C211 7937   6.051   5.008   9.595 -0.3083 -0.5839  0.2320
   84SAPS  H11R 7938   5.958   5.009   9.653 -1.0403  1.7543 -0.8609
   84SAPS  C212 7939   6.051   4.925   9.484 -0.0654 -0.0959 -0.0768
   84SAPS  H12R 7940   5.955   4.875   9.462  0.7231 -2.0250  0.6485
   84SAPS  C213 7941   6.163   4.893   9.388 -0.1500  0.0370 -0.7676
   84SAPS  H13R 7942   6.148   4.786   9.364  0.5426 -0.1041 -0.6086
   84SAPS  H13S 7943   6.264   4.888   9.436 -0.6422 -4.1947  0.2351
   84SAPS  C214 7944   6.177   4.973   9.262 -0.6994 -0.2301 -0.4356
   84SAPS  H14R 7945   6.103   5.054   9.266 -1.0023 -0.2791 -3.1690
   84SAPS  C215 7946   6.243   4.933   9.150  0.5589 -0.1777  0.2318
   84SAPS  H15R 7947   6.243   5.010   9.071 -1.7010  1.0463  1.3136
   84SAPS  C216 7948   6.331   4.814   9.122 -0.2349  0.6723  0.3063
   84SAPS  H16R 7949   6.352   4.775   9.224  3.0895 -2.7230 -1.4402
   84SAPS  H16S 7950   6.429   4.842   9.078 -0.7085 -0.4952 -1.6181
   84SAPS  C217 7951   6.273   4.699   9.048 -0.0450 -0.5852  0.0981
   84SAPS  H17R 7952   6.360   4.631   9.034  3.0779  2.9028  0.8725
   84SAPS  H17S 7953   6.238   4.740   8.951  1.0743  1.9898  0.6950
   84SAPS  C218 7954   6.158   4.635   9.125 -0.4547  0.3065 -0.2293
   84SAPS  H18R 7955   6.080   4.715   9.130 -0.0076  0.6926  3.3203
   84SAPS  H18S 7956   6.183   4.619   9.232 -1.3973  1.1851  0.1444
   84SAPS  C219 7957   6.094   4.506   9.075  0.0878  0.1467  0.4669
   84SAPS  H19R 7958   6.083   4.519   8.965 -1.9091  2.6180  0.8704
   84SAPS  H19S 7959   5.996   4.482   9.122  0.0847  0.0829  0.4272
   84SAPS  C220 7960   6.191   4.388   9.097 -0.2216 -0.2577 -0.3274
   84SAPS  H20R 7961   6.215   4.390   9.205 -2.0918 -2.9339  0.2430
   84SAPS  H20S 7962   6.285   4.391   9.039  0.2757 -1.6508  0.3684
   84SAPS  H20T 7963   6.135   4.293   9.085 -0.9956  0.2984 -1.2524
   84SAPS   C33 7964   6.929   4.968  10.433 -0.0934 -0.6057 -0.8179
   84SAPS   H3X 7965   6.976   4.872  10.403  0.0366 -0.9573  0.4571
   84SAPS   H3Y 7966   6.995   5.049  10.396 -2.0610  0.9398 -1.1485
   84SAPS   C34 7967   6.796   4.987  10.363  0.4304  0.3738 -0.5797
   84SAPS   H4X 7968   6.773   5.095  10.363  1.1380  0.5348 -1.0357
   84SAPS   H4Y 7969   6.714   4.936  10.418  0.1633  0.4815 -0.8757
   84SAPS   C35 7970   6.806   4.922  10.221 -0.2913 -0.0808 -0.3678
   84SAPS   H5X 7971   6.808   4.811  10.231  1.3081  0.1213  2.8901
   84SAPS   H5Y 7972   6.899   4.963  10.177 -0.7827 -0.9888 -2.3723
   84SAPS   C36 7973   6.705   4.966  10.126  1.0416  0.5514  0.4770
   84SAPS   H6X 7974   6.690   5.076  10.115 -0.1460  0.2292 -1.7827
   84SAPS   H6Y 7975   6.604   4.941  10.166  1.0325 -0.3914 -0.1084
   84SAPS   C37 7976   6.727   4.915   9.981  0.8360  0.3947 -0.0034
   84SAPS   H7X 7977   6.776   4.815   9.984  0.3023  0.0384 -1.8531
   84SAPS   H7Y 7978   6.796   4.982   9.926  0.8147  0.9634  0.6533
   84SAPS   C38 7979   6.602   4.893   9.891 -0.1136  0.9068  0.0731
   84SAPS   H8X 7980   6.536   4.980   9.913 -0.2681  1.2588 -1.6302
   84SAPS   H8Y 7981   6.551   4.799   9.920  0.5528  0.6384  0.3936
   84SAPS   C39 7982   6.635   4.897   9.740  1.0943  0.9510 -0.3335
   84SAPS   H9X 7983   6.687   4.805   9.707  1.1920  1.2441 -1.0070
   84SAPS   H9Y 7984   6.702   4.985   9.740  0.3765  1.5316  0.8384
   84SAPS  C310 7985   6.531   4.918   9.636  0.1715 -0.4429  0.3134
   84SAPS  H10X 7986   6.466   5.005   9.658  1.8431  0.5800  1.4648
   84SAPS  H10Y 7987   6.464   4.836   9.602  0.5540 -0.8950  0.6442
   84SAPS  C311 7988   6.602   4.966   9.505  0.8549 -0.6152  0.1356
   84SAPS  H11X 7989   6.618   4.881   9.435 -2.9462 -0.4673 -1.1225
   84SAPS  H11Y 7990   6.696   5.013   9.542  1.4500 -1.6449 -0.0236
   84SAPS  C312 7991   6.529   5.071   9.416 -0.7080  0.4453 -0.6827
   84SAPS  H12X 7992   6.494   5.157   9.476 -1.5194 -0.3713  0.0533
   84SAPS  H12Y 7993   6.438   5.028   9.367 -0.8729 -0.7893  0.6268
   84SAPS  C313 7994   6.621   5.123   9.301  0.4535 -0.1295  0.4401
   84SAPS  H13X 7995   6.726   5.095   9.322  1.5341  3.7874  1.1769
   84SAPS  H13Y 7996   6.634   5.234   9.305  1.1056 -0.2115  0.8039
   84SAPS  C314 7997   6.588   5.079   9.156 -0.5578 -0.2824  0.1144
   84SAPS  H14X 7998   6.486   5.114   9.130 -1.4073 -3.5940 -1.5723
   84SAPS  H14Y 7999   6.593   4.969   9.166  0.9145 -0.1628  0.9673
   84SAPS  C315 8000   6.685   5.115   9.046 -0.2268 -0.6542  0.4499
   84SAPS  H15X 8001   6.791   5.097   9.072  0.4529  1.2731 -0.7109
   84SAPS  H15Y 8002   6.677   5.225   9.026  1.9288 -0.4825  0.2505
   84SAPS  C316 8003   6.653   5.039   8.912 -0.5099 -0.7680 -0.1868
   84SAPS  H16X 8004   6.552   5.073   8.881  0.2325  2.7649  0.8291
   84SAPS  H16Y 8005   6.653   4.930   8.931 -3.5513 -0.6111  1.3453
   84SAPS  C317 8006   6.754   5.079   8.802 -1.5149  0.5243 -0.2467
   84SAPS  H17X 8007   6.852   5.047   8.842 -2.4863 -2.2902  0.1033
   84SAPS  H17Y 8008   6.753   5.189   8.785  1.8424  0.4799 -1.4256
   84SAPS  C318 8009   6.740   5.001   8.670 -0.8837  0.0762  0.0961
   84SAPS  H18X 8010   6.636   5.010   8.631 -0.8027  2.0640  0.2286
   84SAPS  H18Y 8011   6.755   4.893   8.689 -1.2722  0.0538  0.2962
   84SAPS  H18Z 8012   6.814   5.038   8.596 -1.3795 -1.4160 -1.1953
   85SAPS     N 8013   3.926   0.318  11.262  0.3438  0.7002 -0.7999
   85SAPS   HN1 8014   3.974   0.265  11.187 -0.6210  0.8870 -1.5606
   85SAPS   HN2 8015   3.915   0.414  11.225  1.5896  1.3234  0.3316
   85SAPS   HN3 8016   3.991   0.331  11.342  0.5327 -1.3279 -0.5679
   85SAPS   C12 8017   3.792   0.258  11.295  0.2523  0.5956 -0.3954
   85SAPS  H12A 8018   3.815   0.169  11.351  1.5839  0.3817 -1.2354
   85SAPS   C13 8019   3.704   0.337  11.389 -0.7603  0.1613 -0.5353
   85SAPS  O13A 8020   3.733   0.450  11.427  0.2784 -0.6108  0.8405
   85SAPS  O13B 8021   3.587   0.292  11.411 -0.6634  0.1912  0.6374
   85SAPS   C11 8022   3.721   0.229  11.163  0.7001  0.9425 -0.1903
   85SAPS  H11A 8023   3.725   0.319  11.097  0.8689 -0.2562 -1.8663
   85SAPS  H11B 8024   3.614   0.207  11.185  0.6891  1.0512 -0.1326
   85SAPS     P 8025   3.865   0.136  10.960  0.4435  0.2103  0.0602
   85SAPS   O13 8026   3.984   0.223  10.982  0.7074 -0.2413  0.3438
   85SAPS   O14 8027   3.893   0.002  10.907 -0.3287  0.1278  0.1129
   85SAPS   O12 8028   3.781   0.114  11.091 -0.1271  0.0404 -0.6141
   85SAPS   O11 8029   3.759   0.213  10.873 -0.7267 -0.2969 -0.2611
   85SAPS    C1 8030   3.632   0.157  10.840  0.1101 -0.2566 -0.8130
   85SAPS    HA 8031   3.591   0.104  10.929  1.1627  1.1297  0.5590
   85SAPS    HB 8032   3.568   0.243  10.812 -0.5506 -0.0299  1.2218
   85SAPS    C2 8033   3.638   0.052  10.729  0.2518  0.4347  0.1951
   85SAPS    HS 8034   3.691  -0.043  10.753 -1.6569 -1.3095 -2.0988
   85SAPS   O21 8035   3.690   0.125  10.621  0.5001 -0.3133  0.9882
   85SAPS   C21 8036   3.769   0.048  10.538 -0.2986 -0.2456  0.6803
   85SAPS   O22 8037   3.818  -0.056  10.575 -0.1290  0.1908  0.8249
   85SAPS   C22 8038   3.793   0.123  10.405  0.9619  0.5526 -0.3586
   85SAPS   H2R 8039   3.757   0.228  10.415  1.4442  0.7123 -0.2868
   85SAPS   H2S 8040   3.903   0.129  10.390  1.1062  0.6441  0.6766
   85SAPS    C3 8041   3.500  -0.005  10.683  0.5594 -0.2266 -0.1316
   85SAPS    HX 8042   3.434   0.084  10.671  1.8073  0.9514  1.3384
   85SAPS    HY 8043   3.471  -0.084  10.756  0.3575 -0.0245  0.0054
   85SAPS   O31 8044   3.517  -0.072  10.559  0.0669 -0.0543 -0.1860
   85SAPS   C31 8045   3.398  -0.124  10.503 -0.1896  0.2463 -0.5922
   85SAPS   O32 8046   3.288  -0.107  10.554 -0.1109  0.7960  0.5560
   85SAPS   C32 8047   3.427  -0.195  10.379 -0.7928 -0.3535  0.1435
   85SAPS   H2X 8048   3.525  -0.247  10.379  0.2319  1.4868  1.2040
   85SAPS   H2Y 8049   3.441  -0.120  10.299 -1.3517 -0.7599 -0.3435
   85SAPS   C23 8050   3.704   0.060  10.290 -0.3770  0.3007  0.5516
   85SAPS   H3R 8051   3.665   0.144  10.229 -1.5516  0.9473  2.1138
   85SAPS   H3S 8052   3.618   0.005  10.334  0.5633 -1.3434  0.4154
   85SAPS   C24 8053   3.784  -0.037  10.207  0.9706 -0.2506 -0.0498
   85SAPS   H4R 8054   3.852  -0.103  10.264  2.0923  0.1077 -0.9349
   85SAPS   H4S 8055   3.855   0.026  10.149  1.2598 -0.2560  0.2942
   85SAPS   C25 8056   3.686  -0.106  10.113  0.7356 -0.5897 -0.3120
   85SAPS   H5R 8057   3.603  -0.148  10.170  0.8345 -0.7766 -0.3034
   85SAPS   C26 8058   3.687  -0.107   9.977 -0.1375 -0.1400  0.0593
   85SAPS   H6R 8059   3.611  -0.166   9.923 -1.3044  0.2731  1.2120
   85SAPS   C27 8060   3.792  -0.041   9.889 -0.1574  0.7276  0.2130
   85SAPS   H7R 8061   3.866  -0.120   9.863 -1.3552 -0.1104 -0.7890
   85SAPS   H7S 8062   3.834   0.044   9.946  0.5352 -0.4429  1.5063
   85SAPS   C28 8063   3.722   0.017   9.773 -0.1317 -0.0155 -0.2481
   85SAPS   H8R 8064   3.665   0.106   9.803  0.5562 -0.8644  4.2771
   85SAPS   C29 8065   3.716  -0.032   9.649 -0.0608  1.0310  1.2958
   85SAPS   H9R 8066   3.660   0.028   9.576  2.1559  1.4920 -0.1395
   85SAPS  C210 8067   3.786  -0.156   9.605 -0.4200  0.3112 -0.7073
   85SAPS  H10R 8068   3.867  -0.186   9.675 -0.5826  2.6793  0.5968
   85SAPS  H10S 8069   3.851  -0.127   9.520 -0.5857  1.4991 -0.4434
   85SAPS  C211 8070   3.688  -0.270   9.574 -0.9325 -0.1367  0.0016
   85SAPS  H11R 8071   3.664  -0.323   9.668 -1.5525  0.6698  0.3093
   85SAPS  C212 8072   3.632  -0.296   9.455 -0.2768 -0.4330 -0.7986
   85SAPS  H12R 8073   3.570  -0.387   9.445  0.7126 -1.2586  0.2089
   85SAPS  C213 8074   3.654  -0.224   9.323  0.5595 -0.4973  0.8387
   85SAPS  H13R 8075   3.612  -0.288   9.243  0.4306  0.2391  0.3120
   85SAPS  H13S 8076   3.764  -0.214   9.313  0.5084 -0.7045 -0.0163
   85SAPS  C214 8077   3.588  -0.082   9.322 -0.1319  0.2780 -0.3381
   85SAPS  H14R 8078   3.546  -0.046   9.417  1.0278  2.2232 -0.5126
   85SAPS  C215 8079   3.576  -0.002   9.213  0.0109 -0.3616 -0.2035
   85SAPS  H15R 8080   3.537   0.099   9.229  0.9068 -0.2177  1.2507
   85SAPS  C216 8081   3.632  -0.031   9.079  0.1785  0.6891 -0.2474
   85SAPS  H16R 8082   3.697  -0.121   9.079  0.3736  0.8245 -0.7572
   85SAPS  H16S 8083   3.689   0.059   9.049 -3.4148  3.6091  0.9303
   85SAPS  C217 8084   3.526  -0.067   8.968 -0.6925 -0.0648 -0.0581
   85SAPS  H17R 8085   3.458   0.019   8.950 -0.3676  0.1018 -0.5032
   85SAPS  H17S 8086   3.462  -0.151   9.003 -0.7150  0.7358  1.9100
   85SAPS  C218 8087   3.592  -0.111   8.840 -0.7089  0.0366  0.3469
   85SAPS  H18R 8088   3.647  -0.204   8.863 -2.8605 -1.0244  1.4780
   85SAPS  H18S 8089   3.669  -0.034   8.814 -0.0158 -0.8941 -0.4043
   85SAPS  C219 8090   3.488  -0.132   8.728 -0.9347  0.3531 -0.4077
   85SAPS  H19R 8091   3.452  -0.036   8.687 -0.7534  0.5285 -0.1608
   85SAPS  H19S 8092   3.394  -0.174   8.771 -0.1310 -0.1357  0.9523
   85SAPS  C220 8093   3.538  -0.231   8.615  0.7697 -0.4560  0.2577
   85SAPS  H20R 8094   3.459  -0.248   8.538  0.1857  0.5070  0.6243
   85SAPS  H20S 8095   3.575  -0.326   8.659 -1.7575 -1.6844 -0.0813
   85SAPS  H20T 8096   3.628  -0.181   8.573 -0.9635  2.5139 -0.1919
   85SAPS   C33 8097   3.316  -0.298  10.353 -0.0133 -0.3075 -0.4893
   85SAPS   H3X 8098   3.219  -0.247  10.372  0.4164  1.1217 -1.9298
   85SAPS   H3Y 8099   3.313  -0.388  10.419  1.5322 -0.9458 -1.2514
   85SAPS   C34 8100   3.298  -0.345  10.203  0.0255 -0.6102  0.1363
   85SAPS   H4X 8101   3.275  -0.261  10.134  2.1025 -0.1138 -0.0266
   85SAPS   H4Y 8102   3.216  -0.419  10.190 -2.2463  1.8548 -0.5395
   85SAPS   C35 8103   3.419  -0.408  10.140 -0.5009  0.2199 -0.0247
   85SAPS   H5X 8104   3.444  -0.496  10.203  0.7465 -0.3701 -1.2871
   85SAPS   H5Y 8105   3.501  -0.333  10.147 -0.1161 -0.3361  1.6127
   85SAPS   C36 8106   3.389  -0.443   9.995  0.4917 -0.6684  0.7635
   85SAPS   H6X 8107   3.492  -0.445   9.953  0.1699  0.6833 -0.1594
   85SAPS   H6Y 8108   3.343  -0.356   9.944 -1.6669 -2.8442 -1.1809
   85SAPS   C37 8109   3.321  -0.573   9.975  0.5690 -0.1513  0.1189
   85SAPS   H7X 8110   3.216  -0.572  10.011  0.5910 -0.6772  0.1996
   85SAPS   H7Y 8111   3.370  -0.648  10.040  0.6419  0.7906  1.1787
   85SAPS   C38 8112   3.318  -0.613   9.825 -0.0950  0.1951  0.3915
   85SAPS   H8X 8113   3.296  -0.721   9.838 -0.9789  0.5844  2.7939
   85SAPS   H8Y 8114   3.420  -0.592   9.787  0.3672  0.7696  1.8542
   85SAPS   C39 8115   3.198  -0.552   9.745 -0.2910 -0.0798 -0.2496
   85SAPS   H9X 8116   3.206  -0.442   9.759 -1.9123  0.1543 -0.9681
   85SAPS   H9Y 8117   3.102  -0.588   9.786 -0.1955 -3.1005 -2.3432
   85SAPS  C310 8118   3.215  -0.584   9.593  0.4851 -0.0458 -0.0961
   85SAPS  H10X 8119   3.137  -0.652   9.552 -0.4072  0.3219  0.9489
   85SAPS  H10Y 8120   3.313  -0.632   9.572  1.3865  1.4177  0.6586
   85SAPS  C311 8121   3.208  -0.461   9.506 -0.1601 -0.3681  0.0277
   85SAPS  H11X 8122   3.269  -0.378   9.549 -0.1707 -0.3434 -0.0045
   85SAPS  H11Y 8123   3.103  -0.424   9.509 -0.0706 -0.2000  1.4806
   85SAPS  C312 8124   3.237  -0.485   9.360  0.5775  0.1609  0.5683
   85SAPS  H12X 8125   3.165  -0.561   9.321  1.1136  0.7891 -1.8055
   85SAPS  H12Y 8126   3.331  -0.540   9.339  1.6369  1.8820  0.7129
   85SAPS  C313 8127   3.247  -0.362   9.274 -0.5937 -0.1381 -0.3953
   85SAPS  H13X 8128   3.325  -0.304   9.328 -1.3606  1.2217 -0.7106
   85SAPS  H13Y 8129   3.157  -0.297   9.285  0.5218  1.7074 -1.5775
   85SAPS  C314 8130   3.275  -0.394   9.128  0.6006  0.4202  0.8291
   85SAPS  H14X 8131   3.295  -0.296   9.078 -1.0812  0.0628 -0.6939
   85SAPS  H14Y 8132   3.189  -0.443   9.077  0.4109  0.4848  1.0812
   85SAPS  C315 8133   3.407  -0.474   9.096  0.1322  0.2944  1.1829
   85SAPS  H15X 8134   3.397  -0.580   9.127 -2.3583 -0.0435 -0.5117
   85SAPS  H15Y 8135   3.494  -0.426   9.147  1.3551 -0.3493 -0.2225
   85SAPS  C316 8136   3.439  -0.479   8.944 -0.4283 -0.7528  0.1756
   85SAPS  H16X 8137   3.495  -0.389   8.911 -2.8925  0.1253 -1.8732
   85SAPS  H16Y 8138   3.349  -0.488   8.880  1.4381 -0.0426 -2.7620
   85SAPS  C317 8139   3.525  -0.604   8.924 -0.1888  0.1442  0.3758
   85SAPS  H17X 8140   3.454  -0.687   8.902 -0.8660  0.6539  0.5975
   85SAPS  H17Y 8141   3.579  -0.625   9.018  0.2566  2.6603  0.7315
   85SAPS  C318 8142   3.628  -0.600   8.809 -0.6409 -0.6168 -0.3956
   85SAPS  H18X 8143   3.682  -0.504   8.818 -0.3132 -0.4287 -3.3642
   85SAPS  H18Y 8144   3.570  -0.601   8.714 -1.7423 -0.2712  0.2467
   85SAPS  H18Z 8145   3.690  -0.691   8.800 -2.0089 -1.9725  2.5269
   86SAPS     N 8146   4.377   0.717  10.840 -0.4704 -0.8722  0.0366
   86SAPS   HN1 8147   4.324   0.794  10.793 -0.7801 -1.0674  0.0670
   86SAPS   HN2 8148   4.478   0.742  10.834 -0.6868 -0.1559 -1.0812
   86SAPS   HN3 8149   4.362   0.622  10.802  0.3058 -1.4618  1.1723
   86SAPS   C12 8150   4.347   0.717  10.991 -0.1337  0.2779  0.1184
   86SAPS  H12A 8151   4.388   0.808  11.033  0.0549 -1.4029  4.0021
   86SAPS   C13 8152   4.194   0.696  11.026  0.4456 -0.4052 -0.8741
   86SAPS  O13A 8153   4.105   0.683  10.934 -0.2194  0.2143 -0.1260
   86SAPS  O13B 8154   4.164   0.718  11.144  0.2263 -0.1668  0.0862
   86SAPS   C11 8155   4.420   0.596  11.048 -0.4248 -0.4685  0.3973
   86SAPS  H11A 8156   4.380   0.509  10.992 -1.0152  0.4290 -0.6330
   86SAPS  H11B 8157   4.387   0.580  11.152 -0.1479 -0.5518  0.4731
   86SAPS     P 8158   4.650   0.481  11.066 -0.0214  0.0740  0.1451
   86SAPS   O13 8159   4.783   0.532  11.113 -0.2558  0.0490  0.0604
   86SAPS   O14 8160   4.568   0.393  11.150 -0.0005  0.4854 -0.3964
   86SAPS   O12 8161   4.556   0.608  11.027 -0.0896 -0.1012 -0.0424
   86SAPS   O11 8162   4.677   0.400  10.934  0.5386  0.2492  0.3373
   86SAPS    C1 8163   4.772   0.453  10.841 -0.1682 -0.4679 -0.0804
   86SAPS    HA 8164   4.818   0.550  10.869  0.6386 -0.8059 -0.2265
   86SAPS    HB 8165   4.858   0.384  10.850 -0.8020 -1.0222  2.6392
   86SAPS    C2 8166   4.712   0.469  10.698  0.0482  0.1365  0.1374
   86SAPS    HS 8167   4.656   0.564  10.704  1.1520  0.7644  1.1496
   86SAPS   O21 8168   4.628   0.362  10.658 -0.3304 -0.0190  0.1928
   86SAPS   C21 8169   4.498   0.385  10.661  0.4755 -0.7498  0.9258
   86SAPS   O22 8170   4.447   0.496  10.677  0.7987 -0.2987 -0.1755
   86SAPS   C22 8171   4.428   0.270  10.595 -0.9438 -0.5289  0.1481
   86SAPS   H2R 8172   4.417   0.188  10.669  2.6652 -1.5722 -0.2443
   86SAPS   H2S 8173   4.327   0.313  10.580 -1.4418 -1.7547 -0.1727
   86SAPS    C3 8174   4.827   0.503  10.601  0.4914 -0.1584  0.9732
   86SAPS    HX 8175   4.883   0.407  10.593 -1.8256 -1.7490  2.3994
   86SAPS    HY 8176   4.897   0.580  10.638 -0.6878 -0.2705  3.7128
   86SAPS   O31 8177   4.774   0.545  10.478  0.7279  0.9187  0.1901
   86SAPS   C31 8178   4.783   0.462  10.374  0.2324  0.2732 -0.3628
   86SAPS   O32 8179   4.835   0.352  10.375  0.1604 -0.0981 -0.0103
   86SAPS   C32 8180   4.726   0.541  10.251  0.3451  0.3566 -0.0539
   86SAPS   H2X 8181   4.784   0.635  10.234  1.4272 -0.2034  0.4214
   86SAPS   H2Y 8182   4.631   0.597  10.262 -0.4019 -0.1692 -2.9648
   86SAPS   C23 8183   4.494   0.212  10.467 -0.8370 -0.8251 -0.6790
   86SAPS   H3R 8184   4.577   0.140  10.486 -0.7548 -0.1741  1.6564
   86SAPS   H3S 8185   4.518   0.299  10.402 -2.5569 -0.7152 -1.2101
   86SAPS   C24 8186   4.387   0.134  10.384  0.6804  1.0447 -0.5195
   86SAPS   H4R 8187   4.288   0.181  10.365  0.2567  0.5131  0.2526
   86SAPS   H4S 8188   4.375   0.046  10.451  1.4377  2.5002  1.6242
   86SAPS   C25 8189   4.445   0.092  10.254  0.1078 -0.1258 -0.0180
   86SAPS   H5R 8190   4.529   0.020  10.261 -1.0452 -1.8415 -2.4655
   86SAPS   C26 8191   4.408   0.135  10.130  0.3951 -0.0668  0.1020
   86SAPS   H6R 8192   4.478   0.126  10.045 -0.4861 -0.9095 -0.5634
   86SAPS   C27 8193   4.294   0.244  10.100 -0.0300  0.0469 -0.0714
   86SAPS   H7R 8194   4.330   0.334  10.047 -0.6074  1.5629  1.9897
   86SAPS   H7S 8195   4.250   0.290  10.191  0.3601 -0.6809  0.5051
   86SAPS   C28 8196   4.179   0.170  10.022  0.0505  0.2582  0.0992
   86SAPS   H8R 8197   4.111   0.114  10.087  1.6777 -1.8057  0.1239
   86SAPS   C29 8198   4.152   0.186   9.891  0.8925  0.1601  0.8305
   86SAPS   H9R 8199   4.063   0.133   9.853 -0.0446  2.1631  0.1081
   86SAPS  C210 8200   4.231   0.264   9.784  0.4263  0.2148 -0.7307
   86SAPS  H10R 8201   4.254   0.197   9.699 -2.1282 -1.9742  0.1493
   86SAPS  H10S 8202   4.329   0.294   9.828  0.8807 -0.6595 -1.1279
   86SAPS  C211 8203   4.152   0.382   9.733 -1.0186 -0.0339 -0.4847
   86SAPS  H11R 8204   4.149   0.463   9.807  0.6583  0.6640 -1.1117
   86SAPS  C212 8205   4.080   0.395   9.625  0.0807 -0.1373  0.4980
   86SAPS  H12R 8206   4.047   0.499   9.607 -0.9891  0.0050  2.9589
   86SAPS  C213 8207   4.059   0.293   9.515  0.0435  0.6875 -0.2584
   86SAPS  H13R 8208   4.115   0.197   9.528 -0.1765  0.5452 -0.3491
   86SAPS  H13S 8209   4.117   0.341   9.433  0.6289 -0.7463 -0.7252
   86SAPS  C214 8210   3.919   0.257   9.480  0.4162 -0.5358 -0.0858
   86SAPS  H14R 8211   3.853   0.212   9.555 -3.8956 -0.5292 -3.4879
   86SAPS  C215 8212   3.865   0.279   9.357  0.6083  0.7440  0.1326
   86SAPS  H15R 8213   3.759   0.252   9.348  0.8534 -0.0198 -0.6945
   86SAPS  C216 8214   3.931   0.319   9.235 -0.3305 -0.0145  0.3704
   86SAPS  H16R 8215   3.888   0.265   9.149  0.7909 -1.2375  0.5561
   86SAPS  H16S 8216   4.039   0.293   9.240 -0.9369 -2.6959  4.1328
   86SAPS  C217 8217   3.912   0.473   9.231  0.2709  0.2369  0.6989
   86SAPS  H17R 8218   3.974   0.518   9.151 -2.6938  1.8960 -0.8403
   86SAPS  H17S 8219   3.934   0.525   9.326 -0.1861  0.4118  0.7098
   86SAPS  C218 8220   3.773   0.519   9.194  0.7476  0.2183  0.3128
   86SAPS  H18R 8221   3.773   0.629   9.182 -2.7797  0.2357 -0.8387
   86SAPS  H18S 8222   3.697   0.494   9.272 -1.2924  2.5057 -0.8119
   86SAPS  C219 8223   3.706   0.458   9.064  0.3801  0.3625 -0.0106
   86SAPS  H19R 8224   3.608   0.511   9.064  0.6524  0.8747  0.4420
   86SAPS  H19S 8225   3.694   0.349   9.084  0.0948  0.7035  1.8936
   86SAPS  C220 8226   3.791   0.459   8.941 -0.4126  0.2013  0.1187
   86SAPS  H20R 8227   3.749   0.399   8.857 -0.2772  1.4919 -0.9039
   86SAPS  H20S 8228   3.886   0.410   8.972 -0.7413  0.4109  1.5433
   86SAPS  H20T 8229   3.808   0.557   8.892  0.6049  0.6810  1.3859
   86SAPS   C33 8230   4.705   0.456  10.122  0.2916 -1.0958 -0.5783
   86SAPS   H3X 8231   4.627   0.377  10.128  0.3770 -1.3226 -2.1498
   86SAPS   H3Y 8232   4.802   0.407  10.100  1.5350  1.2222 -0.5680
   86SAPS   C34 8233   4.672   0.552  10.008  0.5531  0.0538  0.0381
   86SAPS   H4X 8234   4.752   0.626   9.987  1.8710 -1.3654 -0.0601
   86SAPS   H4Y 8235   4.576   0.603  10.031  1.2832  0.9760  1.1942
   86SAPS   C35 8236   4.639   0.465   9.887 -0.3651 -1.0201  0.1920
   86SAPS   H5X 8237   4.550   0.403   9.909 -0.0854 -1.2511  0.6855
   86SAPS   H5Y 8238   4.731   0.405   9.871  1.5824  1.4424  1.2640
   86SAPS   C36 8239   4.609   0.554   9.762  0.2390  0.5487 -0.2243
   86SAPS   H6X 8240   4.701   0.612   9.738  0.5071  1.2224  2.1380
   86SAPS   H6Y 8241   4.530   0.630   9.783  0.9042  0.7401  1.8661
   86SAPS   C37 8242   4.578   0.471   9.641  0.0163 -0.0602 -0.1415
   86SAPS   H7X 8243   4.503   0.390   9.658 -0.0619 -0.1908 -1.0449
   86SAPS   H7Y 8244   4.670   0.424   9.600 -0.0338  1.8082 -2.6338
   86SAPS   C38 8245   4.507   0.545   9.527 -0.2899 -0.5205  0.2669
   86SAPS   H8X 8246   4.565   0.632   9.489 -0.1463 -1.3434 -1.5084
   86SAPS   H8Y 8247   4.416   0.585   9.577 -1.2799 -0.8766 -1.1855
   86SAPS   C39 8248   4.466   0.454   9.417  0.1354  0.2190  0.5739
   86SAPS   H9X 8249   4.391   0.379   9.451  0.9328 -0.5297  0.7205
   86SAPS   H9Y 8250   4.555   0.395   9.387 -0.8795 -1.3147  0.4725
   86SAPS  C310 8251   4.408   0.526   9.295 -0.1532  0.5822  0.5693
   86SAPS  H10X 8252   4.472   0.610   9.261 -0.7177 -0.0962 -2.4761
   86SAPS  H10Y 8253   4.315   0.577   9.327  0.6124  1.9819  0.6356
   86SAPS  C311 8254   4.375   0.433   9.181  0.5057 -0.8975  0.9391
   86SAPS  H11X 8255   4.293   0.365   9.211  1.6232 -2.5775  0.3443
   86SAPS  H11Y 8256   4.470   0.382   9.153  0.6521 -1.3218  2.1247
   86SAPS  C312 8257   4.316   0.509   9.062 -0.1683  0.3612 -0.0494
   86SAPS  H12X 8258   4.389   0.589   9.036 -1.1718  1.0476 -0.8481
   86SAPS  H12Y 8259   4.221   0.553   9.098  1.0900  2.2880  1.0981
   86SAPS  C313 8260   4.273   0.417   8.948 -0.7886  0.1922 -0.1617
   86SAPS  H13X 8261   4.171   0.380   8.972  0.0118 -1.3666  0.9981
   86SAPS  H13Y 8262   4.329   0.321   8.952  1.0451  1.1494 -1.3247
   86SAPS  C314 8263   4.255   0.478   8.810 -0.1892 -0.5593  0.1115
   86SAPS  H14X 8264   4.213   0.404   8.739 -1.6913 -0.5984  1.0021
   86SAPS  H14Y 8265   4.355   0.514   8.777 -0.0734  0.5495  1.5887
   86SAPS  C315 8266   4.166   0.607   8.813  0.4498 -0.2135 -0.4141
   86SAPS  H15X 8267   4.218   0.701   8.840  1.5738 -1.0475  0.4691
   86SAPS  H15Y 8268   4.082   0.586   8.884  0.0295 -0.5804 -1.0143
   86SAPS  C316 8269   4.095   0.634   8.682 -0.1739  0.6094 -0.0085
   86SAPS  H16X 8270   4.040   0.543   8.650 -1.0976  0.9767  0.5058
   86SAPS  H16Y 8271   4.170   0.662   8.605  0.2405 -0.6784 -0.0956
   86SAPS  C317 8272   3.992   0.744   8.687  0.3444 -0.1747 -0.5364
   86SAPS  H17X 8273   4.043   0.843   8.677 -0.2584  0.1190 -0.7814
   86SAPS  H17Y 8274   3.945   0.742   8.788 -3.4606  0.1131 -2.1162
   86SAPS  C318 8275   3.891   0.734   8.572  0.3132 -0.8918  0.2423
   86SAPS  H18X 8276   3.956   0.715   8.484  3.3769 -0.8890  2.3293
   86SAPS  H18Y 8277   3.825   0.823   8.578  1.3378 -0.1596  1.4144
   86SAPS  H18Z 8278   3.826   0.647   8.595 -2.2814  1.2162  1.3869
   87SAPS     N 8279   5.508   1.582  11.193  0.2147 -0.4026 -0.0194
   87SAPS   HN1 8280   5.539   1.512  11.263  1.1205 -1.1276 -1.1073
   87SAPS   HN2 8281   5.420   1.625  11.227 -0.8516 -0.4572 -2.4936
   87SAPS   HN3 8282   5.488   1.529  11.106  0.5113  0.3357 -0.5535
   87SAPS   C12 8283   5.611   1.684  11.173  0.1623 -1.2288  0.5559
   87SAPS  H12A 8284   5.609   1.755  11.254  0.5481  0.7523 -1.0782
   87SAPS   C13 8285   5.748   1.627  11.157 -1.1563  0.4667  0.2883
   87SAPS  O13A 8286   5.769   1.502  11.173  0.5152  0.1019 -0.4995
   87SAPS  O13B 8287   5.847   1.706  11.139 -0.1639  0.3892  0.8627
   87SAPS   C11 8288   5.578   1.764  11.043 -0.3422  0.8299 -0.1890
   87SAPS  H11A 8289   5.588   1.695  10.956 -3.3467  0.3319 -0.2346
   87SAPS  H11B 8290   5.666   1.833  11.041  1.2478 -1.1008 -0.2927
   87SAPS     P 8291   5.427   1.961  10.962  0.3956 -0.4326  0.2113
   87SAPS   O13 8292   5.325   2.039  11.035  0.0063 -0.2432 -0.2364
   87SAPS   O14 8293   5.554   2.030  10.934  0.2442 -0.5493 -0.0229
   87SAPS   O12 8294   5.445   1.827  11.040  0.2160  0.2760 -0.0696
   87SAPS   O11 8295   5.357   1.915  10.825  0.1925 -0.5540  0.2555
   87SAPS    C1 8296   5.344   1.783  10.780  0.1494  0.2429 -0.0920
   87SAPS    HA 8297   5.443   1.737  10.757 -0.8119 -1.6824 -0.6180
   87SAPS    HB 8298   5.296   1.728  10.864  0.7437  1.8536  1.3573
   87SAPS    C2 8299   5.262   1.795  10.642  0.0802  0.3854 -0.4098
   87SAPS    HS 8300   5.234   1.693  10.608  0.0487 -0.2557  1.4352
   87SAPS   O21 8301   5.340   1.857  10.535 -0.1120 -0.0539  0.3541
   87SAPS   C21 8302   5.425   1.783  10.462 -0.8469  0.1085 -0.1758
   87SAPS   O22 8303   5.441   1.664  10.475 -0.2235 -0.0615 -1.0137
   87SAPS   C22 8304   5.510   1.873  10.376 -0.5417  0.4489  0.4407
   87SAPS   H2R 8305   5.455   1.934  10.301  0.0251  0.9145  0.3976
   87SAPS   H2S 8306   5.577   1.937  10.438 -1.7224 -0.1343  2.3990
   87SAPS    C3 8307   5.119   1.857  10.659 -0.0013  0.0596  0.1066
   87SAPS    HX 8308   5.127   1.946  10.725 -3.6333  0.0704  0.7541
   87SAPS    HY 8309   5.051   1.784  10.707 -1.0526  0.8324 -0.1714
   87SAPS   O31 8310   5.065   1.888  10.529 -0.0287  0.7872 -0.2665
   87SAPS   C31 8311   5.086   2.012  10.488  0.7122 -0.6019 -0.1903
   87SAPS   O32 8312   5.146   2.099  10.547  0.3980  0.1030 -0.5266
   87SAPS   C32 8313   4.991   2.049  10.367  0.2666 -0.0165 -0.6362
   87SAPS   H2X 8314   5.042   2.123  10.302 -0.6479  1.7484  0.5434
   87SAPS   H2Y 8315   4.907   2.103  10.417 -0.4921 -0.5721 -1.2968
   87SAPS   C23 8316   5.611   1.784  10.299 -0.8885 -0.7046  0.2810
   87SAPS   H3R 8317   5.553   1.712  10.237 -2.1054 -0.5967  1.2537
   87SAPS   H3S 8318   5.677   1.736  10.375 -0.6027  0.2103  0.6174
   87SAPS   C24 8319   5.701   1.871  10.204 -0.0436 -0.1389 -0.4536
   87SAPS   H4R 8320   5.767   1.803  10.145  3.1273  1.6237  0.8312
   87SAPS   H4S 8321   5.747   1.941  10.276 -5.2998 -0.0582  3.4291
   87SAPS   C25 8322   5.625   1.951  10.102  0.0500 -0.0371 -0.2845
   87SAPS   H5R 8323   5.557   2.029  10.140 -1.0397 -1.1579  0.1497
   87SAPS   C26 8324   5.625   1.940   9.968  0.4191 -0.3807 -0.5438
   87SAPS   H6R 8325   5.563   2.009   9.909 -0.0233 -1.0018 -0.8236
   87SAPS   C27 8326   5.702   1.850   9.874 -0.0430  0.0949 -0.7842
   87SAPS   H7R 8327   5.642   1.766   9.833  0.2393 -0.0027 -1.0061
   87SAPS   H7S 8328   5.778   1.792   9.931 -0.9614 -0.9599 -0.5994
   87SAPS   C28 8329   5.772   1.930   9.778  0.0312  0.2580  0.1556
   87SAPS   H8R 8330   5.865   1.960   9.828  0.1757  1.3457 -0.7322
   87SAPS   C29 8331   5.741   1.968   9.650 -0.0462  0.5091  0.4635
   87SAPS   H9R 8332   5.799   2.045   9.596  0.3581  0.5388  0.9302
   87SAPS  C210 8333   5.615   1.924   9.583 -0.5838  0.2024  0.9151
   87SAPS  H10R 8334   5.534   1.995   9.613 -0.3800  1.8388 -2.0323
   87SAPS  H10S 8335   5.586   1.819   9.607  0.7586 -0.3054  0.3838
   87SAPS  C211 8336   5.630   1.925   9.434  0.4212 -0.1374  0.1765
   87SAPS  H11R 8337   5.708   1.989   9.389  0.6009 -0.9831 -0.7616
   87SAPS  C212 8338   5.549   1.858   9.354  0.3155 -0.1649 -0.2218
   87SAPS  H12R 8339   5.579   1.851   9.248 -1.1639  0.9074 -0.7437
   87SAPS  C213 8340   5.426   1.779   9.402 -0.5015 -0.1409  0.0506
   87SAPS  H13R 8341   5.364   1.833   9.475 -0.7347  1.7701 -1.4917
   87SAPS  H13S 8342   5.473   1.695   9.458 -1.0978  0.4298  1.4452
   87SAPS  C214 8343   5.340   1.722   9.298  0.3205 -0.3313 -1.0501
   87SAPS  H14R 8344   5.337   1.613   9.287  1.3114 -0.4314 -0.4641
   87SAPS  C215 8345   5.252   1.783   9.216  0.0079  0.1345 -0.2013
   87SAPS  H15R 8346   5.193   1.725   9.143  1.3042 -0.3166 -0.9163
   87SAPS  C216 8347   5.234   1.929   9.211  0.3965  0.1807 -0.0283
   87SAPS  H16R 8348   5.287   1.986   9.131 -0.3824 -0.6240 -1.1534
   87SAPS  H16S 8349   5.263   1.979   9.306 -1.3437  0.9850  0.1171
   87SAPS  C217 8350   5.088   1.983   9.196 -0.7057  0.5929  0.0947
   87SAPS  H17R 8351   5.090   2.085   9.239 -0.6937  1.6031 -2.1613
   87SAPS  H17S 8352   5.027   1.914   9.259  1.4574  0.7196  2.4779
   87SAPS  C218 8353   5.028   1.978   9.057  0.6572  0.2013  0.5706
   87SAPS  H18R 8354   4.918   1.993   9.062  0.7073  0.8312 -0.0418
   87SAPS  H18S 8355   5.043   1.875   9.018 -1.2294  0.8449 -2.0964
   87SAPS  C219 8356   5.084   2.087   8.960  0.3197  0.0277  0.2839
   87SAPS  H19R 8357   5.192   2.061   8.956  0.0951 -0.9904  0.6020
   87SAPS  H19S 8358   5.073   2.190   9.001 -0.5455 -0.9729  2.6962
   87SAPS  C220 8359   5.026   2.076   8.815 -0.3566  0.6282  0.5231
   87SAPS  H20R 8360   4.920   2.105   8.800 -0.3952  0.2685  0.0642
   87SAPS  H20S 8361   5.046   1.973   8.776 -1.0646  0.5196  0.4345
   87SAPS  H20T 8362   5.089   2.138   8.748 -0.9735 -1.2026 -1.8811
   87SAPS   C33 8363   4.935   1.929  10.291 -0.3602  0.5404 -0.3956
   87SAPS   H3X 8364   4.846   1.950  10.228 -2.1395 -1.6032  1.2278
   87SAPS   H3Y 8365   4.909   1.848  10.363  0.3312  0.8224  0.1917
   87SAPS   C34 8366   5.042   1.865  10.191  0.0467 -0.7799 -0.6499
   87SAPS   H4X 8367   5.025   1.758  10.163  4.7019 -2.0129  0.4649
   87SAPS   H4Y 8368   5.131   1.879  10.256 -1.6887 -2.5060  2.3331
   87SAPS   C35 8369   5.065   1.952  10.065  0.5060  0.9317  0.4412
   87SAPS   H5X 8370   5.163   1.909  10.036  0.2737  1.3828 -1.0845
   87SAPS   H5Y 8371   5.080   2.061  10.084 -0.6551  1.1987 -0.0806
   87SAPS   C36 8372   4.970   1.942   9.951  0.0549  0.4696 -0.2091
   87SAPS   H6X 8373   4.890   2.018   9.964  0.4391  0.9823 -0.7931
   87SAPS   H6Y 8374   4.929   1.838   9.948  0.3154  0.3766 -0.7543
   87SAPS   C37 8375   5.027   1.992   9.818  0.5709  0.2522  0.2632
   87SAPS   H7X 8376   5.118   1.936   9.786 -1.3473 -1.2770 -2.8853
   87SAPS   H7Y 8377   5.067   2.095   9.835  1.2368  0.1374 -0.5524
   87SAPS   C38 8378   4.920   2.003   9.709  0.4782 -0.2929 -0.0621
   87SAPS   H8X 8379   4.851   2.087   9.734  0.3874  0.3943 -2.3952
   87SAPS   H8Y 8380   4.862   1.908   9.707 -0.5113  0.2761  0.4540
   87SAPS   C39 8381   4.973   2.031   9.574  0.3559 -0.7101 -0.2918
   87SAPS   H9X 8382   5.020   1.941   9.530  2.2931 -0.8538  1.8624
   87SAPS   H9Y 8383   5.050   2.108   9.596  2.0445 -2.1705 -0.7849
   87SAPS  C310 8384   4.869   2.090   9.477  0.3787  0.2995 -0.2435
   87SAPS  H10X 8385   4.913   2.143   9.391  0.2794 -0.9980 -1.1195
   87SAPS  H10Y 8386   4.806   2.171   9.521 -2.3957 -0.5428 -2.4103
   87SAPS  C311 8387   4.776   1.985   9.414  0.8409 -0.7520 -0.2524
   87SAPS  H11X 8388   4.724   1.939   9.501 -0.7349  1.3493 -0.0031
   87SAPS  H11Y 8389   4.832   1.905   9.362  0.1344 -2.1753  1.0714
   87SAPS  C312 8390   4.673   2.045   9.314 -0.0871 -0.4378 -0.4087
   87SAPS  H12X 8391   4.619   1.961   9.265 -1.2765 -0.1632  0.3863
   87SAPS  H12Y 8392   4.730   2.090   9.230 -1.5987  0.9008 -0.7740
   87SAPS  C313 8393   4.576   2.153   9.367  0.0442  0.0454 -0.1502
   87SAPS  H13X 8394   4.521   2.177   9.274  0.8996  1.4436 -0.3286
   87SAPS  H13Y 8395   4.636   2.239   9.403  2.1534  0.4040 -3.9807
   87SAPS  C314 8396   4.473   2.105   9.469  0.2195  0.3380  1.1609
   87SAPS  H14X 8397   4.465   1.998   9.442 -0.2344  0.8582 -1.0213
   87SAPS  H14Y 8398   4.372   2.151   9.457  1.0012  2.0134  0.6174
   87SAPS  C315 8399   4.513   2.120   9.612 -0.0411 -0.0672  0.6592
   87SAPS  H15X 8400   4.484   2.224   9.637 -0.3630 -0.2708  1.1594
   87SAPS  H15Y 8401   4.624   2.115   9.621  0.0337 -0.0729 -0.2377
   87SAPS  C316 8402   4.453   2.020   9.709 -0.0010  0.6637 -0.8255
   87SAPS  H16X 8403   4.497   1.924   9.675  1.9742  0.6875  1.3836
   87SAPS  H16Y 8404   4.344   2.012   9.692 -0.4849  0.3064  1.9260
   87SAPS  C317 8405   4.511   2.036   9.850 -0.0267 -0.2035  0.2856
   87SAPS  H17X 8406   4.621   2.046   9.856 -0.1805  0.8794  2.2823
   87SAPS  H17Y 8407   4.477   1.957   9.921 -0.5214  0.7906  1.1827
   87SAPS  C318 8408   4.458   2.163   9.925 -0.8511 -0.3575 -0.4108
   87SAPS  H18X 8409   4.446   2.148  10.034  0.7129 -0.1188 -0.1857
   87SAPS  H18Y 8410   4.361   2.172   9.870  0.6371  2.1499 -2.9096
   87SAPS  H18Z 8411   4.512   2.256   9.897  0.6334 -0.8363  0.7600
   88SAPS     N 8412   2.171   6.108  10.626  0.1601  0.0423 -0.5346
   88SAPS   HN1 8413   2.130   6.160  10.547 -0.1256 -0.6005 -0.8181
   88SAPS   HN2 8414   2.197   6.184  10.692  1.0082 -0.5474 -0.1683
   88SAPS   HN3 8415   2.252   6.051  10.595 -0.6099 -0.1644 -2.3039
   88SAPS   C12 8416   2.074   6.028  10.702 -0.1470 -0.4147 -0.2364
   88SAPS  H12A 8417   2.054   5.937  10.646 -2.9969 -0.7750  1.1940
   88SAPS   C13 8418   2.136   5.980  10.837 -0.0705 -0.0412  0.3836
   88SAPS  O13A 8419   2.251   6.013  10.880  0.3604  0.5596 -0.5656
   88SAPS  O13B 8420   2.065   5.907  10.908 -0.1837 -0.3286  0.1227
   88SAPS   C11 8421   1.941   6.111  10.727  0.1813  0.3570 -0.0709
   88SAPS  H11A 8422   1.868   6.046  10.781 -0.5723  1.9949  0.9464
   88SAPS  H11B 8423   1.896   6.142  10.630 -0.6206 -0.5071  0.0018
   88SAPS     P 8424   1.875   6.313  10.886 -0.0317 -0.0050 -0.3140
   88SAPS   O13 8425   1.843   6.241  11.015 -0.0307 -0.1472 -0.2798
   88SAPS   O14 8426   1.942   6.446  10.889 -0.1227 -0.5395 -0.0605
   88SAPS   O12 8427   1.973   6.223  10.804 -0.6400  0.1280 -0.3503
   88SAPS   O11 8428   1.748   6.327  10.790  0.5559 -0.3551  0.5297
   88SAPS    C1 8429   1.767   6.412  10.674 -0.7169 -0.2364  0.0701
   88SAPS    HA 8430   1.785   6.517  10.704  0.3735 -0.2472 -0.4843
   88SAPS    HB 8431   1.851   6.369  10.615 -0.5046  0.8262 -0.4189
   88SAPS    C2 8432   1.645   6.420  10.576  0.6803 -0.3441 -0.1325
   88SAPS    HS 8433   1.586   6.509  10.606  1.5703  1.0641 -2.3310
   88SAPS   O21 8434   1.565   6.300  10.575  0.4537 -0.6930  0.1923
   88SAPS   C21 8435   1.466   6.288  10.655 -0.0461 -0.3475  0.4627
   88SAPS   O22 8436   1.421   6.372  10.724  0.1730  0.2397  0.1754
   88SAPS   C22 8437   1.391   6.156  10.613 -0.4702  0.0905  0.1488
   88SAPS   H2R 8438   1.422   6.109  10.517 -2.6665 -2.8215  0.7200
   88SAPS   H2S 8439   1.433   6.082  10.684  1.2050  0.4824 -0.3759
   88SAPS    C3 8440   1.691   6.466  10.434  0.3184 -0.3086  0.4234
   88SAPS    HX 8441   1.781   6.403  10.412  0.4966  0.0922 -0.0168
   88SAPS    HY 8442   1.735   6.567  10.444 -2.9312  1.5805 -2.1893
   88SAPS   O31 8443   1.576   6.466  10.337 -0.0246  0.2076 -0.5205
   88SAPS   C31 8444   1.557   6.351  10.281 -0.4933  0.5671  0.3114
   88SAPS   O32 8445   1.644   6.264  10.273  0.5666  0.9104  0.1102
   88SAPS   C32 8446   1.423   6.348  10.200 -0.2363 -0.8159 -0.5000
   88SAPS   H2X 8447   1.344   6.402  10.255 -1.6649  0.0947 -3.2510
   88SAPS   H2Y 8448   1.393   6.241  10.198  0.6260 -1.0734 -0.4016
   88SAPS   C23 8449   1.240   6.165  10.615  1.1898 -0.6929  0.2670
   88SAPS   H3R 8450   1.203   6.216  10.707 -0.4474  4.3921 -2.8025
   88SAPS   H3S 8451   1.205   6.060  10.614 -0.0040 -0.3005 -0.0602
   88SAPS   C24 8452   1.173   6.228  10.488  0.0140 -0.6085  0.2979
   88SAPS   H4R 8453   1.216   6.174  10.400  0.3673  0.6672 -0.3356
   88SAPS   H4S 8454   1.203   6.335  10.492 -0.2391 -0.5717  3.2731
   88SAPS   C25 8455   1.027   6.201  10.507 -0.4171  0.5037  0.2123
   88SAPS   H5R 8456   0.972   6.246  10.591 -2.1899  2.6738 -1.9901
   88SAPS   C26 8457   0.938   6.142  10.430  0.1431 -0.0180 -0.3872
   88SAPS   H6R 8458   0.833   6.120  10.457 -0.4530  0.6328 -2.0604
   88SAPS   C27 8459   0.969   6.076  10.303 -0.1243  0.2196  0.8374
   88SAPS   H7R 8460   1.034   5.988  10.320  0.1462  0.4305  0.9076
   88SAPS   H7S 8461   1.020   6.138  10.226  0.3972 -1.9990 -0.6996
   88SAPS   C28 8462   0.849   6.022  10.230  0.2448  0.0850 -0.0925
   88SAPS   H8R 8463   0.759   6.016  10.293  1.6250 -0.2060  1.9527
   88SAPS   C29 8464   0.846   5.964  10.107  0.1919  0.4675  0.2961
   88SAPS   H9R 8465   0.749   5.930  10.068  0.5948  0.8254 -1.0503
   88SAPS  C210 8466   0.946   5.944  10.004  0.0670  0.6817 -0.1281
   88SAPS  H10R 8467   0.945   5.842   9.958  1.9635  1.0873 -1.1980
   88SAPS  H10S 8468   1.042   5.943  10.060 -1.1967  1.0424  2.1466
   88SAPS  C211 8469   0.964   6.047   9.897  0.2281 -0.2905  0.3455
   88SAPS  H11R 8470   0.937   6.152   9.916 -0.8261 -0.2572 -1.1621
   88SAPS  C212 8471   0.981   6.030   9.762 -0.0412  0.2013  0.2347
   88SAPS  H12R 8472   1.002   6.119   9.701  0.7706  0.0292  0.2559
   88SAPS  C213 8473   0.976   5.890   9.696 -0.8156  0.1807 -0.1975
   88SAPS  H13R 8474   0.925   5.811   9.755  0.1474  0.1724  0.6497
   88SAPS  H13S 8475   1.078   5.853   9.675 -0.2385  2.0657 -0.9033
   88SAPS  C214 8476   0.914   5.904   9.557 -0.5706 -0.5232 -0.3321
   88SAPS  H14R 8477   0.805   5.897   9.558 -0.6297 -0.5161 -2.5473
   88SAPS  C215 8478   0.985   5.947   9.449 -0.3241  0.0648  0.2887
   88SAPS  H15R 8479   0.931   5.961   9.354  1.3950  0.4699 -0.6710
   88SAPS  C216 8480   1.134   5.981   9.440 -0.1698  0.2231  0.3467
   88SAPS  H16R 8481   1.170   6.011   9.541 -2.0357  0.0772  1.1025
   88SAPS  H16S 8482   1.157   6.070   9.377  1.5165  0.0355  0.6544
   88SAPS  C217 8483   1.217   5.863   9.386 -0.0051 -0.0883 -0.1491
   88SAPS  H17R 8484   1.196   5.773   9.449 -0.0456  0.7096  1.0111
   88SAPS  H17S 8485   1.324   5.892   9.389 -0.4886  2.0500 -1.6081
   88SAPS  C218 8486   1.193   5.816   9.241 -0.0437  0.1865  0.7223
   88SAPS  H18R 8487   1.085   5.818   9.218  0.6502  0.2323 -3.4515
   88SAPS  H18S 8488   1.240   5.715   9.235  1.5349  0.9556 -1.9262
   88SAPS  C219 8489   1.269   5.902   9.136  0.0167  0.5082 -0.4632
   88SAPS  H19R 8490   1.380   5.913   9.144  0.0103  1.4144 -1.3211
   88SAPS  H19S 8491   1.246   6.009   9.155  0.3816  0.4599  0.2886
   88SAPS  C220 8492   1.227   5.875   8.989 -0.3566  0.2940 -0.3980
   88SAPS  H20R 8493   1.116   5.881   8.988 -0.5256  0.2893  3.3427
   88SAPS  H20S 8494   1.252   5.772   8.956 -1.4829 -0.0437 -0.2493
   88SAPS  H20T 8495   1.269   5.945   8.914 -1.3755  0.4440 -0.8439
   88SAPS   C33 8496   1.441   6.388  10.051 -0.1686  1.0166 -0.7666
   88SAPS   H3X 8497   1.545   6.368  10.018  0.4429  0.9200  1.1143
   88SAPS   H3Y 8498   1.415   6.495  10.039 -1.1143  1.2320  2.3915
   88SAPS   C34 8499   1.327   6.333   9.964  0.1623  0.4682 -0.4947
   88SAPS   H4X 8500   1.232   6.387   9.988  0.3032 -0.1256  1.5838
   88SAPS   H4Y 8501   1.322   6.226   9.994 -0.5308  0.9528  1.2520
   88SAPS   C35 8502   1.352   6.355   9.810  1.2205 -0.3156 -0.1206
   88SAPS   H5X 8503   1.454   6.321   9.782  0.7656 -2.0645  0.1963
   88SAPS   H5Y 8504   1.333   6.463   9.795 -0.4895 -0.7437 -1.3481
   88SAPS   C36 8505   1.241   6.291   9.725 -0.2706  0.1300  0.4781
   88SAPS   H6X 8506   1.140   6.316   9.764 -0.8618  1.2307 -1.5887
   88SAPS   H6Y 8507   1.246   6.180   9.727 -1.8691  0.0198 -0.0842
   88SAPS   C37 8508   1.243   6.322   9.575 -0.7182  0.3020  0.0824
   88SAPS   H7X 8509   1.232   6.432   9.566  2.7123  0.6103 -2.0735
   88SAPS   H7Y 8510   1.154   6.281   9.523  0.0221  0.3176 -1.2384
   88SAPS   C38 8511   1.382   6.305   9.505 -0.0192 -0.1971 -0.3063
   88SAPS   H8X 8512   1.413   6.199   9.511 -0.9728 -0.4408  0.8867
   88SAPS   H8Y 8513   1.451   6.381   9.546  1.3070 -1.3022 -0.4261
   88SAPS   C39 8514   1.379   6.345   9.358  0.2364  0.2090 -0.1682
   88SAPS   H9X 8515   1.343   6.448   9.337 -0.8936  0.2056  1.5723
   88SAPS   H9Y 8516   1.301   6.283   9.309 -1.2089 -1.7334  4.1819
   88SAPS  C310 8517   1.511   6.313   9.287  0.4675 -0.5806 -0.6719
   88SAPS  H10X 8518   1.571   6.233   9.335 -0.4488 -1.1881 -0.5171
   88SAPS  H10Y 8519   1.570   6.407   9.282 -0.6989  0.2593  0.4318
   88SAPS  C311 8520   1.493   6.279   9.135  0.1116  1.0654 -0.5081
   88SAPS  H11X 8521   1.433   6.185   9.131 -1.9894  2.3905 -2.2501
   88SAPS  H11Y 8522   1.591   6.256   9.088 -0.2092 -0.6133 -0.4279
   88SAPS  C312 8523   1.412   6.397   9.065  0.7335 -1.0666  0.2542
   88SAPS  H12X 8524   1.480   6.485   9.063  1.1824 -1.4197 -0.5168
   88SAPS  H12Y 8525   1.322   6.421   9.125  1.3944 -0.7551  1.1352
   88SAPS  C313 8526   1.367   6.368   8.923 -0.8110  0.5224 -0.0125
   88SAPS  H13X 8527   1.451   6.309   8.881 -1.1499  0.4216 -0.5476
   88SAPS  H13Y 8528   1.355   6.455   8.854  2.0314 -2.2713 -4.5429
   88SAPS  C314 8529   1.243   6.275   8.912  0.1093 -0.0750  0.0529
   88SAPS  H14X 8530   1.154   6.341   8.904 -1.6159 -2.2796  0.2058
   88SAPS  H14Y 8531   1.227   6.210   9.000  0.7380  3.3893  2.9832
   88SAPS  C315 8532   1.239   6.198   8.782 -0.1758 -0.4591 -0.0806
   88SAPS  H15X 8533   1.323   6.126   8.780  0.3225  0.0837  0.8248
   88SAPS  H15Y 8534   1.260   6.271   8.701  1.5993 -0.2303  0.5557
   88SAPS  C316 8535   1.112   6.130   8.734  0.8340 -0.2196 -0.1701
   88SAPS  H16X 8536   1.040   6.212   8.712  1.8421  1.3949  2.1535
   88SAPS  H16Y 8537   1.063   6.061   8.807 -2.2711  1.7110 -0.2641
   88SAPS  C317 8538   1.126   6.051   8.606  0.4746 -0.2728  0.2889
   88SAPS  H17X 8539   1.177   5.953   8.611 -1.4973 -1.3803 -0.1051
   88SAPS  H17Y 8540   1.180   6.104   8.525 -0.1813 -0.8835 -0.5606
   88SAPS  C318 8541   0.983   6.015   8.551  0.1941 -0.3306 -0.2379
   88SAPS  H18X 8542   0.938   5.934   8.613 -0.0317  0.6879  0.9787
   88SAPS  H18Y 8543   0.990   5.963   8.453 -1.7488 -0.2786 -0.4408
   88SAPS  H18Z 8544   0.926   6.110   8.542  2.1123  0.7612 -1.4485
   89SAPS     N 8545   2.178   2.384  10.802 -0.5846  0.0353 -0.4350
   89SAPS   HN1 8546   2.079   2.363  10.779 -0.8901  1.9260 -1.0369
   89SAPS   HN2 8547   2.218   2.448  10.730  0.2959  2.8764  2.3629
   89SAPS   HN3 8548   2.230   2.295  10.819  1.5713  1.6155  1.9743
   89SAPS   C12 8549   2.168   2.464  10.927 -0.5622  0.4960  0.9398
   89SAPS  H12A 8550   2.122   2.393  10.995  1.0120 -0.1212  1.3872
   89SAPS   C13 8551   2.309   2.502  10.986 -0.7816 -0.1899 -0.4389
   89SAPS  O13A 8552   2.421   2.485  10.931 -0.3026  0.1089 -0.1435
   89SAPS  O13B 8553   2.308   2.547  11.105  0.0108 -0.3341 -0.2371
   89SAPS   C11 8554   2.089   2.591  10.900  0.0688 -0.2908  0.2870
   89SAPS  H11A 8555   2.147   2.642  10.820  0.1509  0.6198  0.9046
   89SAPS  H11B 8556   2.087   2.648  10.995  1.7192 -1.1666  0.8797
   89SAPS     P 8557   1.853   2.670  10.803  0.0039  0.1226  0.2089
   89SAPS   O13 8558   1.725   2.639  10.861  0.3002 -0.0760 -0.0397
   89SAPS   O14 8559   1.911   2.796  10.849 -0.2002  0.3048 -0.2177
   89SAPS   O12 8560   1.950   2.556  10.858  0.2011 -0.7172 -0.3024
   89SAPS   O11 8561   1.852   2.658  10.644  0.3010 -0.4315  0.3514
   89SAPS    C1 8562   1.937   2.585  10.564  0.1170 -0.0863  0.3699
   89SAPS    HA 8563   2.019   2.652  10.528  0.1395 -0.4378 -0.2404
   89SAPS    HB 8564   1.985   2.500  10.618  1.7459 -0.2980 -1.2950
   89SAPS    C2 8565   1.855   2.519  10.448 -0.3196 -0.8878  0.2610
   89SAPS    HS 8566   1.926   2.442  10.410  0.0624 -1.3860  1.9325
   89SAPS   O21 8567   1.807   2.608  10.349 -0.7522 -0.1350  0.8898
   89SAPS   C21 8568   1.897   2.665  10.283  0.2403  0.1614  0.4954
   89SAPS   O22 8569   2.017   2.658  10.293 -0.0093 -0.2756 -0.2061
   89SAPS   C22 8570   1.815   2.741  10.176 -0.1160 -0.4554  0.3156
   89SAPS   H2R 8571   1.705   2.737  10.186 -0.4220  1.6451 -1.4627
   89SAPS   H2S 8572   1.846   2.846  10.195  1.5218 -0.4540 -1.8838
   89SAPS    C3 8573   1.738   2.442  10.507 -0.7211 -0.2135  0.2779
   89SAPS    HX 8574   1.659   2.517  10.527  1.1621  2.2706 -0.9904
   89SAPS    HY 8575   1.765   2.401  10.607 -0.7448 -1.8708 -0.3544
   89SAPS   O31 8576   1.690   2.337  10.421  0.3194 -0.1004 -0.0375
   89SAPS   C31 8577   1.588   2.373  10.344  0.1374  0.0367  0.5210
   89SAPS   O32 8578   1.543   2.491  10.336  0.3231  0.1237 -0.4263
   89SAPS   C32 8579   1.557   2.265  10.248 -0.1919  0.8033  0.3250
   89SAPS   H2X 8580   1.572   2.170  10.302  1.2868  1.8494  1.8507
   89SAPS   H2Y 8581   1.636   2.272  10.171  2.2311  0.1617  2.6145
   89SAPS   C23 8582   1.849   2.705  10.025  0.2345  0.4612 -0.8682
   89SAPS   H3R 8583   1.958   2.720  10.007  0.3258 -2.0596 -2.9755
   89SAPS   H3S 8584   1.798   2.777   9.958 -0.8911 -0.7326 -1.3333
   89SAPS   C24 8585   1.815   2.560   9.985  0.4667 -0.3876  0.6929
   89SAPS   H4R 8586   1.848   2.494  10.068  2.8634  0.4343  0.4455
   89SAPS   H4S 8587   1.872   2.534   9.894 -0.3300  2.3632 -0.6945
   89SAPS   C25 8588   1.666   2.546   9.961  0.3961 -0.1437  0.0725
   89SAPS   H5R 8589   1.612   2.530  10.055 -0.4212  0.7016 -0.2380
   89SAPS   C26 8590   1.600   2.519   9.841 -0.2561  0.8067 -0.2844
   89SAPS   H6R 8591   1.493   2.497   9.851  0.2844 -1.2533  1.7363
   89SAPS   C27 8592   1.659   2.513   9.705 -0.2641 -0.2532  0.2464
   89SAPS   H7R 8593   1.754   2.569   9.700  0.0293 -0.4195  2.7316
   89SAPS   H7S 8594   1.584   2.549   9.632 -0.5801 -0.6272  0.3788
   89SAPS   C28 8595   1.708   2.371   9.670  0.1287  0.1937  0.2542
   89SAPS   H8R 8596   1.759   2.315   9.750 -0.2803  0.3411  0.6242
   89SAPS   C29 8597   1.675   2.298   9.562  0.2270 -0.3889 -0.2221
   89SAPS   H9R 8598   1.720   2.199   9.547 -1.2947 -0.9282 -1.4420
   89SAPS  C210 8599   1.587   2.338   9.448  0.0282  0.5245 -0.3562
   89SAPS  H10R 8600   1.597   2.448   9.435 -2.3400  1.1498  2.2055
   89SAPS  H10S 8601   1.483   2.323   9.484 -0.3639 -0.4578 -1.7971
   89SAPS  C211 8602   1.605   2.257   9.321 -0.4085  0.3508  0.3333
   89SAPS  H11R 8603   1.694   2.285   9.263 -0.2631 -1.3206 -0.3056
   89SAPS  C212 8604   1.515   2.171   9.278  0.3527 -0.0395 -0.5209
   89SAPS  H12R 8605   1.543   2.117   9.187  0.8602 -3.3567  1.4138
   89SAPS  C213 8606   1.381   2.142   9.342 -0.1563 -0.3363 -0.6351
   89SAPS  H13R 8607   1.333   2.241   9.355  0.4160 -0.2569  1.1999
   89SAPS  H13S 8608   1.388   2.103   9.446  0.1642  1.7369  0.1744
   89SAPS  C214 8609   1.303   2.044   9.254 -0.4944  0.3943 -0.8656
   89SAPS  H14R 8610   1.286   1.950   9.309 -2.0747  1.5636  0.7398
   89SAPS  C215 8611   1.249   2.051   9.131  0.2624 -0.0211  0.0860
   89SAPS  H15R 8612   1.188   1.967   9.094 -0.7169 -0.5447  2.6856
   89SAPS  C216 8613   1.273   2.164   9.030 -0.3451 -0.0119 -0.0054
   89SAPS  H16R 8614   1.323   2.250   9.079  0.7035 -1.4513  1.5377
   89SAPS  H16S 8615   1.181   2.200   8.979 -0.3034  0.0177 -0.0588
   89SAPS  C217 8616   1.373   2.116   8.924  0.3903  0.5404 -0.3421
   89SAPS  H17R 8617   1.357   2.007   8.908  2.9115 -0.3442  2.2746
   89SAPS  H17S 8618   1.476   2.118   8.965  0.4299 -0.7508 -0.3349
   89SAPS  C218 8619   1.359   2.192   8.794  0.3750 -0.6969  1.1317
   89SAPS  H18R 8620   1.401   2.295   8.792 -2.1659  0.4195  0.7068
   89SAPS  H18S 8621   1.257   2.208   8.753  0.7131 -1.8915 -0.2893
   89SAPS  C219 8622   1.423   2.098   8.690 -0.6933 -1.1016 -0.1268
   89SAPS  H19R 8623   1.392   2.125   8.587  2.8059  0.4389 -0.9389
   89SAPS  H19S 8624   1.398   1.992   8.710  0.4452 -1.5401 -0.8931
   89SAPS  C220 8625   1.578   2.117   8.694  0.1237  0.4585 -0.1064
   89SAPS  H20R 8626   1.631   2.044   8.628 -1.2867 -0.4164 -0.3207
   89SAPS  H20S 8627   1.610   2.103   8.799 -3.2857 -0.3350  0.9380
   89SAPS  H20T 8628   1.606   2.220   8.664  0.0996  0.7856  0.9610
   89SAPS   C33 8629   1.414   2.278  10.183 -0.0095 -0.1799 -0.3027
   89SAPS   H3X 8630   1.420   2.372  10.124  0.2916 -0.6653 -1.0510
   89SAPS   H3Y 8631   1.324   2.297  10.246 -0.2657  1.7231 -1.1851
   89SAPS   C34 8632   1.377   2.160  10.093 -0.2402 -0.3555  0.0223
   89SAPS   H4X 8633   1.335   2.078  10.155 -0.9227  0.1891  0.2923
   89SAPS   H4Y 8634   1.474   2.127  10.049  0.1516 -0.0758  0.6592
   89SAPS   C35 8635   1.299   2.198   9.968  0.1905  0.7676 -0.0762
   89SAPS   H5X 8636   1.341   2.279   9.904 -0.9786  1.8803  0.5158
   89SAPS   H5Y 8637   1.196   2.227   9.996  0.2393  1.8331 -0.9313
   89SAPS   C36 8638   1.270   2.073   9.885  0.0919  0.2693  0.6923
   89SAPS   H6X 8639   1.252   1.988   9.955 -0.5750 -0.1897 -0.0180
   89SAPS   H6Y 8640   1.366   2.042   9.839  1.2005  0.2460  2.8841
   89SAPS   C37 8641   1.159   2.082   9.784 -0.8058 -0.6752  0.4737
   89SAPS   H7X 8642   1.181   2.173   9.724 -0.5505 -2.0267 -1.5662
   89SAPS   H7Y 8643   1.067   2.121   9.833  0.6864  2.1688  1.2560
   89SAPS   C38 8644   1.138   1.961   9.696 -0.3241  0.0669 -0.3381
   89SAPS   H8X 8645   1.107   1.876   9.761 -1.8862  0.4005 -0.6111
   89SAPS   H8Y 8646   1.234   1.946   9.643 -0.5081 -2.8744 -0.0385
   89SAPS   C39 8647   1.016   1.967   9.599 -0.5430 -0.4573  0.0738
   89SAPS   H9X 8648   1.007   2.068   9.552 -1.9417 -1.2284 -1.4207
   89SAPS   H9Y 8649   0.930   1.960   9.670  1.2038 -0.6092  2.2805
   89SAPS  C310 8650   1.007   1.869   9.487 -0.8478  0.1642 -0.8734
   89SAPS  H10X 8651   0.993   1.769   9.535  0.8989  1.5063  2.8151
   89SAPS  H10Y 8652   1.102   1.875   9.430  0.3356  2.2036  1.1521
   89SAPS  C311 8653   0.896   1.889   9.381 -0.4364 -0.6401 -0.3450
   89SAPS  H11X 8654   0.889   1.997   9.359 -1.8200 -1.2514 -3.4626
   89SAPS  H11Y 8655   0.809   1.848   9.435  1.0558 -2.5064  0.7756
   89SAPS  C312 8656   0.933   1.814   9.250  0.1955  0.0064  0.1389
   89SAPS  H12X 8657   0.915   1.706   9.268  0.1412 -0.1669 -0.8994
   89SAPS  H12Y 8658   1.041   1.825   9.227  0.3814  1.4037  1.5421
   89SAPS  C313 8659   0.858   1.860   9.119 -0.1627 -0.3033  0.3639
   89SAPS  H13X 8660   0.914   1.956   9.110 -1.7527  0.8654  2.2347
   89SAPS  H13Y 8661   0.748   1.867   9.135 -0.0031  4.1219  0.6475
   89SAPS  C314 8662   0.889   1.768   9.003  0.0365 -1.3943  0.9783
   89SAPS  H14X 8663   0.798   1.719   8.961 -0.1391 -0.9475  0.8337
   89SAPS  H14Y 8664   0.954   1.687   9.044  4.1069  0.8693 -0.5201
   89SAPS  C315 8665   0.981   1.823   8.889 -0.4649 -0.5423 -0.0161
   89SAPS  H15X 8666   1.010   1.732   8.833 -0.8651 -2.1309  2.2041
   89SAPS  H15Y 8667   1.074   1.863   8.935 -1.8493  1.4395  1.2150
   89SAPS  C316 8668   0.907   1.928   8.812  0.3694  0.4916 -0.0604
   89SAPS  H16X 8669   0.879   2.008   8.884 -1.5999 -1.3407  1.3232
   89SAPS  H16Y 8670   0.825   1.890   8.747 -2.6714  3.2324  1.8678
   89SAPS  C317 8671   0.993   1.990   8.699 -0.6258 -0.3631  0.2933
   89SAPS  H17X 8672   1.040   1.900   8.654  2.1814  0.7503  0.8159
   89SAPS  H17Y 8673   1.070   2.050   8.751 -1.4959 -0.7595  2.1182
   89SAPS  C318 8674   0.911   2.065   8.593  0.7146 -0.2201  0.1897
   89SAPS  H18X 8675   0.860   2.154   8.637 -2.1236 -0.8347 -1.5489
   89SAPS  H18Y 8676   0.837   2.007   8.534 -2.1976  1.5786  1.7963
   89SAPS  H18Z 8677   0.994   2.110   8.534  0.0497  3.8007  1.9335
   90SAPS     N 8678   2.643   2.366  10.800 -0.3196  0.5573  0.5247
   90SAPS   HN1 8679   2.592   2.315  10.725 -1.1446  2.3696 -0.1813
   90SAPS   HN2 8680   2.567   2.398  10.863 -0.5085  0.5974  0.2758
   90SAPS   HN3 8681   2.689   2.446  10.752  0.5862 -0.1365  0.1987
   90SAPS   C12 8682   2.737   2.279  10.873 -0.1373  0.7768  0.8253
   90SAPS  H12A 8683   2.807   2.337  10.931 -0.1362  1.8749 -0.2407
   90SAPS   C13 8684   2.673   2.180  10.975 -0.1649  0.0195 -0.6802
   90SAPS  O13A 8685   2.548   2.170  10.972  0.5074 -0.2467  0.0192
   90SAPS  O13B 8686   2.750   2.121  11.055 -0.0623  0.1321 -0.3927
   90SAPS   C11 8687   2.821   2.199  10.773  0.6106  0.2245  0.2985
   90SAPS  H11A 8688   2.753   2.156  10.696  0.2780  0.4024  0.4882
   90SAPS  H11B 8689   2.858   2.104  10.818 -0.0048 -0.1740 -0.0163
   90SAPS     P 8690   3.046   2.210  10.641 -0.2140  0.1961 -0.0322
   90SAPS   O13 8691   3.178   2.247  10.700  0.2261 -0.2019  0.1730
   90SAPS   O14 8692   3.022   2.065  10.619 -0.0066  0.4797  0.2505
   90SAPS   O12 8693   2.929   2.271  10.720  0.1535 -0.7971 -0.3869
   90SAPS   O11 8694   3.030   2.264  10.499  1.0533  0.0542 -0.0549
   90SAPS    C1 8695   2.978   2.394  10.475  0.1655 -0.0187 -0.0267
   90SAPS    HA 8696   2.970   2.464  10.561  0.2319 -0.3346  0.2405
   90SAPS    HB 8697   3.040   2.440  10.396  0.4998  0.9089  0.7571
   90SAPS    C2 8698   2.832   2.395  10.424 -0.8429 -0.3774  0.5791
   90SAPS    HS 8699   2.763   2.366  10.507  0.7892 -1.0809  1.7410
   90SAPS   O21 8700   2.816   2.301  10.317 -0.4001  0.5700 -0.6882
   90SAPS   C21 8701   2.694   2.268  10.277 -0.3747 -0.1129 -0.2102
   90SAPS   O22 8702   2.595   2.309  10.339 -0.6464  0.3194  0.1925
   90SAPS   C22 8703   2.697   2.176  10.156 -0.3569  0.4612  0.0086
   90SAPS   H2R 8704   2.791   2.185  10.097 -0.6024  0.5497 -0.3706
   90SAPS   H2S 8705   2.696   2.076  10.206 -2.1416  0.9122  0.9390
   90SAPS    C3 8706   2.797   2.536  10.372  0.3494 -0.1662 -0.4920
   90SAPS    HX 8707   2.786   2.588  10.469  0.8648 -2.1807  0.7156
   90SAPS    HY 8708   2.692   2.534  10.335  0.7760  0.1451 -1.7696
   90SAPS   O31 8709   2.894   2.592  10.281 -0.2359  0.4303 -0.0731
   90SAPS   C31 8710   2.880   2.563  10.152 -0.1362 -0.0099 -0.0018
   90SAPS   O32 8711   2.783   2.519  10.098 -0.0183  0.2062  0.5587
   90SAPS   C32 8712   3.005   2.602  10.072  0.4050  0.1470  0.2769
   90SAPS   H2X 8713   3.078   2.519  10.067  0.3286  0.1174 -0.5449
   90SAPS   H2Y 8714   3.047   2.688  10.128  1.4994 -1.6671  2.3730
   90SAPS   C23 8715   2.571   2.171  10.068 -0.2642 -0.7947  0.3597
   90SAPS   H3R 8716   2.483   2.143  10.129 -1.1288 -0.1249 -0.5588
   90SAPS   H3S 8717   2.579   2.086   9.997 -0.8640 -0.9582  0.4816
   90SAPS   C24 8718   2.548   2.299   9.983 -0.6847 -0.8757  0.1511
   90SAPS   H4R 8719   2.558   2.380  10.058 -3.1064 -0.0812 -0.3029
   90SAPS   H4S 8720   2.442   2.294   9.950 -1.3120 -1.1851  2.0405
   90SAPS   C25 8721   2.640   2.340   9.869 -0.4691  0.5270 -0.3262
   90SAPS   H5R 8722   2.734   2.384   9.904  0.9063 -2.8422  0.6004
   90SAPS   C26 8723   2.621   2.312   9.737  0.3574  0.2595  0.6218
   90SAPS   H6R 8724   2.699   2.344   9.666 -1.6822  1.0064 -1.4107
   90SAPS   C27 8725   2.508   2.239   9.670 -0.9541  0.5954  0.0753
   90SAPS   H7R 8726   2.430   2.316   9.650 -0.3487  1.0524 -0.5433
   90SAPS   H7S 8727   2.467   2.164   9.741 -0.9572 -0.4775 -1.0235
   90SAPS   C28 8728   2.539   2.161   9.545  0.2936  0.7156  0.9311
   90SAPS   H8R 8729   2.550   2.054   9.565  1.1904  0.6438  0.0942
   90SAPS   C29 8730   2.559   2.208   9.417  0.1849 -0.2801  0.3829
   90SAPS   H9R 8731   2.584   2.133   9.341  4.0158  1.6618 -0.5337
   90SAPS  C210 8732   2.553   2.356   9.377 -0.8876 -0.3430  0.0568
   90SAPS  H10R 8733   2.641   2.377   9.312  0.3340  0.2811  1.8309
   90SAPS  H10S 8734   2.568   2.420   9.466 -3.2158  1.9089 -1.0593
   90SAPS  C211 8735   2.417   2.383   9.318 -0.6909  0.1908  0.3885
   90SAPS  H11R 8736   2.335   2.400   9.388 -2.8596 -1.2729 -1.6412
   90SAPS  C212 8737   2.396   2.407   9.187  0.9249  0.1325 -0.2331
   90SAPS  H12R 8738   2.296   2.443   9.157  0.7108 -0.1992  0.0786
   90SAPS  C213 8739   2.494   2.405   9.072 -0.9688 -0.0822 -0.1899
   90SAPS  H13R 8740   2.580   2.346   9.109 -0.6725  0.8629  0.6951
   90SAPS  H13S 8741   2.540   2.505   9.051  0.2614 -0.8526 -1.2987
   90SAPS  C214 8742   2.447   2.340   8.946 -0.2410 -0.0916  0.4197
   90SAPS  H14R 8743   2.479   2.240   8.913  0.4918  0.8151 -1.8083
   90SAPS  C215 8744   2.372   2.402   8.855 -0.5443  0.0167  0.7586
   90SAPS  H15R 8745   2.340   2.340   8.770  0.3447 -0.0151  0.4343
   90SAPS  C216 8746   2.316   2.540   8.864  0.1287  0.5369  0.0731
   90SAPS  H16R 8747   2.282   2.566   8.966 -1.0412  0.5002 -0.2949
   90SAPS  H16S 8748   2.225   2.538   8.800  1.0239  0.4651 -1.2393
   90SAPS  C217 8749   2.419   2.648   8.816  0.0172  0.4532  0.0133
   90SAPS  H17R 8750   2.511   2.651   8.878  0.0916  0.3477 -0.0925
   90SAPS  H17S 8751   2.361   2.741   8.833 -2.0478 -0.7585  0.0176
   90SAPS  C218 8752   2.451   2.659   8.665 -0.0852  0.6544  0.1998
   90SAPS  H18R 8753   2.483   2.559   8.629  1.3788  1.0953  0.2401
   90SAPS  H18S 8754   2.525   2.740   8.647 -0.4923  0.8668 -0.6075
   90SAPS  C219 8755   2.334   2.690   8.577  0.2122 -0.5000 -0.6689
   90SAPS  H19R 8756   2.309   2.798   8.571  1.6486 -0.0028  1.1130
   90SAPS  H19S 8757   2.243   2.644   8.619  0.8605  1.3148  3.2006
   90SAPS  C220 8758   2.350   2.637   8.429 -0.2487 -0.4821  0.5715
   90SAPS  H20R 8759   2.367   2.527   8.427  1.7854 -0.1966 -1.0875
   90SAPS  H20S 8760   2.435   2.685   8.375 -0.0719 -0.5327  0.8020
   90SAPS  H20T 8761   2.249   2.663   8.390  0.7412  1.1766 -1.0511
   90SAPS   C33 8762   2.972   2.649   9.922 -0.4368 -0.8607  0.3389
   90SAPS   H3X 8763   2.938   2.755   9.930 -0.5360 -0.8873  0.2596
   90SAPS   H3Y 8764   2.894   2.579   9.885  0.7583 -2.6166  1.0001
   90SAPS   C34 8765   3.089   2.642   9.829 -0.4526  0.6653 -0.2408
   90SAPS   H4X 8766   3.138   2.542   9.825  0.6033  1.2008 -1.5079
   90SAPS   H4Y 8767   3.173   2.714   9.840  1.2782 -1.4883  1.7683
   90SAPS   C35 8768   3.027   2.660   9.692 -0.0930 -0.3912  0.3297
   90SAPS   H5X 8769   3.111   2.689   9.625 -0.7132  0.8081  0.0400
   90SAPS   H5Y 8770   2.959   2.748   9.696 -0.4992 -0.5967 -1.3880
   90SAPS   C36 8771   2.958   2.537   9.635  0.2920  0.3517 -0.0207
   90SAPS   H6X 8772   2.897   2.578   9.552  0.2162 -0.4477 -0.3659
   90SAPS   H6Y 8773   2.884   2.495   9.706  0.0807 -0.0611 -0.4808
   90SAPS   C37 8774   3.051   2.427   9.582 -0.1036 -0.8748  0.0013
   90SAPS   H7X 8775   3.146   2.445   9.637  0.3603  0.9210 -1.3052
   90SAPS   H7Y 8776   3.076   2.453   9.478  2.4043 -0.7864  0.5767
   90SAPS   C38 8777   2.991   2.291   9.592 -0.0637  0.1121  0.4821
   90SAPS   H8X 8778   2.902   2.277   9.527  0.1034 -1.9473  0.6260
   90SAPS   H8Y 8779   2.951   2.273   9.694 -1.1326 -0.0442  0.0439
   90SAPS   C39 8780   3.098   2.188   9.557  0.3289  0.7491 -0.5909
   90SAPS   H9X 8781   3.149   2.217   9.463 -0.5132 -0.6052 -1.5059
   90SAPS   H9Y 8782   3.048   2.089   9.546  1.2773  0.2068 -0.0868
   90SAPS  C310 8783   3.206   2.177   9.671  1.1086 -0.7646  1.0440
   90SAPS  H10X 8784   3.154   2.141   9.763  0.2635 -2.2213  0.0411
   90SAPS  H10Y 8785   3.246   2.274   9.707  1.1337 -1.3487  2.7014
   90SAPS  C311 8786   3.323   2.082   9.646 -0.2731  0.7150 -0.7092
   90SAPS  H11X 8787   3.275   1.982   9.647 -2.9681  1.9408  0.0981
   90SAPS  H11Y 8788   3.394   2.084   9.732 -1.6758  1.4538  0.4895
   90SAPS  C312 8789   3.411   2.102   9.525 -0.1774 -0.2628 -0.4976
   90SAPS  H12X 8790   3.430   2.208   9.495  0.0503 -0.2998 -0.4856
   90SAPS  H12Y 8791   3.362   2.065   9.433 -0.8468  0.3595 -0.4043
   90SAPS  C313 8792   3.553   2.041   9.546  1.0253 -0.0081 -0.0171
   90SAPS  H13X 8793   3.542   1.931   9.556 -2.9324  0.3652  1.2875
   90SAPS  H13Y 8794   3.588   2.069   9.648 -1.3668 -0.4707  0.9832
   90SAPS  C314 8795   3.650   2.097   9.434  0.2890 -0.1380 -0.0098
   90SAPS  H14X 8796   3.745   2.039   9.429 -0.3010 -1.0459 -1.1292
   90SAPS  H14Y 8797   3.667   2.205   9.451 -0.5219  0.1358 -0.8801
   90SAPS  C315 8798   3.591   2.088   9.294  0.0126 -0.5405  1.0617
   90SAPS  H15X 8799   3.531   2.179   9.273 -0.4854 -1.6327 -3.1808
   90SAPS  H15Y 8800   3.539   1.991   9.283 -0.0568 -0.4815  0.8737
   90SAPS  C316 8801   3.708   2.089   9.198  0.3914 -1.0805  0.8038
   90SAPS  H16X 8802   3.786   2.010   9.206  0.2653 -1.2159  0.7126
   90SAPS  H16Y 8803   3.759   2.188   9.197  1.6373 -1.6595 -1.4183
   90SAPS  C317 8804   3.657   2.049   9.056  0.7025  0.2902 -0.2396
   90SAPS  H17X 8805   3.583   2.122   9.017  0.5390 -0.1703 -0.8051
   90SAPS  H17Y 8806   3.607   1.950   9.056 -2.5433  1.8012 -0.3086
   90SAPS  C318 8807   3.779   2.045   8.959  0.3435 -0.0521 -0.1372
   90SAPS  H18X 8808   3.743   2.034   8.855  0.3627 -0.6391 -0.0824
   90SAPS  H18Y 8809   3.854   1.966   8.979 -1.2157 -2.0297 -1.6789
   90SAPS  H18Z 8810   3.831   2.143   8.962 -0.5140  0.3980  0.6670
   91SAPS     N 8811   6.401   1.936   5.942 -0.1057  0.2909  0.1344
   91SAPS   HN1 8812   6.482   2.001   5.944 -0.3613  0.6303 -0.3393
   91SAPS   HN2 8813   6.438   1.845   5.907 -2.7046 -0.0664 -1.9928
   91SAPS   HN3 8814   6.341   1.974   5.866  1.7491  0.2832 -1.3996
   91SAPS   C12 8815   6.335   1.909   6.076 -0.3906  0.4353  0.3294
   91SAPS  H12A 8816   6.311   2.002   6.125 -0.6042  0.8357 -0.5369
   91SAPS   C13 8817   6.207   1.822   6.062 -0.2978 -0.3661 -0.7001
   91SAPS  O13A 8818   6.174   1.783   5.950 -0.1946 -0.0284 -0.1014
   91SAPS  O13B 8819   6.122   1.823   6.161 -0.4598  0.7722  0.0215
   91SAPS   C11 8820   6.436   1.825   6.170 -0.2724 -1.4760 -0.8379
   91SAPS  H11A 8821   6.452   1.730   6.114  0.7462  0.3306 -3.8096
   91SAPS  H11B 8822   6.383   1.801   6.265 -0.5773 -1.8135 -1.0904
   91SAPS     P 8823   6.696   1.826   6.176 -0.2495 -0.2538 -0.0030
   91SAPS   O13 8824   6.690   1.702   6.252  0.0457 -0.8240 -0.4725
   91SAPS   O14 8825   6.741   1.824   6.032  0.5239 -0.1896 -0.4526
   91SAPS   O12 8826   6.557   1.888   6.183  0.9443  0.1862  0.2006
   91SAPS   O11 8827   6.783   1.934   6.248 -0.2656  0.1261  0.2773
   91SAPS    C1 8828   6.761   1.979   6.380  0.4671  0.1366 -0.0079
   91SAPS    HA 8829   6.780   2.088   6.389 -1.1575  0.3204  1.7138
   91SAPS    HB 8830   6.661   1.966   6.427  0.3620 -1.2529 -0.5692
   91SAPS    C2 8831   6.865   1.908   6.477  0.3629  0.1519 -0.4810
   91SAPS    HS 8832   6.828   1.804   6.459  1.1315 -0.2392  0.1123
   91SAPS   O21 8833   6.857   1.948   6.617  0.8710 -0.3799 -0.5783
   91SAPS   C21 8834   6.890   1.857   6.701  0.5018  0.3529 -0.2617
   91SAPS   O22 8835   6.920   1.739   6.675 -0.0393 -0.6704  0.5984
   91SAPS   C22 8836   6.891   1.923   6.843  0.1374  0.8589  0.6728
   91SAPS   H2R 8837   6.916   2.030   6.830  1.2819  0.5833  0.4294
   91SAPS   H2S 8838   6.788   1.920   6.884 -0.8060 -2.8460 -1.5105
   91SAPS    C3 8839   7.014   1.935   6.429 -0.0129  0.0561  0.2994
   91SAPS    HX 8840   7.012   1.916   6.320 -2.0871 -0.8391  0.4468
   91SAPS    HY 8841   7.081   1.863   6.481 -0.6057 -0.0501  0.9243
   91SAPS   O31 8842   7.059   2.073   6.452  0.1850  0.0586 -0.5212
   91SAPS   C31 8843   7.126   2.090   6.561  0.3080 -0.2907  0.3968
   91SAPS   O32 8844   7.163   1.999   6.637 -0.1923  0.0969  0.4580
   91SAPS   C32 8845   7.144   2.237   6.589  0.3523  0.0337 -0.2320
   91SAPS   H2X 8846   7.044   2.279   6.612 -0.8014 -3.1254  1.0262
   91SAPS   H2Y 8847   7.178   2.289   6.497  0.0229 -0.0120 -0.3801
   91SAPS   C23 8848   6.992   1.853   6.933 -0.3227 -0.6195 -0.5698
   91SAPS   H3R 8849   7.082   1.829   6.873  3.1385 -3.3856  4.8595
   91SAPS   H3S 8850   6.959   1.751   6.960  1.6059 -0.6786  2.0588
   91SAPS   C24 8851   7.033   1.937   7.056  0.1871  0.2897  0.2010
   91SAPS   H4R 8852   7.065   2.037   7.020 -0.5875  0.5746  0.2968
   91SAPS   H4S 8853   7.128   1.895   7.096  1.5273  1.2546 -1.8294
   91SAPS   C25 8854   6.926   1.953   7.158  0.0418  0.1703 -0.5568
   91SAPS   H5R 8855   6.846   2.019   7.123  2.1800  1.7300 -2.8303
   91SAPS   C26 8856   6.911   1.879   7.273 -0.5250  0.0029  0.4371
   91SAPS   H6R 8857   6.818   1.893   7.330 -1.1333 -0.1151 -0.5061
   91SAPS   C27 8858   6.997   1.768   7.320 -0.0758  0.5695  0.5187
   91SAPS   H7R 8859   7.053   1.807   7.407  1.5423  1.6469 -0.9252
   91SAPS   H7S 8860   7.073   1.733   7.247  0.9025 -0.2119  1.8713
   91SAPS   C28 8861   6.909   1.650   7.344  0.1284 -0.3014  0.0333
   91SAPS   H8R 8862   6.854   1.615   7.255 -1.1613  1.4558  0.0768
   91SAPS   C29 8863   6.897   1.578   7.457 -0.3674  1.0311  0.2512
   91SAPS   H9R 8864   6.809   1.513   7.463  0.4799 -0.2496 -0.7630
   91SAPS  C210 8865   6.958   1.596   7.598  0.4820 -0.7855  0.2042
   91SAPS  H10R 8866   7.068   1.600   7.584  0.2875  0.8768 -1.2078
   91SAPS  H10S 8867   6.932   1.509   7.662 -1.8062  0.9838  1.8661
   91SAPS  C211 8868   6.913   1.726   7.670  0.7755  0.1444 -0.7178
   91SAPS  H11R 8869   6.809   1.760   7.658  0.5747  0.4042  1.3506
   91SAPS  C212 8870   6.991   1.801   7.746 -0.0244 -0.0644 -0.1001
   91SAPS  H12R 8871   6.937   1.889   7.785 -1.5901 -0.2252 -1.7876
   91SAPS  C213 8872   7.136   1.778   7.780  0.3622  0.1674 -0.1051
   91SAPS  H13R 8873   7.160   1.674   7.751 -1.3251 -0.2608 -0.0496
   91SAPS  H13S 8874   7.154   1.776   7.890  1.1012 -1.2419 -0.2417
   91SAPS  C214 8875   7.234   1.875   7.714  0.0974 -0.2028 -0.3379
   91SAPS  H14R 8876   7.196   1.926   7.624  1.7326  0.1154 -0.8828
   91SAPS  C215 8877   7.355   1.904   7.760  0.0426 -0.1002  0.1505
   91SAPS  H15R 8878   7.424   1.972   7.708 -1.1801  0.7097 -0.4676
   91SAPS  C216 8879   7.405   1.860   7.892  0.2099  0.2617  0.5469
   91SAPS  H16R 8880   7.501   1.807   7.874 -0.2673 -0.3061 -0.4309
   91SAPS  H16S 8881   7.348   1.777   7.940  0.9972 -0.2383  0.6273
   91SAPS  C217 8882   7.416   1.972   7.988 -0.2225 -0.0849 -0.3107
   91SAPS  H17R 8883   7.314   2.005   8.018  0.5218  1.4475  0.6768
   91SAPS  H17S 8884   7.467   2.058   7.939 -1.4676  0.3338 -0.9155
   91SAPS  C218 8885   7.502   1.941   8.116 -0.5828 -0.7006  0.5345
   91SAPS  H18R 8886   7.494   2.040   8.165 -2.6649 -1.1337  1.1479
   91SAPS  H18S 8887   7.608   1.919   8.090 -0.8008 -1.1908  0.0188
   91SAPS  C219 8888   7.443   1.848   8.213 -0.2898 -0.4739 -0.1459
   91SAPS  H19R 8889   7.482   1.873   8.314 -0.4706 -1.7870  0.2733
   91SAPS  H19S 8890   7.481   1.745   8.199  0.2297 -0.4335  0.9348
   91SAPS  C220 8891   7.295   1.844   8.228  0.8178 -0.1999  0.2735
   91SAPS  H20R 8892   7.241   1.815   8.135  1.8978  1.1604 -0.8222
   91SAPS  H20S 8893   7.238   1.939   8.239 -1.7333 -1.4324 -1.3498
   91SAPS  H20T 8894   7.271   1.786   8.320 -0.2273  0.0107  0.1494
   91SAPS   C33 8895   7.235   2.280   6.711  0.2085  0.4410  0.3859
   91SAPS   H3X 8896   7.275   2.382   6.689 -2.9695  1.3642 -1.8225
   91SAPS   H3Y 8897   7.320   2.209   6.714  0.1827  0.4042  0.2585
   91SAPS   C34 8898   7.157   2.273   6.845 -0.0380 -0.2834 -0.3439
   91SAPS   H4X 8899   7.125   2.170   6.874 -2.2974 -0.1093 -1.9259
   91SAPS   H4Y 8900   7.064   2.333   6.833 -0.1231 -0.3723 -0.1419
   91SAPS   C35 8901   7.230   2.343   6.957 -0.9379  0.5802 -0.2101
   91SAPS   H5X 8902   7.269   2.438   6.914  0.8382  1.2459  2.6292
   91SAPS   H5Y 8903   7.317   2.284   6.992  0.1079  0.9398 -2.0470
   91SAPS   C36 8904   7.138   2.377   7.068  0.2735  0.7560 -0.6336
   91SAPS   H6X 8905   7.103   2.292   7.131  1.1228 -1.2979 -2.7752
   91SAPS   H6Y 8906   7.043   2.419   7.028 -0.5872 -0.6528 -0.1298
   91SAPS   C37 8907   7.201   2.472   7.168  0.0607 -0.4827 -0.6435
   91SAPS   H7X 8908   7.263   2.544   7.110  1.0592  1.2184  2.3378
   91SAPS   H7Y 8909   7.270   2.413   7.233 -0.8852 -0.0611  0.7952
   91SAPS   C38 8910   7.115   2.570   7.255 -0.2182 -0.1086  0.6973
   91SAPS   H8X 8911   7.046   2.523   7.327 -1.3942  0.2892 -0.1473
   91SAPS   H8Y 8912   7.052   2.625   7.182 -1.2603 -3.0790 -0.8326
   91SAPS   C39 8913   7.213   2.664   7.331  0.8159  0.8675  0.8474
   91SAPS   H9X 8914   7.263   2.726   7.254 -0.3536 -0.7932 -1.3338
   91SAPS   H9Y 8915   7.296   2.605   7.377 -0.2765 -2.0716 -0.7300
   91SAPS  C310 8916   7.143   2.763   7.420 -0.5183 -0.2055  0.1026
   91SAPS  H10X 8917   7.056   2.815   7.374 -0.2193  0.2075 -0.0060
   91SAPS  H10Y 8918   7.216   2.840   7.453 -1.4355  0.9107 -0.3789
   91SAPS  C311 8919   7.099   2.690   7.551  0.1075 -0.0588 -0.0227
   91SAPS  H11X 8920   7.179   2.619   7.580 -1.3252 -1.6278  0.1790
   91SAPS  H11Y 8921   7.008   2.639   7.515  0.1950  1.6118 -3.0303
   91SAPS  C312 8922   7.083   2.799   7.663  0.0555  0.0177  0.1391
   91SAPS  H12X 8923   7.180   2.853   7.673  0.9554 -1.7326  1.2656
   91SAPS  H12Y 8924   7.077   2.750   7.763  0.4604 -0.6707 -0.1675
   91SAPS  C313 8925   6.966   2.896   7.636  0.3929  0.0284 -0.0906
   91SAPS  H13X 8926   6.868   2.845   7.624 -0.2155  1.1200  0.0776
   91SAPS  H13Y 8927   6.996   2.944   7.540 -0.9746  1.8776  0.3402
   91SAPS  C314 8928   6.951   3.005   7.739  0.8394  0.2168 -0.4652
   91SAPS  H14X 8929   6.878   3.085   7.715 -0.3634 -0.3740  1.0300
   91SAPS  H14Y 8930   7.051   3.052   7.733  1.2818 -0.5824  0.4564
   91SAPS  C315 8931   6.938   2.964   7.882  0.2899  0.6213  0.3659
   91SAPS  H15X 8932   7.019   2.891   7.904  2.1001  2.0569 -1.2424
   91SAPS  H15Y 8933   6.842   2.909   7.892 -0.9714  2.6633 -0.0606
   91SAPS  C316 8934   6.945   3.080   7.979 -0.0722 -0.2263 -0.3666
   91SAPS  H16X 8935   6.851   3.139   7.972  0.3843  0.6686  0.7786
   91SAPS  H16Y 8936   7.029   3.140   7.939  0.9077 -1.0755  0.3872
   91SAPS  C317 8937   6.971   3.044   8.128 -0.2185  0.1576 -0.3227
   91SAPS  H17X 8938   6.900   2.965   8.158 -0.2992  0.4762  0.3518
   91SAPS  H17Y 8939   6.960   3.140   8.184 -1.7977 -1.1155  1.6701
   91SAPS  C318 8940   7.123   2.993   8.147  0.6627 -0.6321  0.2517
   91SAPS  H18X 8941   7.140   3.005   8.257 -4.0222  0.9981  1.0112
   91SAPS  H18Y 8942   7.186   3.063   8.089 -0.8036  0.2031 -0.3735
   91SAPS  H18Z 8943   7.130   2.887   8.115  1.1770 -0.2122 -1.1045
   92SAPS     N 8944   0.548   0.314   6.391  0.9208  0.3136 -0.0001
   92SAPS   HN1 8945   0.481   0.275   6.461 -1.5819 -0.3698 -2.5522
   92SAPS   HN2 8946   0.643   0.341   6.422  0.9322  4.2962 -2.7334
   92SAPS   HN3 8947   0.508   0.406   6.364 -0.1092 -0.1508 -0.1246
   92SAPS   C12 8948   0.553   0.232   6.270 -0.1781  0.3162  0.2179
   92SAPS  H12A 8949   0.452   0.199   6.251 -0.0862 -1.4664  2.4112
   92SAPS   C13 8950   0.592   0.323   6.155 -0.3922  0.5137  0.3007
   92SAPS  O13A 8951   0.635   0.440   6.171 -0.1680 -0.6376  0.1849
   92SAPS  O13B 8952   0.588   0.273   6.039  0.4071 -0.1786  0.0312
   92SAPS   C11 8953   0.651   0.112   6.291  0.3258  0.0185 -0.2059
   92SAPS  H11A 8954   0.747   0.142   6.337  0.1800 -1.4603  1.1489
   92SAPS  H11B 8955   0.662   0.068   6.189  0.0105  0.4904 -0.4493
   92SAPS     P 8956   0.664  -0.098   6.457 -0.1002 -0.6340 -0.1082
   92SAPS   O13 8957   0.590  -0.225   6.456  0.3082 -0.7393  0.2596
   92SAPS   O14 8958   0.803  -0.120   6.424  0.0430  0.2674 -0.2076
   92SAPS   O12 8959   0.588   0.009   6.361  0.2807  0.2683  0.4017
   92SAPS   O11 8960   0.655  -0.030   6.602  0.1013  0.2059  0.1636
   92SAPS    C1 8961   0.739   0.077   6.643 -0.1332  0.2096  0.2057
   92SAPS    HA 8962   0.776   0.144   6.562 -1.0625  1.6403  0.9293
   92SAPS    HB 8963   0.670   0.150   6.690  0.6249  2.6941 -2.3047
   92SAPS    C2 8964   0.855   0.027   6.734  1.0119 -0.6184 -0.0631
   92SAPS    HS 8965   0.932  -0.013   6.665 -0.1271 -2.6657 -0.2199
   92SAPS   O21 8966   0.797  -0.083   6.811  0.6791  0.3198  0.2960
   92SAPS   C21 8967   0.886  -0.161   6.854  0.3873 -0.6176  0.7787
   92SAPS   O22 8968   1.006  -0.164   6.823 -0.7095  0.4893  0.0687
   92SAPS   C22 8969   0.836  -0.250   6.971  0.0034 -0.3876 -0.6961
   92SAPS   H2R 8970   0.899  -0.213   7.055 -0.6541  0.0717 -0.3898
   92SAPS   H2S 8971   0.726  -0.242   6.988  0.1403 -1.4037  0.8618
   92SAPS    C3 8972   0.905   0.141   6.823 -0.4054 -0.0956 -1.0862
   92SAPS    HX 8973   0.824   0.170   6.894  1.8968  1.9199  0.9189
   92SAPS    HY 8974   0.915   0.235   6.766 -0.2581  0.0659 -0.7963
   92SAPS   O31 8975   1.028   0.104   6.890  0.2893  0.4397  0.2332
   92SAPS   C31 8976   1.140   0.146   6.835  0.6406 -0.7977  0.4603
   92SAPS   O32 8977   1.155   0.211   6.734 -0.1357  0.4172  0.3110
   92SAPS   C32 8978   1.255   0.101   6.920  0.3585 -0.4620 -0.3094
   92SAPS   H2X 8979   1.303   0.027   6.854  0.2119  0.9855 -2.1231
   92SAPS   H2Y 8980   1.211   0.060   7.013  0.8880 -2.1246 -0.7639
   92SAPS   C23 8981   0.864  -0.402   6.943  0.3985  0.6820 -0.9902
   92SAPS   H3R 8982   0.959  -0.426   6.890  0.6017 -2.3984  0.5293
   92SAPS   H3S 8983   0.777  -0.449   6.891  0.5368 -0.6479 -0.0586
   92SAPS   C24 8984   0.896  -0.475   7.077 -0.4114 -0.2760 -0.1361
   92SAPS   H4R 8985   0.989  -0.438   7.124 -0.9946  0.6460  0.3055
   92SAPS   H4S 8986   0.912  -0.583   7.056  0.4632 -0.1808 -0.0058
   92SAPS   C25 8987   0.781  -0.456   7.174 -0.5927 -0.1720  0.7190
   92SAPS   H5R 8988   0.688  -0.479   7.120 -0.7654 -0.1513  1.0052
   92SAPS   C26 8989   0.787  -0.418   7.305  0.6669  0.2467  0.7175
   92SAPS   H6R 8990   0.686  -0.428   7.346  0.5359 -1.8007 -0.0097
   92SAPS   C27 8991   0.903  -0.381   7.394  0.1062  0.6646 -0.2562
   92SAPS   H7R 8992   0.864  -0.302   7.461  0.7287 -0.6066  1.6838
   92SAPS   H7S 8993   0.992  -0.348   7.337 -0.3696  0.4302 -1.1510
   92SAPS   C28 8994   0.949  -0.501   7.466 -0.6920 -0.0826 -0.3034
   92SAPS   H8R 8995   1.025  -0.559   7.411  0.0856  2.0318 -1.5675
   92SAPS   C29 8996   0.934  -0.541   7.596  0.0304  0.0392 -0.1183
   92SAPS   H9R 8997   0.991  -0.626   7.636  0.0913  0.8389  1.5933
   92SAPS  C210 8998   0.866  -0.473   7.716 -0.1063  0.1241  0.2565
   92SAPS  H10R 8999   0.815  -0.551   7.776  1.3011 -0.1075  1.1956
   92SAPS  H10S 9000   0.793  -0.409   7.664  1.2305  1.9753  0.5756
   92SAPS  C211 9001   0.944  -0.377   7.802  0.0514  0.3175  0.2404
   92SAPS  H11R 9002   0.912  -0.274   7.781 -2.3795 -0.3106  0.5890
   92SAPS  C212 9003   1.028  -0.395   7.901  0.1897  0.7070 -0.0522
   92SAPS  H12R 9004   1.075  -0.313   7.957  2.3301 -0.8604  0.5626
   92SAPS  C213 9005   1.078  -0.523   7.964  0.0586  0.0496 -0.0573
   92SAPS  H13R 9006   1.187  -0.506   7.977  0.1271  0.1973 -0.7652
   92SAPS  H13S 9007   1.083  -0.602   7.885  1.5712 -1.8659  1.8574
   92SAPS  C214 9008   1.018  -0.580   8.093  0.3901 -0.7446  0.1074
   92SAPS  H14R 9009   0.937  -0.653   8.077 -1.8914  1.1322  2.2913
   92SAPS  C215 9010   1.045  -0.530   8.222 -0.4152  0.6829 -0.1965
   92SAPS  H15R 9011   0.989  -0.573   8.306  0.6861 -1.4645 -0.4766
   92SAPS  C216 9012   1.149  -0.425   8.270  0.1415 -0.3377 -0.1414
   92SAPS  H16R 9013   1.180  -0.365   8.181 -1.8011 -0.6368 -1.0748
   92SAPS  H16S 9014   1.236  -0.478   8.313  2.1964  0.3407 -3.1245
   92SAPS  C217 9015   1.105  -0.314   8.369 -0.6332  0.7219  0.4364
   92SAPS  H17R 9016   1.005  -0.276   8.338 -0.9803 -0.9552 -0.6439
   92SAPS  H17S 9017   1.174  -0.227   8.375 -1.8456  1.7262  0.3099
   92SAPS  C218 9018   1.089  -0.365   8.512  0.3259  0.0103  0.6151
   92SAPS  H18R 9019   1.197  -0.382   8.536  0.7984  0.3348 -1.1332
   92SAPS  H18S 9020   1.032  -0.458   8.492  1.6172 -0.8568  0.8232
   92SAPS  C219 9021   1.007  -0.284   8.620 -0.4836  0.6980  0.5655
   92SAPS  H19R 9022   1.029  -0.328   8.720  0.7216  2.0452  0.9300
   92SAPS  H19S 9023   0.904  -0.304   8.583 -0.1154  0.5571 -0.4099
   92SAPS  C220 9024   1.041  -0.137   8.635  0.1702  0.2052  0.4657
   92SAPS  H20R 9025   1.049  -0.078   8.541 -2.4038 -0.1931 -0.0965
   92SAPS  H20S 9026   1.131  -0.127   8.698  0.1353 -3.5208  1.3272
   92SAPS  H20T 9027   0.956  -0.097   8.694 -0.2496 -0.8069  0.5752
   92SAPS   C33 9028   1.349   0.224   6.947 -0.4273  0.1017  0.9058
   92SAPS   H3X 9029   1.366   0.269   6.847  0.3753 -3.7421 -0.8786
   92SAPS   H3Y 9030   1.449   0.183   6.971 -0.6480 -1.3376 -0.4312
   92SAPS   C34 9031   1.295   0.319   7.053 -0.0254  0.3537  0.5025
   92SAPS   H4X 9032   1.245   0.274   7.141 -1.5896  0.8586 -0.0868
   92SAPS   H4Y 9033   1.209   0.368   7.001 -1.2962 -3.0404 -0.8751
   92SAPS   C35 9034   1.410   0.396   7.115 -0.5999 -0.1744 -0.4883
   92SAPS   H5X 9035   1.454   0.476   7.052  0.0620  0.1280  0.3501
   92SAPS   H5Y 9036   1.495   0.324   7.108  0.1427  0.6882 -0.5332
   92SAPS   C36 9037   1.394   0.455   7.250  0.3774  0.3050 -0.4506
   92SAPS   H6X 9038   1.307   0.524   7.246  0.3276  0.1902 -2.0157
   92SAPS   H6Y 9039   1.490   0.508   7.267  0.4071 -0.3924  1.7835
   92SAPS   C37 9040   1.378   0.360   7.362  0.6946 -0.2215 -0.1189
   92SAPS   H7X 9041   1.458   0.283   7.365  0.5533 -0.3917 -0.5404
   92SAPS   H7Y 9042   1.279   0.311   7.348  0.8595 -0.5485 -0.1542
   92SAPS   C38 9043   1.380   0.439   7.501  0.3795  0.0676  0.4510
   92SAPS   H8X 9044   1.323   0.532   7.478  1.7295  1.1595  1.3548
   92SAPS   H8Y 9045   1.487   0.459   7.525  0.7451  2.5333 -2.4645
   92SAPS   C39 9046   1.312   0.363   7.607 -0.3667  0.2671 -0.4226
   92SAPS   H9X 9047   1.339   0.256   7.616 -1.6284  0.0999  2.8391
   92SAPS   H9Y 9048   1.202   0.370   7.592 -0.8846  2.8707  3.3172
   92SAPS  C310 9049   1.320   0.433   7.747 -0.0514  0.5202 -0.1736
   92SAPS  H10X 9050   1.262   0.528   7.738  0.7550  1.2762  1.9553
   92SAPS  H10Y 9051   1.424   0.454   7.782 -0.5547  0.6515  1.2839
   92SAPS  C311 9052   1.253   0.345   7.857 -0.1366 -0.2099 -0.3672
   92SAPS  H11X 9053   1.156   0.315   7.813 -0.3239  0.3398 -0.3427
   92SAPS  H11Y 9054   1.227   0.404   7.948 -0.1583 -0.4318 -0.2290
   92SAPS  C312 9055   1.345   0.223   7.903  0.3368 -0.2057 -0.0805
   92SAPS  H12X 9056   1.371   0.171   7.808 -1.5623  1.5374 -1.6439
   92SAPS  H12Y 9057   1.288   0.156   7.971 -0.7695  1.6717  0.9408
   92SAPS  C313 9058   1.472   0.245   7.978 -0.1873  0.4434  0.3717
   92SAPS  H13X 9059   1.440   0.287   8.075 -2.2569  1.0430 -0.5328
   92SAPS  H13Y 9060   1.541   0.309   7.918 -1.6628 -0.1152 -2.0804
   92SAPS  C314 9061   1.556   0.119   8.008  0.4291  0.5297 -0.2796
   92SAPS  H14X 9062   1.652   0.153   8.053  0.6942  1.9291 -1.8299
   92SAPS  H14Y 9063   1.578   0.064   7.915 -0.6153 -2.3304  1.0503
   92SAPS  C315 9064   1.508   0.015   8.105  1.3596  0.2695  0.1167
   92SAPS  H15X 9065   1.584  -0.065   8.116  2.6466  1.2944 -1.0157
   92SAPS  H15Y 9066   1.418  -0.030   8.058  1.8573 -1.4661  0.7488
   92SAPS  C316 9067   1.466   0.060   8.242 -0.7462  0.4038 -1.2213
   92SAPS  H16X 9068   1.400   0.149   8.251  0.7554  1.4666 -0.2499
   92SAPS  H16Y 9069   1.563   0.084   8.290 -0.6669 -2.6233  0.3283
   92SAPS  C317 9070   1.397  -0.054   8.321 -0.7149 -0.0026  0.1987
   92SAPS  H17X 9071   1.306  -0.085   8.265 -1.1444 -1.4904  1.6355
   92SAPS  H17Y 9072   1.364  -0.014   8.419 -0.4174  1.6767 -0.3540
   92SAPS  C318 9073   1.480  -0.180   8.330  0.3578 -0.2045 -0.1805
   92SAPS  H18X 9074   1.489  -0.231   8.232  0.8330  1.1087 -0.8477
   92SAPS  H18Y 9075   1.440  -0.250   8.407 -0.2460  1.7158  1.3400
   92SAPS  H18Z 9076   1.587  -0.159   8.352 -0.2253  0.6191  2.2426
   93SAPS     N 9077   1.590   6.150   6.265  0.3057 -0.4307 -0.2224
   93SAPS   HN1 9078   1.661   6.075   6.275  1.4723  0.5769 -0.6227
   93SAPS   HN2 9079   1.549   6.169   6.358 -0.2872 -0.8516 -0.3945
   93SAPS   HN3 9080   1.518   6.117   6.198  1.0749  1.5194 -2.1618
   93SAPS   C12 9081   1.644   6.272   6.208  0.7959 -0.5797  0.2196
   93SAPS  H12A 9082   1.738   6.288   6.259  1.4270  0.7787 -1.2637
   93SAPS   C13 9083   1.677   6.259   6.052  0.8738 -0.0817 -1.2153
   93SAPS  O13A 9084   1.668   6.150   5.999 -0.1191 -0.2109  0.1188
   93SAPS  O13B 9085   1.741   6.353   5.998  0.4077 -0.4759  0.0383
   93SAPS   C11 9086   1.547   6.389   6.244 -0.2303 -1.0905 -0.6902
   93SAPS  H11A 9087   1.448   6.374   6.196 -0.1503  1.7292 -1.9133
   93SAPS  H11B 9088   1.574   6.488   6.200 -0.1849 -0.7871  0.0171
   93SAPS     P 9089   1.596   6.504   6.466 -0.1332  0.1275  0.6145
   93SAPS   O13 9090   1.545   6.626   6.401  0.1605  0.5864  0.5688
   93SAPS   O14 9091   1.571   6.491   6.613 -0.0542 -0.1003 -0.5016
   93SAPS   O12 9092   1.531   6.387   6.390 -0.4046  0.0404 -0.2802
   93SAPS   O11 9093   1.747   6.476   6.431  0.6644  0.8378  0.5261
   93SAPS    C1 9094   1.826   6.396   6.514 -0.9053 -0.4322  0.1290
   93SAPS    HA 9095   1.764   6.326   6.574 -1.4515  1.3643  1.7555
   93SAPS    HB 9096   1.896   6.333   6.453 -0.1135 -1.5571  2.1096
   93SAPS    C2 9097   1.929   6.474   6.592  0.1369  0.0548  0.5959
   93SAPS    HS 9098   2.016   6.415   6.629  1.5474  0.4588 -1.8272
   93SAPS   O21 9099   1.863   6.533   6.698 -0.0368  0.1016  0.3328
   93SAPS   C21 9100   1.839   6.450   6.801  0.0738 -0.1587 -1.0470
   93SAPS   O22 9101   1.872   6.332   6.807 -0.1475  0.7467 -0.1072
   93SAPS   C22 9102   1.768   6.520   6.918  0.4677 -0.7000 -0.0496
   93SAPS   H2R 9103   1.820   6.614   6.945  0.0931 -0.4221 -0.3003
   93SAPS   H2S 9104   1.668   6.553   6.883  0.8419 -0.4164 -0.8680
   93SAPS    C3 9105   1.995   6.585   6.504  0.0650  0.7668 -0.2532
   93SAPS    HX 9106   1.911   6.651   6.473 -0.3265 -0.3568 -1.7532
   93SAPS    HY 9107   2.017   6.529   6.411  2.2594  0.9743  0.1067
   93SAPS   O31 9108   2.113   6.640   6.565 -0.2823 -0.6652 -0.0668
   93SAPS   C31 9109   2.091   6.771   6.596 -0.3121 -0.2565  0.2746
   93SAPS   O32 9110   2.001   6.841   6.546  0.5077 -0.2373  0.0872
   93SAPS   C32 9111   2.184   6.817   6.705 -0.3647 -0.1549 -0.3822
   93SAPS   H2X 9112   2.215   6.921   6.681 -1.5993  0.1362 -0.8396
   93SAPS   H2Y 9113   2.271   6.749   6.703 -1.6002 -1.9567  2.1533
   93SAPS   C23 9114   1.738   6.418   7.031  0.1429  0.1291 -0.0799
   93SAPS   H3R 9115   1.822   6.347   7.044  0.7759  0.1060 -3.3354
   93SAPS   H3S 9116   1.662   6.355   6.979 -1.2205  1.3988  0.2893
   93SAPS   C24 9117   1.683   6.493   7.147  0.0451  0.7803 -0.4718
   93SAPS   H4R 9118   1.590   6.541   7.110 -1.7611 -0.9737  1.4715
   93SAPS   H4S 9119   1.765   6.560   7.180 -0.4288  1.4597 -0.6453
   93SAPS   C25 9120   1.646   6.403   7.265  1.1780 -0.6510 -0.3914
   93SAPS   H5R 9121   1.725   6.349   7.319 -1.0299 -1.7872  1.9209
   93SAPS   C26 9122   1.522   6.397   7.319  0.1006  0.3636 -0.0106
   93SAPS   H6R 9123   1.522   6.348   7.417  4.5787  1.4350  0.7329
   93SAPS   C27 9124   1.392   6.465   7.270  0.0755  0.2454 -0.0577
   93SAPS   H7R 9125   1.354   6.406   7.184  0.4800  0.5735 -0.4683
   93SAPS   H7S 9126   1.417   6.565   7.228  2.6736  0.8228  2.5145
   93SAPS   C28 9127   1.281   6.485   7.369 -0.0021  0.2189  1.0846
   93SAPS   H8R 9128   1.205   6.411   7.340  2.4306 -1.1671 -2.5130
   93SAPS   C29 9129   1.270   6.565   7.475 -0.0407 -0.8548  0.1240
   93SAPS   H9R 9130   1.179   6.568   7.536 -0.0604  1.0274  0.0692
   93SAPS  C210 9131   1.378   6.667   7.515 -0.8614 -0.0834  0.5070
   93SAPS  H10R 9132   1.337   6.762   7.474 -1.0147 -1.3016 -2.3832
   93SAPS  H10S 9133   1.478   6.642   7.472 -0.1852  1.9142  0.8244
   93SAPS  C211 9134   1.383   6.696   7.665 -0.2012  0.3269  0.2077
   93SAPS  H11R 9135   1.314   6.772   7.707 -0.9363 -0.7487  1.0082
   93SAPS  C212 9136   1.440   6.606   7.746  0.4369  0.4669  0.3565
   93SAPS  H12R 9137   1.425   6.630   7.852 -0.4572  1.0700  0.1095
   93SAPS  C213 9138   1.512   6.477   7.707  0.7380 -0.4172  0.1935
   93SAPS  H13R 9139   1.450   6.425   7.631  1.1285 -0.0029 -0.4152
   93SAPS  H13S 9140   1.498   6.404   7.790 -0.2972  1.4584  1.7718
   93SAPS  C214 9141   1.657   6.490   7.674  0.0423  0.2115  0.3491
   93SAPS  H14R 9142   1.681   6.505   7.568 -2.9129  0.6242 -0.3635
   93SAPS  C215 9143   1.758   6.490   7.769 -0.3627 -0.1172  0.6301
   93SAPS  H15R 9144   1.862   6.497   7.734 -0.5177 -0.3714  0.0976
   93SAPS  C216 9145   1.734   6.493   7.919  1.4762  0.4979  0.3628
   93SAPS  H16R 9146   1.625   6.491   7.943  0.8131  1.9213 -2.2073
   93SAPS  H16S 9147   1.764   6.595   7.950 -0.2891  1.1715 -0.0179
   93SAPS  C217 9148   1.805   6.385   8.005  0.3548  0.6985  0.1634
   93SAPS  H17R 9149   1.916   6.395   7.997  0.2155  1.3138 -1.0915
   93SAPS  H17S 9150   1.793   6.287   7.953  1.1787  1.0076 -0.6357
   93SAPS  C218 9151   1.763   6.378   8.150  0.6827 -0.0246 -0.3994
   93SAPS  H18R 9152   1.676   6.310   8.162 -0.1418  1.2956  1.7722
   93SAPS  H18S 9153   1.725   6.476   8.185 -0.1941 -0.4943  0.0153
   93SAPS  C219 9154   1.883   6.334   8.240 -0.3776  0.0237  0.6979
   93SAPS  H19R 9155   1.950   6.418   8.270 -1.2179  0.6896  0.7709
   93SAPS  H19S 9156   1.944   6.270   8.173 -3.5761 -1.3502 -1.1310
   93SAPS  C220 9157   1.842   6.268   8.372  0.5705  0.3257 -0.0643
   93SAPS  H20R 9158   1.932   6.263   8.437  0.4492  1.0930  0.1723
   93SAPS  H20S 9159   1.799   6.170   8.345 -1.3966  0.6305  1.7023
   93SAPS  H20T 9160   1.765   6.333   8.419  0.1877 -0.4448  0.3773
   93SAPS   C33 9161   2.133   6.800   6.846  0.7844  0.1764  0.1436
   93SAPS   H3X 9162   2.088   6.699   6.862 -0.4476  0.2224 -2.5287
   93SAPS   H3Y 9163   2.057   6.879   6.863 -0.0526 -0.3656 -0.9823
   93SAPS   C34 9164   2.243   6.815   6.952 -0.5700 -0.3814  0.6635
   93SAPS   H4X 9165   2.294   6.912   6.939 -1.0077 -0.2437 -0.0799
   93SAPS   H4Y 9166   2.317   6.733   6.945  1.3723  1.2343  1.4532
   93SAPS   C35 9167   2.196   6.808   7.098  0.2167  0.3477 -0.9547
   93SAPS   H5X 9168   2.133   6.899   7.111 -0.0182  0.2547 -1.4227
   93SAPS   H5Y 9169   2.284   6.825   7.164 -0.3253 -3.4376  1.0412
   93SAPS   C36 9170   2.122   6.675   7.138  0.2471 -0.0446  0.0378
   93SAPS   H6X 9171   2.180   6.596   7.085 -0.9125  0.2731 -1.7932
   93SAPS   H6Y 9172   2.018   6.682   7.100  1.0967  2.7709 -2.0490
   93SAPS   C37 9173   2.128   6.644   7.292  0.0770 -0.4266 -0.1768
   93SAPS   H7X 9174   2.079   6.730   7.342  1.0190  0.5510 -0.8875
   93SAPS   H7Y 9175   2.233   6.640   7.330 -0.3760  0.9366  1.3142
   93SAPS   C38 9176   2.065   6.504   7.320  0.2661  0.4478 -0.1021
   93SAPS   H8X 9177   2.135   6.428   7.279 -0.2656  0.5064 -1.1572
   93SAPS   H8Y 9178   1.973   6.489   7.259  0.6968  1.0444 -0.9229
   93SAPS   C39 9179   2.052   6.474   7.475 -0.5916  0.2912  0.0890
   93SAPS   H9X 9180   2.015   6.371   7.494 -1.2072  0.3020 -1.0107
   93SAPS   H9Y 9181   1.979   6.543   7.523 -0.9934  1.1217 -1.6264
   93SAPS  C310 9182   2.187   6.485   7.551  1.0817  0.5020 -0.0597
   93SAPS  H10X 9183   2.245   6.562   7.494 -1.3491  2.0076 -0.6457
   93SAPS  H10Y 9184   2.234   6.387   7.528 -1.7994 -0.6409 -1.5464
   93SAPS  C311 9185   2.169   6.514   7.708  0.7758  0.0462  0.6696
   93SAPS  H11X 9186   2.117   6.422   7.742 -1.9812  2.0491  2.3453
   93SAPS  H11Y 9187   2.105   6.604   7.722 -1.4474 -1.0919 -1.3536
   93SAPS  C312 9188   2.291   6.521   7.796 -0.1227  0.1657 -0.1642
   93SAPS  H12X 9189   2.353   6.606   7.760  0.3793 -0.9986 -2.1328
   93SAPS  H12Y 9190   2.344   6.425   7.778  0.6914  0.5201  0.2394
   93SAPS  C313 9191   2.258   6.539   7.940  0.2042 -1.0022  0.5922
   93SAPS  H13X 9192   2.171   6.481   7.976  0.3049 -0.7361  1.2802
   93SAPS  H13Y 9193   2.215   6.641   7.947 -0.6799 -1.2989 -0.3136
   93SAPS  C314 9194   2.382   6.518   8.029  0.3632 -0.2362  0.4526
   93SAPS  H14X 9195   2.467   6.581   7.994 -0.8851  2.1517  1.4857
   93SAPS  H14Y 9196   2.409   6.410   8.018  0.5822 -0.3640  1.9910
   93SAPS  C315 9197   2.357   6.543   8.182  0.0797  0.1340  0.3954
   93SAPS  H15X 9198   2.447   6.497   8.229 -1.1248 -3.7869 -0.7961
   93SAPS  H15Y 9199   2.272   6.479   8.213  1.2318 -2.1854 -0.9767
   93SAPS  C316 9200   2.333   6.692   8.222 -0.1446  0.0617  0.0958
   93SAPS  H16X 9201   2.279   6.692   8.319 -3.8718 -1.0465 -1.7848
   93SAPS  H16Y 9202   2.260   6.754   8.165  2.8422  1.8838 -2.0041
   93SAPS  C317 9203   2.466   6.761   8.228  0.1968  0.0564 -0.3743
   93SAPS  H17X 9204   2.512   6.788   8.130 -0.1256  2.7224  0.1550
   93SAPS  H17Y 9205   2.529   6.687   8.283 -0.7647 -0.4227  0.1068
   93SAPS  C318 9206   2.456   6.891   8.313 -0.8811 -0.2630 -0.2377
   93SAPS  H18X 9207   2.405   6.971   8.254 -0.4763  0.4123  0.3038
   93SAPS  H18Y 9208   2.556   6.930   8.340 -0.9059  1.2692 -2.1218
   93SAPS  H18Z 9209   2.411   6.860   8.410  0.5301 -0.1761  0.4732
   94SAPS     N 9210   0.559   1.427   5.953 -0.4352  0.6640  0.3252
   94SAPS   HN1 9211   0.466   1.399   5.916 -0.5869 -0.7331  1.6655
   94SAPS   HN2 9212   0.565   1.410   6.055  0.2711  2.9775  0.7357
   94SAPS   HN3 9213   0.585   1.527   5.951  0.2363  0.4990 -1.9590
   94SAPS   C12 9214   0.653   1.341   5.875 -0.1522 -0.2037  0.2445
   94SAPS  H12A 9215   0.611   1.241   5.875  1.9831 -1.1732  2.1777
   94SAPS   C13 9216   0.656   1.383   5.726 -0.5867 -0.2118  0.8616
   94SAPS  O13A 9217   0.588   1.480   5.687 -0.3828 -0.5769  0.0468
   94SAPS  O13B 9218   0.719   1.308   5.648  0.1237  0.3634  0.0167
   94SAPS   C11 9219   0.802   1.337   5.945  0.7491  0.7767 -0.6635
   94SAPS  H11A 9220   0.859   1.270   5.877  1.6526  3.2150 -2.4674
   94SAPS  H11B 9221   0.791   1.294   6.046  0.7014  1.8787 -0.1926
   94SAPS     P 9222   1.011   1.462   6.002  0.1119 -0.1115 -0.1041
   94SAPS   O13 9223   1.079   1.351   5.938 -0.0603  0.5436 -0.1392
   94SAPS   O14 9224   1.071   1.593   5.972  0.0921  0.2576 -0.3283
   94SAPS   O12 9225   0.861   1.467   5.956 -0.3059  0.2598  0.0706
   94SAPS   O11 9226   1.000   1.434   6.159  0.1329 -0.4776 -0.0478
   94SAPS    C1 9227   0.923   1.517   6.251  0.1543  0.0150  0.9464
   94SAPS    HA 9228   0.889   1.614   6.208  1.9763  1.2638  2.1690
   94SAPS    HB 9229   0.838   1.464   6.297  0.0302  1.1757  2.1102
   94SAPS    C2 9230   1.023   1.560   6.366 -0.4160  0.1359 -0.1093
   94SAPS    HS 9231   1.055   1.465   6.413 -0.0317  1.1978  1.9050
   94SAPS   O21 9232   0.949   1.641   6.460  0.1510 -0.0052 -0.4850
   94SAPS   C21 9233   0.953   1.598   6.581  0.5321 -0.6965 -0.0250
   94SAPS   O22 9234   0.999   1.495   6.624  0.4606  0.0686 -0.2899
   94SAPS   C22 9235   0.899   1.707   6.666 -0.1638 -0.2773 -0.3340
   94SAPS   H2R 9236   0.987   1.741   6.724 -0.4963 -2.0031  1.2670
   94SAPS   H2S 9237   0.848   1.780   6.599  0.5764 -0.9687 -1.6901
   94SAPS    C3 9238   1.141   1.648   6.303 -0.6090 -0.3502  0.2003
   94SAPS    HX 9239   1.089   1.742   6.275  0.2570  0.1808  0.3378
   94SAPS    HY 9240   1.190   1.606   6.212  0.2558 -1.8170  1.2966
   94SAPS   O31 9241   1.240   1.663   6.408 -0.3916  0.2699 -0.0671
   94SAPS   C31 9242   1.243   1.782   6.466 -1.0191  0.0011  0.5232
   94SAPS   O32 9243   1.170   1.881   6.447 -0.3616  0.5953 -1.0158
   94SAPS   C32 9244   1.353   1.787   6.570  0.7664 -0.1717  0.1687
   94SAPS   H2X 9245   1.454   1.773   6.525  0.8734  2.1176 -0.4192
   94SAPS   H2Y 9246   1.326   1.701   6.635 -1.3672  0.2883 -0.0450
   94SAPS   C23 9247   0.809   1.648   6.773  0.1473 -0.2543  0.0040
   94SAPS   H3R 9248   0.874   1.591   6.843  0.2901  2.8226  2.5540
   94SAPS   H3S 9249   0.742   1.568   6.734  1.0458 -2.0333  1.9516
   94SAPS   C24 9250   0.715   1.749   6.841  0.3829  0.3076 -0.9765
   94SAPS   H4R 9251   0.661   1.801   6.759  2.9258  0.0579 -2.9540
   94SAPS   H4S 9252   0.774   1.822   6.900  0.4249  0.5485 -1.3121
   94SAPS   C25 9253   0.615   1.673   6.940 -0.6682 -0.2544  0.7580
   94SAPS   H5R 9254   0.573   1.580   6.899 -2.7797  0.5048  1.1054
   94SAPS   C26 9255   0.588   1.707   7.064  0.0860  0.4901  0.1484
   94SAPS   H6R 9256   0.523   1.642   7.124 -0.9729  1.0703 -0.3427
   94SAPS   C27 9257   0.639   1.832   7.134  1.2897  0.3119  0.8746
   94SAPS   H7R 9258   0.605   1.926   7.084  1.0387  0.7250  1.7857
   94SAPS   H7S 9259   0.750   1.829   7.139  1.3463  2.0511  1.3744
   94SAPS   C28 9260   0.593   1.836   7.281 -0.1899  0.0027  0.9240
   94SAPS   H8R 9261   0.630   1.759   7.351 -0.8692 -1.6468 -0.4784
   94SAPS   C29 9262   0.541   1.942   7.348 -0.3489  0.1420  0.5658
   94SAPS   H9R 9263   0.499   1.927   7.449 -0.6478  1.6590  0.6894
   94SAPS  C210 9264   0.493   2.072   7.294 -0.4536 -0.0118  0.5889
   94SAPS  H10R 9265   0.384   2.058   7.280 -0.1983 -1.4509 -0.1788
   94SAPS  H10S 9266   0.535   2.095   7.194  1.3171  1.2475  1.5587
   94SAPS  C211 9267   0.519   2.194   7.381 -0.0064 -1.1031  0.2138
   94SAPS  H11R 9268   0.602   2.257   7.346 -0.8847  2.2984  3.4482
   94SAPS  C212 9269   0.454   2.241   7.480  0.3420  0.1133  0.1910
   94SAPS  H12R 9270   0.496   2.325   7.538  0.3341 -1.2632  2.2854
   94SAPS  C213 9271   0.335   2.175   7.542 -0.0305  0.2017 -0.0473
   94SAPS  H13R 9272   0.355   2.147   7.647 -0.6691 -1.1416 -0.2621
   94SAPS  H13S 9273   0.317   2.075   7.497  1.1809 -0.6115  1.1929
   94SAPS  C214 9274   0.217   2.270   7.539 -0.0289 -0.2388  0.3432
   94SAPS  H14R 9275   0.239   2.378   7.546  0.5974 -0.3344 -0.0581
   94SAPS  C215 9276   0.087   2.231   7.545 -0.9906  0.8976  0.2041
   94SAPS  H15R 9277   0.018   2.316   7.534  0.7051  2.7020  2.4741
   94SAPS  C216 9278   0.029   2.094   7.556  0.4614 -0.2617  0.1268
   94SAPS  H16R 9279   0.107   2.014   7.558  0.0894 -0.6218  0.5956
   94SAPS  H16S 9280  -0.028   2.072   7.463  1.7015  1.7533 -1.1821
   94SAPS  C217 9281  -0.075   2.074   7.668 -0.0466 -0.5712  0.3655
   94SAPS  H17R 9282  -0.032   2.112   7.763 -1.3713 -0.8062  1.0783
   94SAPS  H17S 9283  -0.091   1.965   7.680 -1.1755 -0.3149  1.3660
   94SAPS  C218 9284  -0.206   2.146   7.646 -0.2796  0.3819 -0.1748
   94SAPS  H18R 9285  -0.253   2.125   7.547  0.5314 -1.3294 -0.2490
   94SAPS  H18S 9286  -0.195   2.254   7.666  2.3792  0.1076  0.1575
   94SAPS  C219 9287  -0.309   2.100   7.751  0.0403  0.3505 -0.8003
   94SAPS  H19R 9288  -0.253   2.074   7.843 -1.2620 -2.0771 -0.6238
   94SAPS  H19S 9289  -0.361   2.005   7.728  1.2449 -0.2493 -1.1502
   94SAPS  C220 9290  -0.416   2.209   7.762 -0.2738 -0.1920 -0.3131
   94SAPS  H20R 9291  -0.372   2.311   7.774 -2.3373  0.8548 -1.1631
   94SAPS  H20S 9292  -0.478   2.195   7.853  1.8050 -0.0284  1.2077
   94SAPS  H20T 9293  -0.477   2.222   7.670  0.1616  1.6188 -0.3905
   94SAPS   C33 9294   1.340   1.917   6.661  0.2443 -0.3630  0.6064
   94SAPS   H3X 9295   1.248   1.924   6.722 -0.1391  0.4998 -0.0530
   94SAPS   H3Y 9296   1.338   2.011   6.602  0.7787 -1.3055 -0.9932
   94SAPS   C34 9297   1.465   1.920   6.747  0.3898 -0.1546  0.3842
   94SAPS   H4X 9298   1.550   1.940   6.678 -2.2225 -1.4681 -3.5296
   94SAPS   H4Y 9299   1.482   1.818   6.787  0.1345 -0.0035  0.8823
   94SAPS   C35 9300   1.461   2.015   6.869 -0.0256  0.0063 -0.4429
   94SAPS   H5X 9301   1.410   2.112   6.855  1.3510  0.8214  0.0574
   94SAPS   H5Y 9302   1.565   2.033   6.904 -0.5932  1.9428  0.3639
   94SAPS   C36 9303   1.388   1.934   6.975  0.1934  0.0223 -0.0530
   94SAPS   H6X 9304   1.439   1.836   6.983  0.3030  0.0518 -0.3893
   94SAPS   H6Y 9305   1.284   1.918   6.937 -0.4877  1.7266  0.9942
   94SAPS   C37 9306   1.396   2.007   7.108 -0.5261  0.2531 -0.9189
   94SAPS   H7X 9307   1.348   2.107   7.101  0.2763  0.7513  0.4803
   94SAPS   H7Y 9308   1.502   2.030   7.130 -0.3619 -2.1996  1.3772
   94SAPS   C38 9309   1.339   1.926   7.223 -0.3377 -0.5874 -0.1024
   94SAPS   H8X 9310   1.361   1.820   7.202 -0.2930 -1.0675  2.1411
   94SAPS   H8Y 9311   1.228   1.940   7.222 -0.4227 -1.2530 -0.1938
   94SAPS   C39 9312   1.407   1.980   7.359 -0.2729  0.8483  0.0816
   94SAPS   H9X 9313   1.358   2.075   7.390  0.7689  0.8679  1.8111
   94SAPS   H9Y 9314   1.517   1.993   7.360 -0.1198 -0.3109 -0.3615
   94SAPS  C310 9315   1.388   1.886   7.482 -0.3707  0.0795  0.8304
   94SAPS  H10X 9316   1.452   1.796   7.466 -3.1171 -1.5683 -2.0507
   94SAPS  H10Y 9317   1.283   1.851   7.482 -0.3709 -0.1367 -1.9450
   94SAPS  C311 9318   1.417   1.953   7.614 -0.4456 -0.2165 -1.1011
   94SAPS  H11X 9319   1.339   2.030   7.636 -0.9580 -0.7267 -1.0955
   94SAPS  H11Y 9320   1.516   2.003   7.617 -0.8536  0.6036 -0.8832
   94SAPS  C312 9321   1.397   1.857   7.728 -0.3136  0.0968 -0.1749
   94SAPS  H12X 9322   1.466   1.773   7.709 -0.4342  0.1772 -0.9878
   94SAPS  H12Y 9323   1.292   1.823   7.714  0.1059 -0.8815 -0.9942
   94SAPS  C313 9324   1.434   1.905   7.868 -0.1291  0.0803  0.1873
   94SAPS  H13X 9325   1.377   2.000   7.871 -1.3938 -0.6284 -0.5435
   94SAPS  H13Y 9326   1.542   1.927   7.883 -0.3938 -0.4567  4.1809
   94SAPS  C314 9327   1.386   1.813   7.984  0.1784  0.2146  0.6961
   94SAPS  H14X 9328   1.466   1.739   8.005 -1.1186 -1.0200  1.4732
   94SAPS  H14Y 9329   1.303   1.752   7.943  0.5991  0.0937  0.0043
   94SAPS  C315 9330   1.334   1.886   8.106 -0.0968 -0.2708 -0.2555
   94SAPS  H15X 9331   1.249   1.953   8.084 -1.5795 -1.7133  0.8235
   94SAPS  H15Y 9332   1.420   1.948   8.139 -0.2541  0.4060 -1.0803
   94SAPS  C316 9333   1.300   1.790   8.216 -0.9859  0.0165 -0.6896
   94SAPS  H16X 9334   1.390   1.736   8.252 -0.7077  0.3834 -0.8197
   94SAPS  H16Y 9335   1.233   1.715   8.171 -1.6227 -1.1301  1.9790
   94SAPS  C317 9336   1.226   1.859   8.332 -0.8247 -0.3763  0.1562
   94SAPS  H17X 9337   1.224   1.800   8.426 -2.5707 -1.3419 -0.4451
   94SAPS  H17Y 9338   1.120   1.876   8.304  0.0167  0.2327 -3.0954
   94SAPS  C318 9339   1.284   1.999   8.367 -0.4297  0.1270  0.5140
   94SAPS  H18X 9340   1.236   2.041   8.458 -0.5612  1.7339 -0.2613
   94SAPS  H18Y 9341   1.261   2.076   8.291  1.3514  1.6550  1.4603
   94SAPS  H18Z 9342   1.392   1.984   8.387 -0.5368 -1.0272  0.3210
   95SAPS     N 9343   5.595   0.604   6.134 -0.4414 -0.1678 -0.0113
   95SAPS   HN1 9344   5.517   0.671   6.151  1.2679  1.1433  3.6881
   95SAPS   HN2 9345   5.639   0.581   6.226 -1.0051  0.0817  0.3253
   95SAPS   HN3 9346   5.665   0.636   6.065 -1.5972  1.6001 -0.4105
   95SAPS   C12 9347   5.536   0.477   6.063 -0.5101  0.5621 -0.2560
   95SAPS  H12A 9348   5.453   0.439   6.120 -0.0083 -2.8185 -1.5295
   95SAPS   C13 9349   5.473   0.504   5.928  0.5060 -0.1143  0.4396
   95SAPS  O13A 9350   5.453   0.624   5.887 -0.4110  0.1348  0.7339
   95SAPS  O13B 9351   5.417   0.397   5.874 -0.1759 -0.0898 -0.1838
   95SAPS   C11 9352   5.651   0.374   6.045  0.3138 -0.3184 -0.8146
   95SAPS  H11A 9353   5.719   0.411   5.965 -0.2145 -0.9411 -1.5601
   95SAPS  H11B 9354   5.600   0.279   6.020 -2.0566  0.6964 -0.0786
   95SAPS     P 9355   5.861   0.257   6.161  0.1517 -0.3162 -0.5301
   95SAPS   O13 9356   5.847   0.153   6.055 -0.4499 -0.0196  0.5001
   95SAPS   O14 9357   5.983   0.336   6.147  0.6880 -0.3883  0.3876
   95SAPS   O12 9358   5.732   0.363   6.165  0.3356 -0.4382 -0.0204
   95SAPS   O11 9359   5.848   0.184   6.300 -0.2352  0.6699 -0.0556
   95SAPS    C1 9360   5.721   0.174   6.366  0.3670 -0.0808 -0.1326
   95SAPS    HA 9361   5.634   0.178   6.296  0.5161  0.2177 -0.3015
   95SAPS    HB 9362   5.722   0.073   6.413  0.2061  0.8377  1.9340
   95SAPS    C2 9363   5.706   0.282   6.472  0.1659  0.1334  0.7727
   95SAPS    HS 9364   5.712   0.381   6.422  1.1223  0.3319  1.2612
   95SAPS   O21 9365   5.818   0.270   6.568 -0.1902 -0.1935 -0.1066
   95SAPS   C21 9366   5.859   0.392   6.618  0.0604 -0.0539  0.5863
   95SAPS   O22 9367   5.814   0.499   6.583 -0.0534 -0.1515  0.2191
   95SAPS   C22 9368   5.973   0.373   6.716 -0.0065  0.4395 -0.2014
   95SAPS   H2R 9369   6.006   0.268   6.734 -1.5208 -0.1001 -0.4314
   95SAPS   H2S 9370   6.056   0.442   6.693  0.8859  1.1902  4.3454
   95SAPS    C3 9371   5.569   0.275   6.545  0.1854 -0.0829 -0.0928
   95SAPS    HX 9372   5.576   0.197   6.624 -0.4235  1.7120  1.8124
   95SAPS    HY 9373   5.504   0.245   6.459  0.4961 -0.2075 -0.2880
   95SAPS   O31 9374   5.536   0.393   6.624 -0.5579  0.2250 -0.0901
   95SAPS   C31 9375   5.504   0.499   6.551  0.8835  0.2277  0.6301
   95SAPS   O32 9376   5.493   0.495   6.427 -0.1152  0.2285  0.0662
   95SAPS   C32 9377   5.448   0.608   6.640 -0.3442 -0.5674 -1.1153
   95SAPS   H2X 9378   5.413   0.570   6.739 -0.7278  2.2794 -0.0497
   95SAPS   H2Y 9379   5.352   0.638   6.592 -0.3246  1.6260  0.1097
   95SAPS   C23 9380   5.921   0.418   6.857  0.2377 -0.3549  0.1918
   95SAPS   H3R 9381   5.828   0.362   6.881  0.8294 -1.9603 -1.0879
   95SAPS   H3S 9382   5.878   0.520   6.844 -1.1855 -0.4135  3.5487
   95SAPS   C24 9383   6.028   0.422   6.966  0.4606  0.3630  0.2911
   95SAPS   H4R 9384   6.001   0.492   7.048  2.0807  0.5799  0.6659
   95SAPS   H4S 9385   6.116   0.460   6.910  1.4415 -3.9525 -1.4845
   95SAPS   C25 9386   6.072   0.275   7.006 -0.6870  0.4946 -0.1927
   95SAPS   H5R 9387   6.118   0.217   6.925  1.0168  1.2931  0.1494
   95SAPS   C26 9388   6.048   0.223   7.125  0.5218  0.2841 -0.1028
   95SAPS   H6R 9389   6.085   0.122   7.147  1.2951  0.0654 -2.1748
   95SAPS   C27 9390   5.965   0.289   7.236  0.4866  0.1578 -0.4102
   95SAPS   H7R 9391   5.912   0.206   7.288  0.9679  1.1271  1.7593
   95SAPS   H7S 9392   5.899   0.364   7.186  0.3368 -0.1745 -0.7189
   95SAPS   C28 9393   6.046   0.355   7.345  0.8393  0.4126  0.1326
   95SAPS   H8R 9394   6.088   0.451   7.312 -2.3566  2.1918  0.8654
   95SAPS   C29 9395   6.065   0.313   7.472 -0.1301  0.5046 -0.5363
   95SAPS   H9R 9396   6.123   0.379   7.539 -1.2538  1.6424 -0.6572
   95SAPS  C210 9397   6.011   0.191   7.541  0.0416 -0.3903 -0.0113
   95SAPS  H10R 9398   6.001   0.106   7.470  0.1086  1.5485 -2.4361
   95SAPS  H10S 9399   5.911   0.214   7.584 -0.0631 -3.6927  1.8451
   95SAPS  C211 9400   6.098   0.148   7.660 -0.5971 -0.0875  0.1073
   95SAPS  H11R 9401   6.176   0.072   7.643 -0.8109 -0.5725  1.2059
   95SAPS  C212 9402   6.080   0.183   7.792  0.0978  0.2471  0.4027
   95SAPS  H12R 9403   6.154   0.147   7.864  1.0146  1.5459  0.1418
   95SAPS  C213 9404   5.975   0.274   7.845  0.1524  0.2701  0.3957
   95SAPS  H13R 9405   5.887   0.280   7.777 -1.4298  0.6262  2.3713
   95SAPS  H13S 9406   6.009   0.377   7.867  2.1202 -0.4442  0.9162
   95SAPS  C214 9407   5.929   0.206   7.976  0.3981 -0.8694  0.5151
   95SAPS  H14R 9408   5.870   0.117   7.952 -1.4762  0.4111  0.1051
   95SAPS  C215 9409   5.937   0.255   8.101 -1.0741  0.6036 -0.6114
   95SAPS  H15R 9410   5.916   0.179   8.178 -1.8010 -1.0852 -2.3992
   95SAPS  C216 9411   5.988   0.386   8.156  0.8181 -0.0487 -0.1600
   95SAPS  H16R 9412   5.915   0.426   8.229 -0.5874 -2.3532 -0.2192
   95SAPS  H16S 9413   6.014   0.464   8.081  1.1305 -1.5254 -1.6367
   95SAPS  C217 9414   6.122   0.363   8.232 -0.2533 -0.1976  0.0712
   95SAPS  H17R 9415   6.203   0.334   8.163 -0.7307  0.3209 -0.7294
   95SAPS  H17S 9416   6.101   0.291   8.314 -2.3635 -2.3913 -2.2173
   95SAPS  C218 9417   6.174   0.477   8.319  0.8427 -0.3351 -0.8222
   95SAPS  H18R 9418   6.102   0.524   8.389 -1.2016 -3.3250 -0.7439
   95SAPS  H18S 9419   6.214   0.552   8.248 -1.1790  3.1064  1.4021
   95SAPS  C219 9420   6.292   0.434   8.408  0.1623  0.3445  0.6283
   95SAPS  H19R 9421   6.375   0.411   8.338  0.6903  1.3261  0.9182
   95SAPS  H19S 9422   6.261   0.338   8.455  0.0572  0.6025  1.0928
   95SAPS  C220 9423   6.352   0.539   8.510 -0.2409  0.4944 -0.3363
   95SAPS  H20R 9424   6.438   0.492   8.562 -1.1630 -0.7794  0.1043
   95SAPS  H20S 9425   6.277   0.561   8.589 -1.4198 -0.4638 -1.1417
   95SAPS  H20T 9426   6.390   0.629   8.457 -2.3510  0.3532 -2.2678
   95SAPS   C33 9427   5.533   0.733   6.654 -0.3467  0.1731 -0.5263
   95SAPS   H3X 9428   5.467   0.822   6.665  0.1246  0.7933 -2.4284
   95SAPS   H3Y 9429   5.584   0.739   6.555  0.7692  1.2283  0.0916
   95SAPS   C34 9430   5.635   0.725   6.768  0.3248 -0.0679  0.9253
   95SAPS   H4X 9431   5.699   0.815   6.760 -0.3115  0.2754 -1.0756
   95SAPS   H4Y 9432   5.710   0.646   6.744  0.7365  0.3500  0.8273
   95SAPS   C35 9433   5.579   0.718   6.909 -0.2217  0.1541 -0.7260
   95SAPS   H5X 9434   5.499   0.643   6.918  0.0019  0.0854  1.0630
   95SAPS   H5Y 9435   5.535   0.814   6.945  0.4285  0.3014 -0.2865
   95SAPS   C36 9436   5.699   0.685   7.002  0.2559 -0.4339 -0.1753
   95SAPS   H6X 9437   5.784   0.751   6.975  0.4821 -0.1487  1.1201
   95SAPS   H6Y 9438   5.728   0.579   6.986  0.4864 -0.4718  0.4613
   95SAPS   C37 9439   5.653   0.713   7.144  0.2157  0.5836  0.4417
   95SAPS   H7X 9440   5.560   0.658   7.170  0.7032 -0.3342  0.3005
   95SAPS   H7Y 9441   5.615   0.815   7.166  0.3649  0.5567  0.8249
   95SAPS   C38 9442   5.769   0.665   7.232 -0.0973 -0.6856  0.2577
   95SAPS   H8X 9443   5.855   0.734   7.216 -0.5454 -0.4843 -1.5156
   95SAPS   H8Y 9444   5.811   0.567   7.201  0.7489  0.0590 -1.0963
   95SAPS   C39 9445   5.754   0.671   7.386 -0.3528  0.6231  0.1256
   95SAPS   H9X 9446   5.687   0.583   7.397  0.8293 -0.5724 -1.6791
   95SAPS   H9Y 9447   5.706   0.768   7.409  0.5232  1.7094 -2.3646
   95SAPS  C310 9448   5.890   0.657   7.466  0.1341  0.2266 -0.2150
   95SAPS  H10X 9449   5.921   0.761   7.489 -0.9687  0.5380 -0.0929
   95SAPS  H10Y 9450   5.967   0.622   7.393  2.3541  0.7826  1.7460
   95SAPS  C311 9451   5.883   0.568   7.589 -0.2201  0.5694 -0.2966
   95SAPS  H11X 9452   5.983   0.553   7.633  1.5856  0.4873 -4.0712
   95SAPS  H11Y 9453   5.846   0.468   7.557 -3.5859  0.9370  1.9141
   95SAPS  C312 9454   5.793   0.623   7.699  0.0757  0.5454  0.4416
   95SAPS  H12X 9455   5.818   0.559   7.786 -1.9231 -1.8778 -0.6237
   95SAPS  H12Y 9456   5.686   0.612   7.669 -0.4690  2.3498  1.5887
   95SAPS  C313 9457   5.824   0.768   7.744 -0.2987  0.6451  0.2161
   95SAPS  H13X 9458   5.800   0.841   7.664  2.3055 -0.6287 -1.9228
   95SAPS  H13Y 9459   5.934   0.776   7.757  0.0914 -0.5138 -1.8890
   95SAPS  C314 9460   5.752   0.802   7.874  0.3320 -0.4610  0.1147
   95SAPS  H14X 9461   5.641   0.797   7.867  0.4211 -1.1341 -1.2015
   95SAPS  H14Y 9462   5.762   0.912   7.888 -1.2055 -0.1262 -1.1257
   95SAPS  C315 9463   5.808   0.735   8.003 -0.7999 -0.5899 -0.7929
   95SAPS  H15X 9464   5.919   0.742   8.004 -0.6590 -2.0730  1.3745
   95SAPS  H15Y 9465   5.789   0.628   8.025 -0.4293 -0.1701  1.8432
   95SAPS  C316 9466   5.783   0.812   8.133  0.6279 -0.0499 -0.3503
   95SAPS  H16X 9467   5.813   0.919   8.134  0.1836  0.0904 -1.2910
   95SAPS  H16Y 9468   5.847   0.775   8.216 -1.8303 -1.8180  0.8942
   95SAPS  C317 9469   5.636   0.798   8.186 -0.4461 -0.9801  0.3225
   95SAPS  H17X 9470   5.616   0.699   8.232 -0.5089 -0.3746  1.6473
   95SAPS  H17Y 9471   5.569   0.794   8.098  0.3571 -0.6322 -0.3221
   95SAPS  C318 9472   5.590   0.916   8.291  0.3213 -0.1225  0.7637
   95SAPS  H18X 9473   5.482   0.901   8.312  0.3561  0.1053  1.1114
   95SAPS  H18Y 9474   5.602   1.021   8.256  0.1907 -0.1153  0.7404
   95SAPS  H18Z 9475   5.642   0.904   8.389  1.5331 -0.1007  0.1409
   96SAPS     N 9476   0.006   0.783   6.214  0.3143 -0.0984 -0.2693
   96SAPS   HN1 9477   0.076   0.756   6.285 -0.7588  1.3679  1.4380
   96SAPS   HN2 9478  -0.015   0.703   6.152  1.7787 -0.7249  0.0074
   96SAPS   HN3 9479   0.040   0.864   6.158  0.5972 -0.0397 -0.0129
   96SAPS   C12 9480  -0.115   0.821   6.284  0.5481  0.6601 -0.2087
   96SAPS  H12A 9481  -0.181   0.863   6.209 -0.3811 -0.1823  0.0989
   96SAPS   C13 9482  -0.184   0.699   6.350 -0.8711 -0.0590 -0.2675
   96SAPS  O13A 9483  -0.119   0.596   6.373  0.6139 -0.5847 -0.1089
   96SAPS  O13B 9484  -0.304   0.716   6.391  0.2506  0.0791 -0.9656
   96SAPS   C11 9485  -0.087   0.931   6.398 -0.4460 -0.0392 -0.0774
   96SAPS  H11A 9486  -0.013   0.879   6.462 -0.4133  1.5652  1.2743
   96SAPS  H11B 9487  -0.178   0.934   6.462  1.6190  1.3172  3.0388
   96SAPS     P 9488  -0.131   1.156   6.294  0.1972 -0.0521 -0.3218
   96SAPS   O13 9489  -0.064   1.288   6.278 -0.6007 -0.7064 -0.4294
   96SAPS   O14 9490  -0.190   1.094   6.177 -0.3545 -0.4339  0.1185
   96SAPS   O12 9491  -0.026   1.054   6.359  0.1497 -0.0966  0.0006
   96SAPS   O11 9492  -0.242   1.165   6.407  0.1659 -0.2735  0.1276
   96SAPS    C1 9493  -0.208   1.230   6.527  0.3237  0.2830 -0.1426
   96SAPS    HA 9494  -0.098   1.246   6.538  0.5523 -1.2094 -0.0801
   96SAPS    HB 9495  -0.240   1.337   6.528  0.7355  0.4101  1.1919
   96SAPS    C2 9496  -0.272   1.166   6.647  0.4282 -0.4115  0.1980
   96SAPS    HS 9497  -0.293   1.244   6.724 -0.2919 -2.0358  1.6983
   96SAPS   O21 9498  -0.181   1.073   6.708 -0.1507 -0.8145 -0.4889
   96SAPS   C21 9499  -0.076   1.126   6.766  0.6583  0.3829 -0.3085
   96SAPS   O22 9500  -0.036   1.239   6.755 -0.1011 -0.4972  0.7357
   96SAPS   C22 9501  -0.007   1.031   6.861  0.2911  0.3048 -0.0282
   96SAPS   H2R 9502  -0.065   0.936   6.864 -0.2762  0.6613  1.5981
   96SAPS   H2S 9503   0.097   1.020   6.823  0.2814  2.3832 -0.7793
   96SAPS    C3 9504  -0.405   1.091   6.616 -0.0534 -0.3869  0.4667
   96SAPS    HX 9505  -0.370   1.005   6.556 -0.1360 -0.5664  0.6755
   96SAPS    HY 9506  -0.466   1.145   6.541 -1.1721 -2.4193 -0.1670
   96SAPS   O31 9507  -0.488   1.052   6.732  0.4170 -0.5560  0.2032
   96SAPS   C31 9508  -0.461   0.927   6.784  0.4610  0.3586 -0.7724
   96SAPS   O32 9509  -0.383   0.853   6.737 -0.1706  0.0850  0.5238
   96SAPS   C32 9510  -0.549   0.902   6.907 -0.2212 -0.4246  0.4643
   96SAPS   H2X 9511  -0.655   0.911   6.875 -0.1401  0.0170  0.3149
   96SAPS   H2Y 9512  -0.523   0.976   6.986  0.9838 -0.8780  0.5069
   96SAPS   C23 9513  -0.002   1.082   7.001  0.6155 -0.1132 -0.4828
   96SAPS   H3R 9514  -0.099   1.123   7.036  1.1161  0.2974  0.4760
   96SAPS   H3S 9515   0.071   1.166   6.989 -0.5695  1.0231  0.0215
   96SAPS   C24 9516   0.072   0.979   7.090  0.3268  0.9206 -0.3194
   96SAPS   H4R 9517   0.125   1.045   7.162  0.8094  0.4461 -0.2285
   96SAPS   H4S 9518   0.144   0.921   7.028  0.2874  0.0892  0.4011
   96SAPS   C25 9519  -0.024   0.902   7.170 -0.1401  0.6182  0.9549
   96SAPS   H5R 9520  -0.063   0.963   7.253  2.0341  0.0065  2.5024
   96SAPS   C26 9521  -0.060   0.771   7.144 -0.0907 -0.4909  0.3695
   96SAPS   H6R 9522  -0.132   0.718   7.209  0.0316 -1.0743  0.0348
   96SAPS   C27 9523  -0.018   0.689   7.034  0.5600 -0.5931  0.0802
   96SAPS   H7R 9524   0.083   0.715   6.996  0.3057  0.3015  0.0031
   96SAPS   H7S 9525  -0.092   0.702   6.953  0.8853 -2.2639 -0.5276
   96SAPS   C28 9526  -0.013   0.543   7.076  0.5611  0.3330 -0.3316
   96SAPS   H8R 9527   0.089   0.504   7.091  0.9792  1.7095  0.6189
   96SAPS   C29 9528  -0.113   0.451   7.066  0.7198 -0.8651 -0.3102
   96SAPS   H9R 9529  -0.097   0.346   7.095 -2.0502 -1.2085  0.2740
   96SAPS  C210 9530  -0.257   0.476   7.035 -0.3121  0.6018 -0.3955
   96SAPS  H10R 9531  -0.267   0.482   6.924 -1.4107 -0.5715 -0.3832
   96SAPS  H10S 9532  -0.306   0.573   7.058  0.1039  0.6860  0.1319
   96SAPS  C211 9533  -0.365   0.380   7.080  0.6146  0.6963  0.4026
   96SAPS  H11R 9534  -0.435   0.351   7.000 -0.1488  1.2936  0.8389
   96SAPS  C212 9535  -0.396   0.338   7.205  0.1528 -0.0295  0.1383
   96SAPS  H12R 9536  -0.472   0.263   7.231  1.4456 -0.9376  1.5021
   96SAPS  C213 9537  -0.334   0.376   7.333  0.2174 -0.0518 -0.3207
   96SAPS  H13R 9538  -0.415   0.409   7.402  0.8637 -0.3819  0.6231
   96SAPS  H13S 9539  -0.283   0.475   7.332 -3.2190  1.8634 -0.5623
   96SAPS  C214 9540  -0.243   0.273   7.407 -0.0884 -0.0506  0.5647
   96SAPS  H14R 9541  -0.141   0.259   7.368 -0.4787 -3.2017  0.4554
   96SAPS  C215 9542  -0.251   0.210   7.527  0.3470 -0.1062  0.6659
   96SAPS  H15R 9543  -0.167   0.142   7.545  0.5219 -0.1241 -0.1847
   96SAPS  C216 9544  -0.361   0.226   7.627  0.0370  0.6051 -1.0682
   96SAPS  H16R 9545  -0.437   0.146   7.614  0.6554 -0.1734 -0.0169
   96SAPS  H16S 9546  -0.424   0.317   7.627 -0.7943  0.1038  1.1976
   96SAPS  C217 9547  -0.326   0.201   7.772  0.2605 -0.8077  0.3356
   96SAPS  H17R 9548  -0.297   0.094   7.776  0.8559 -0.6335  0.8679
   96SAPS  H17S 9549  -0.411   0.212   7.842 -0.1013 -1.8550  0.0697
   96SAPS  C218 9550  -0.208   0.291   7.806  0.4182  0.0323 -0.2406
   96SAPS  H18R 9551  -0.248   0.395   7.797 -1.1801  0.0222  4.3506
   96SAPS  H18S 9552  -0.117   0.283   7.742 -0.3696  1.4144 -1.6277
   96SAPS  C219 9553  -0.166   0.282   7.954  0.3566  0.0365 -0.1811
   96SAPS  H19R 9554  -0.071   0.339   7.964  0.9145 -1.2053  3.0968
   96SAPS  H19S 9555  -0.135   0.178   7.977 -1.2619 -0.0795  1.8021
   96SAPS  C220 9556  -0.262   0.345   8.059 -0.0679  0.3161 -0.5784
   96SAPS  H20R 9557  -0.368   0.313   8.043 -0.6413  1.0084  1.5143
   96SAPS  H20S 9558  -0.257   0.456   8.068 -1.6285  0.2939  1.4713
   96SAPS  H20T 9559  -0.227   0.304   8.156  4.1911  2.4038 -1.0112
   96SAPS   C33 9560  -0.510   0.769   6.966  0.3476  0.0570  0.0727
   96SAPS   H3X 9561  -0.401   0.753   6.974  0.2979  0.0051  0.6745
   96SAPS   H3Y 9562  -0.551   0.701   6.888  2.8028 -1.1182 -0.2597
   96SAPS   C34 9563  -0.572   0.750   7.109  0.1291 -0.1861  0.9201
   96SAPS   H4X 9564  -0.590   0.641   7.121  0.6137 -0.1131  2.6154
   96SAPS   H4Y 9565  -0.668   0.805   7.101 -0.5048 -1.5224 -1.4224
   96SAPS   C35 9566  -0.484   0.794   7.222 -0.2939 -0.2730  0.0010
   96SAPS   H5X 9567  -0.479   0.905   7.231  0.7644 -0.3573  0.6614
   96SAPS   H5Y 9568  -0.377   0.764   7.214 -0.3177 -0.0333 -1.6526
   96SAPS   C36 9569  -0.535   0.738   7.359 -0.0155  0.4795 -0.5036
   96SAPS   H6X 9570  -0.500   0.633   7.371 -0.5337  0.4017  0.3450
   96SAPS   H6Y 9571  -0.645   0.727   7.365 -0.1579  0.7280 -2.0704
   96SAPS   C37 9572  -0.489   0.816   7.477 -0.7290 -0.4934  0.6042
   96SAPS   H7X 9573  -0.536   0.917   7.480 -0.1091 -0.0915 -1.3542
   96SAPS   H7Y 9574  -0.380   0.826   7.458 -0.7003 -0.3260  0.8554
   96SAPS   C38 9575  -0.521   0.753   7.609  0.1235 -0.0334 -0.1998
   96SAPS   H8X 9576  -0.482   0.649   7.615  2.4555  0.7577 -0.5897
   96SAPS   H8Y 9577  -0.629   0.743   7.632  0.1191  0.0141 -0.2011
   96SAPS   C39 9578  -0.473   0.843   7.729 -0.6681  1.6347 -0.0417
   96SAPS   H9X 9579  -0.483   0.952   7.708  0.0303  2.0724  1.7440
   96SAPS   H9Y 9580  -0.364   0.823   7.740 -1.0815 -0.9383 -0.0667
   96SAPS  C310 9581  -0.540   0.803   7.861 -0.3297 -0.3713  0.0526
   96SAPS  H10X 9582  -0.532   0.693   7.875  2.8850 -0.3082 -0.5173
   96SAPS  H10Y 9583  -0.645   0.835   7.874  0.4479  1.9019  1.4136
   96SAPS  C311 9584  -0.473   0.868   7.988 -0.7503  0.4438  0.3469
   96SAPS  H11X 9585  -0.513   0.971   7.992 -2.6307 -0.0881 -2.3049
   96SAPS  H11Y 9586  -0.364   0.869   7.967 -0.9086 -0.9496 -0.6899
   96SAPS  C312 9587  -0.497   0.794   8.121  0.5753 -0.0023 -0.3433
   96SAPS  H12X 9588  -0.447   0.696   8.132 -1.5787 -1.2332 -1.0314
   96SAPS  H12Y 9589  -0.607   0.781   8.126  0.2915  1.5857 -1.4716
   96SAPS  C313 9590  -0.464   0.871   8.250 -0.0138  0.5186  0.4977
   96SAPS  H13X 9591  -0.490   0.813   8.341  0.9761  1.9841  1.7755
   96SAPS  H13Y 9592  -0.523   0.962   8.273 -2.3467 -0.5110 -1.0960
   96SAPS  C314 9593  -0.307   0.877   8.274  0.5484 -0.2613  0.0203
   96SAPS  H14X 9594  -0.263   0.947   8.199  0.8244 -0.7961 -0.3319
   96SAPS  H14Y 9595  -0.265   0.779   8.244 -1.3562 -1.2680  0.5086
   96SAPS  C315 9596  -0.268   0.933   8.416  0.0905  0.3511  0.7796
   96SAPS  H15X 9597  -0.324   0.882   8.497  2.0877 -1.1725  1.3122
   96SAPS  H15Y 9598  -0.304   1.038   8.413 -1.4231 -0.1131 -2.8105
   96SAPS  C316 9599  -0.120   0.939   8.427  0.1316  0.3481 -0.4836
   96SAPS  H16X 9600  -0.083   0.969   8.327 -2.4225  1.7557 -1.1108
   96SAPS  H16Y 9601  -0.086   0.834   8.431 -1.7209 -0.3154 -0.9264
   96SAPS  C317 9602  -0.069   1.017   8.546 -0.0364 -1.2311 -0.3552
   96SAPS  H17X 9603  -0.073   1.126   8.526 -0.1533 -1.0717  0.5195
   96SAPS  H17Y 9604   0.040   0.997   8.555  0.4839  1.3378 -0.1751
   96SAPS  C318 9605  -0.131   0.979   8.679  0.3096 -0.2006 -0.3625
   96SAPS  H18X 9606  -0.139   0.870   8.695 -1.6992 -0.1867 -1.0384
   96SAPS  H18Y 9607  -0.233   1.022   8.690  1.4636  2.3461  1.5192
   96SAPS  H18Z 9608  -0.076   1.026   8.764  1.2955  0.7731 -1.4911
   97SAPS     N 9609   6.474   5.994   6.743 -0.3439 -0.1281  0.0496
   97SAPS   HN1 9610   6.504   6.083   6.788  3.8287 -0.6429 -1.2925
   97SAPS   HN2 9611   6.444   5.919   6.808  1.1287 -1.1400 -0.3999
   97SAPS   HN3 9612   6.567   5.967   6.706  1.2680  0.7970  3.0717
   97SAPS   C12 9613   6.380   6.013   6.628 -0.5082  0.5478  0.5186
   97SAPS  H12A 9614   6.434   6.079   6.563  1.6108 -1.7347 -0.2227
   97SAPS   C13 9615   6.371   5.892   6.542  0.6775  0.0816 -0.0094
   97SAPS  O13A 9616   6.420   5.782   6.577  0.3818 -0.1806 -0.1289
   97SAPS  O13B 9617   6.276   5.889   6.457 -0.2168  0.0588 -0.4162
   97SAPS   C11 9618   6.236   6.054   6.686  0.3440 -0.8649 -0.7491
   97SAPS  H11A 9619   6.181   5.976   6.744 -1.5698 -0.4249 -1.8762
   97SAPS  H11B 9620   6.179   6.071   6.592 -0.2670  0.4659 -0.1668
   97SAPS     P 9621   6.233   6.327   6.698 -0.0799  0.4496 -0.1956
   97SAPS   O13 9622   6.371   6.382   6.702 -0.0037  0.0116 -0.0033
   97SAPS   O14 9623   6.159   6.325   6.568  0.5060 -0.0795 -0.5392
   97SAPS   O12 9624   6.241   6.180   6.760  0.0534  0.2748  0.0403
   97SAPS   O11 9625   6.154   6.407   6.803  0.5638  0.7044  0.4775
   97SAPS    C1 9626   6.133   6.349   6.932  0.9018  0.1062  0.0362
   97SAPS    HA 9627   6.203   6.267   6.960  0.0453 -0.1240  1.6137
   97SAPS    HB 9628   6.162   6.432   7.001  0.2667  0.4623 -0.1187
   97SAPS    C2 9629   5.988   6.314   6.966  0.0560  0.2902  0.7365
   97SAPS    HS 9630   5.985   6.332   7.076  0.7040 -1.1042  1.0012
   97SAPS   O21 9631   5.953   6.175   6.929  0.2931  0.0187  0.2929
   97SAPS   C21 9632   5.989   6.087   7.011 -0.3960  0.3426 -0.3749
   97SAPS   O22 9633   6.027   6.103   7.128  0.3547 -0.3689  0.1190
   97SAPS   C22 9634   5.985   5.950   6.951  0.1036  0.2014  0.2636
   97SAPS   H2R 9635   5.892   5.895   6.979 -1.3950  1.6028 -1.6404
   97SAPS   H2S 9636   5.986   5.964   6.841 -2.4972  0.1436  0.1615
   97SAPS    C3 9637   5.881   6.408   6.909 -0.3553  0.1013 -0.5940
   97SAPS    HX 9638   5.782   6.374   6.948 -0.7818  1.8389 -0.0970
   97SAPS    HY 9639   5.890   6.405   6.798 -2.7386  1.7709 -0.9019
   97SAPS   O31 9640   5.908   6.545   6.958 -0.0277  0.2822 -0.8387
   97SAPS   C31 9641   5.799   6.617   6.992  0.3043  0.5394 -1.4668
   97SAPS   O32 9642   5.680   6.595   6.956 -0.0478 -0.4157 -0.3298
   97SAPS   C32 9643   5.842   6.711   7.098  0.8788 -0.4194  0.4098
   97SAPS   H2X 9644   5.790   6.809   7.098  0.1800 -0.7685  1.4646
   97SAPS   H2Y 9645   5.952   6.723   7.096  0.8506 -0.0407  1.0303
   97SAPS   C23 9646   6.121   5.877   6.981 -0.0344  0.0023  0.2357
   97SAPS   H3R 9647   6.206   5.949   6.983 -0.6834  0.8476 -0.9881
   97SAPS   H3S 9648   6.144   5.813   6.894 -2.2838 -1.4370  0.6054
   97SAPS   C24 9649   6.096   5.785   7.094  0.3600  0.1758  0.4256
   97SAPS   H4R 9650   6.010   5.716   7.084  0.5706  0.0588 -0.7915
   97SAPS   H4S 9651   6.078   5.847   7.185  0.2072  2.5580 -1.1314
   97SAPS   C25 9652   6.207   5.690   7.106  0.4005 -0.2730  0.4360
   97SAPS   H5R 9653   6.192   5.608   7.034  3.0020 -1.0684  0.6661
   97SAPS   C26 9654   6.304   5.682   7.195 -0.3611  0.7020 -0.4843
   97SAPS   H6R 9655   6.370   5.594   7.193  0.3858  0.9240  3.7397
   97SAPS   C27 9656   6.312   5.776   7.313  0.1532  0.0194 -0.2427
   97SAPS   H7R 9657   6.259   5.873   7.302  3.0536  2.0760  2.2434
   97SAPS   H7S 9658   6.418   5.808   7.327  0.0378  0.1331  0.4291
   97SAPS   C28 9659   6.253   5.700   7.430 -1.0332 -0.0611 -0.1996
   97SAPS   H8R 9660   6.144   5.701   7.439 -1.0137 -2.6983  1.7547
   97SAPS   C29 9661   6.322   5.631   7.525 -0.0595 -0.0621  0.2065
   97SAPS   H9R 9662   6.280   5.572   7.608 -0.1536 -3.1996 -1.8893
   97SAPS  C210 9663   6.468   5.619   7.528  0.4454  0.1323 -0.3023
   97SAPS  H10R 9664   6.525   5.672   7.448  1.3989 -1.2518 -0.5816
   97SAPS  H10S 9665   6.486   5.511   7.511 -0.7656  0.0962 -1.4659
   97SAPS  C211 9666   6.532   5.653   7.657  1.0221 -0.0040 -0.2362
   97SAPS  H11R 9667   6.545   5.762   7.670  0.8682 -0.0821  0.6854
   97SAPS  C212 9668   6.578   5.579   7.761  0.0572  0.4804 -0.1021
   97SAPS  H12R 9669   6.621   5.635   7.845  0.0992  0.0746  0.1507
   97SAPS  C213 9670   6.577   5.430   7.783 -0.4169  0.2640  0.2223
   97SAPS  H13R 9671   6.517   5.383   7.702  2.1780  0.9637 -2.2716
   97SAPS  H13S 9672   6.532   5.420   7.883  1.1127  0.3959  0.9544
   97SAPS  C214 9673   6.723   5.371   7.783  0.6324 -0.9033  0.0261
   97SAPS  H14R 9674   6.780   5.339   7.695 -0.3891  0.3753 -1.1354
   97SAPS  C215 9675   6.789   5.346   7.897 -0.5924  0.0994 -0.7085
   97SAPS  H15R 9676   6.896   5.320   7.887 -0.3771 -0.0162  1.3632
   97SAPS  C216 9677   6.750   5.369   8.040  0.0294  0.0291 -0.2496
   97SAPS  H16R 9678   6.678   5.454   8.042  0.5510  0.5061 -1.1415
   97SAPS  H16S 9679   6.835   5.388   8.108  1.5986 -1.9982 -1.5265
   97SAPS  C217 9680   6.671   5.248   8.107 -0.2407 -0.4064  0.5127
   97SAPS  H17R 9681   6.722   5.152   8.087  0.0979 -0.1626  0.1952
   97SAPS  H17S 9682   6.572   5.245   8.056  1.1504 -1.3870 -2.3145
   97SAPS  C218 9683   6.650   5.263   8.261 -0.2223  0.3341 -0.0804
   97SAPS  H18R 9684   6.602   5.361   8.284 -3.0619 -0.4146 -2.2277
   97SAPS  H18S 9685   6.755   5.271   8.295  0.8765  1.5852 -3.3897
   97SAPS  C219 9686   6.594   5.144   8.341  0.4246 -0.2367 -0.4708
   97SAPS  H19R 9687   6.612   5.170   8.448  0.3015  0.1219 -0.5346
   97SAPS  H19S 9688   6.647   5.049   8.319 -2.1703 -1.3185 -2.6652
   97SAPS  C220 9689   6.442   5.116   8.332  0.0306 -0.3104 -0.1667
   97SAPS  H20R 9690   6.407   5.073   8.236 -2.0136 -1.4873  1.0159
   97SAPS  H20S 9691   6.393   5.214   8.343  0.1840 -0.1853 -0.5840
   97SAPS  H20T 9692   6.405   5.051   8.415  0.8192  2.0532  2.1893
   97SAPS   C33 9693   5.820   6.659   7.245  0.2486 -0.3270  0.5641
   97SAPS   H3X 9694   5.877   6.727   7.312 -0.3221 -0.3917  1.1361
   97SAPS   H3Y 9695   5.843   6.551   7.251 -0.7551 -0.7020 -1.6411
   97SAPS   C34 9696   5.674   6.682   7.289  0.1672 -0.3446 -0.2873
   97SAPS   H4X 9697   5.652   6.608   7.369  1.6753 -1.7011 -1.0663
   97SAPS   H4Y 9698   5.606   6.666   7.203  0.9849  1.8986 -1.4326
   97SAPS   C35 9699   5.646   6.823   7.332  0.3285  0.0412  0.0107
   97SAPS   H5X 9700   5.541   6.854   7.314  0.1997 -1.2474 -1.7510
   97SAPS   H5Y 9701   5.704   6.899   7.276  1.3204  0.8524  2.0483
   97SAPS   C36 9702   5.683   6.848   7.481  0.0494 -0.7889  0.1828
   97SAPS   H6X 9703   5.674   6.952   7.519 -4.7602 -0.3855 -1.4005
   97SAPS   H6Y 9704   5.787   6.816   7.504  1.8239  3.0073 -1.7426
   97SAPS   C37 9705   5.590   6.773   7.577  0.3190  0.4048  0.6276
   97SAPS   H7X 9706   5.590   6.663   7.567 -0.6888  0.4058  0.4651
   97SAPS   H7Y 9707   5.483   6.793   7.552  0.2250 -1.8607 -1.0584
   97SAPS   C38 9708   5.622   6.796   7.724  0.0890 -0.1958  0.1340
   97SAPS   H8X 9709   5.535   6.777   7.791  0.6514 -1.9606  0.4383
   97SAPS   H8Y 9710   5.661   6.897   7.747 -1.4496  0.5648 -0.4753
   97SAPS   C39 9711   5.731   6.704   7.787 -1.2401 -0.4377  0.3489
   97SAPS   H9X 9712   5.829   6.742   7.752 -2.3135  0.9417 -1.3333
   97SAPS   H9Y 9713   5.718   6.596   7.762 -2.5522  0.0426 -1.2637
   97SAPS  C310 9714   5.715   6.693   7.942  0.2178  0.1024  1.4702
   97SAPS  H10X 9715   5.630   6.626   7.968  0.5368 -0.6745  0.5816
   97SAPS  H10Y 9716   5.711   6.792   7.992  2.1856  1.1726 -0.3016
   97SAPS  C311 9717   5.822   6.604   8.007 -0.3508  0.8342  0.6511
   97SAPS  H11X 9718   5.923   6.643   7.982 -0.6359  0.1803 -1.7462
   97SAPS  H11Y 9719   5.818   6.497   7.976 -0.1326  0.5909  1.4116
   97SAPS  C312 9720   5.815   6.602   8.159  0.2553  0.1858 -0.5882
   97SAPS  H12X 9721   5.712   6.571   8.187 -0.2844  0.6869 -1.9573
   97SAPS  H12Y 9722   5.834   6.702   8.204 -2.3773  1.0632 -1.3021
   97SAPS  C313 9723   5.918   6.492   8.214 -0.1602  0.3274  0.5317
   97SAPS  H13X 9724   6.003   6.486   8.143  0.1081 -4.8927  0.9161
   97SAPS  H13Y 9725   5.874   6.390   8.203  0.3896  0.0710  0.7131
   97SAPS  C314 9726   5.945   6.510   8.366 -0.2457 -0.6876  0.0334
   97SAPS  H14X 9727   5.852   6.477   8.418 -0.2569 -0.4634  0.1580
   97SAPS  H14Y 9728   5.961   6.617   8.392 -2.0522 -0.5207  0.5969
   97SAPS  C315 9729   6.060   6.411   8.422 -0.0019 -0.2562  0.6704
   97SAPS  H15X 9730   6.096   6.452   8.519  2.9556  2.4935 -1.3775
   97SAPS  H15Y 9731   6.145   6.418   8.351 -1.0448 -3.0677 -1.0230
   97SAPS  C316 9732   6.004   6.274   8.438  0.3054  0.3289  0.5848
   97SAPS  H16X 9733   5.970   6.241   8.337 -1.1888  0.1132  1.1450
   97SAPS  H16Y 9734   5.920   6.265   8.510  0.7148 -0.6415  0.9684
   97SAPS  C317 9735   6.112   6.181   8.482  0.1703 -0.1155  0.0542
   97SAPS  H17X 9736   6.134   6.204   8.588  2.8636 -0.1973 -0.4275
   97SAPS  H17Y 9737   6.198   6.196   8.413 -1.6875  0.7758 -2.2246
   97SAPS  C318 9738   6.082   6.027   8.481 -0.2026 -0.5395 -0.0927
   97SAPS  H18X 9739   6.170   5.969   8.517 -1.1777 -2.3612 -0.5316
   97SAPS  H18Y 9740   6.056   6.003   8.376  0.4769  0.3932 -0.4862
   97SAPS  H18Z 9741   6.002   6.007   8.555  0.2036 -1.2040  0.1782
   98SAPS     N 9742   4.867   6.278   6.232 -0.1027  0.2251  0.1995
   98SAPS   HN1 9743   4.910   6.246   6.321 -1.3208  1.2049  1.1700
   98SAPS   HN2 9744   4.916   6.357   6.186  0.0358 -0.5446 -1.0372
   98SAPS   HN3 9745   4.769   6.310   6.243 -0.4513 -1.0347  0.9928
   98SAPS   C12 9746   4.869   6.170   6.131 -0.1705 -0.2519 -0.2060
   98SAPS  H12A 9747   4.809   6.089   6.171 -0.5201 -0.5376 -1.2589
   98SAPS   C13 9748   4.826   6.215   5.996  0.3388 -0.2772 -0.3398
   98SAPS  O13A 9749   4.786   6.337   5.984 -0.1073 -0.5950  0.4791
   98SAPS  O13B 9750   4.833   6.140   5.897 -0.0017 -0.8077  0.1764
   98SAPS   C11 9751   5.017   6.119   6.123  0.6067 -1.0393  1.0094
   98SAPS  H11A 9752   5.008   6.035   6.051  0.1665  0.6957 -1.0800
   98SAPS  H11B 9753   5.043   6.074   6.221 -0.3604 -0.7416  1.4156
   98SAPS     P 9754   5.267   6.179   6.041  0.1786 -0.2198  0.0360
   98SAPS   O13 9755   5.261   6.076   5.935  0.3424  0.4395  0.0492
   98SAPS   O14 9756   5.334   6.303   6.007 -0.1092 -0.0619  0.5450
   98SAPS   O12 9757   5.121   6.214   6.067  1.1335  0.3506 -0.5034
   98SAPS   O11 9758   5.332   6.117   6.170  0.1827 -0.3282 -0.0003
   98SAPS    C1 9759   5.349   6.207   6.279  0.3724  0.2670  0.4080
   98SAPS    HA 9760   5.450   6.252   6.269  0.5529 -0.4979 -1.5027
   98SAPS    HB 9761   5.267   6.282   6.286 -0.2509 -0.5214  2.1055
   98SAPS    C2 9762   5.359   6.141   6.418 -0.2625 -0.9425  0.1705
   98SAPS    HS 9763   5.446   6.073   6.406  1.0357  0.2271  2.2778
   98SAPS   O21 9764   5.240   6.062   6.435 -0.0450 -0.3184  0.1662
   98SAPS   C21 9765   5.249   5.962   6.513  0.0859 -0.3509 -0.2872
   98SAPS   O22 9766   5.354   5.924   6.565 -0.1287 -0.2438 -0.5467
   98SAPS   C22 9767   5.118   5.890   6.529  0.7194  0.3603  0.3194
   98SAPS   H2R 9768   5.030   5.938   6.481 -0.3134 -0.4613  1.3343
   98SAPS   H2S 9769   5.129   5.803   6.461 -0.8826 -0.6435  1.2679
   98SAPS    C3 9770   5.386   6.245   6.539  0.0378 -0.9673 -0.2776
   98SAPS    HX 9771   5.307   6.321   6.551  2.6597  2.2898 -1.9949
   98SAPS    HY 9772   5.461   6.313   6.493  0.5298 -1.6520 -0.5150
   98SAPS   O31 9773   5.427   6.192   6.668  0.3095 -0.5677 -0.0721
   98SAPS   C31 9774   5.556   6.155   6.662  0.0732  0.7632  0.3595
   98SAPS   O32 9775   5.637   6.186   6.576  0.0882 -0.5280  0.8743
   98SAPS   C32 9776   5.586   6.072   6.786  0.2816  0.4028  0.3995
   98SAPS   H2X 9777   5.691   6.035   6.778 -0.3112 -1.8796  2.1122
   98SAPS   H2Y 9778   5.527   5.978   6.784 -0.7564  0.9594  2.1655
   98SAPS   C23 9779   5.077   5.849   6.670 -0.7467  0.3336 -0.4902
   98SAPS   H3R 9780   5.165   5.796   6.712 -1.7971  0.0232  1.4762
   98SAPS   H3S 9781   4.998   5.771   6.663 -1.0935  0.5864  0.3696
   98SAPS   C24 9782   5.041   5.964   6.761  0.7546  0.0260  0.2827
   98SAPS   H4R 9783   4.977   5.930   6.845  0.2669  0.8181  0.2434
   98SAPS   H4S 9784   4.978   6.034   6.702  0.7867 -0.8690 -0.8533
   98SAPS   C25 9785   5.165   6.023   6.811  0.7831  0.0602 -0.6024
   98SAPS   H5R 9786   5.231   6.062   6.731  2.5590 -0.0452  0.7347
   98SAPS   C26 9787   5.188   6.032   6.944  0.2063  0.0047  0.1691
   98SAPS   H6R 9788   5.285   6.076   6.970 -0.2954  1.0688  0.3055
   98SAPS   C27 9789   5.101   5.979   7.058  0.1456 -0.1641  0.5386
   98SAPS   H7R 9790   4.992   5.963   7.041 -0.8445  1.7146  4.0782
   98SAPS   H7S 9791   5.094   6.065   7.128  1.0086 -0.6260  1.2082
   98SAPS   C28 9792   5.173   5.854   7.117 -0.1248  0.1924  0.0251
   98SAPS   H8R 9793   5.196   5.778   7.041 -0.9760 -0.6221  0.5576
   98SAPS   C29 9794   5.214   5.832   7.244  0.2484  0.1070 -0.3023
   98SAPS   H9R 9795   5.257   5.737   7.278  0.8794  0.7072  0.6461
   98SAPS  C210 9796   5.200   5.932   7.360  0.2508  0.3003  0.0352
   98SAPS  H10R 9797   5.174   5.868   7.447  0.2635 -0.3099 -0.4035
   98SAPS  H10S 9798   5.122   6.010   7.347  0.3836  0.5306  0.6140
   98SAPS  C211 9799   5.332   6.008   7.375  0.3868  0.7464  0.4547
   98SAPS  H11R 9800   5.354   6.082   7.297 -0.1041  0.9132  0.4714
   98SAPS  C212 9801   5.406   5.996   7.482 -0.2005 -0.0457 -0.3318
   98SAPS  H12R 9802   5.507   6.039   7.476  1.1888 -2.7431  1.7060
   98SAPS  C213 9803   5.403   5.904   7.602  0.3535  0.0470 -0.0292
   98SAPS  H13R 9804   5.409   5.799   7.567 -1.0096 -0.5417  1.3705
   98SAPS  H13S 9805   5.304   5.910   7.654 -0.7731  1.9789 -2.1838
   98SAPS  C214 9806   5.508   5.924   7.710 -0.2673 -0.4942  0.4422
   98SAPS  H14R 9807   5.612   5.917   7.676  0.0563 -1.8201  1.6381
   98SAPS  C215 9808   5.479   5.931   7.845  0.5864 -0.5799 -0.0835
   98SAPS  H15R 9809   5.561   5.954   7.914  0.3235 -0.0238  0.0444
   98SAPS  C216 9810   5.349   5.916   7.919  1.1039  0.3259 -0.0063
   98SAPS  H16R 9811   5.357   5.830   7.988 -4.1256 -1.2210 -0.9078
   98SAPS  H16S 9812   5.261   5.890   7.857  0.2877  2.2809  0.2531
   98SAPS  C217 9813   5.298   6.051   7.974 -1.0075  0.4968  0.9165
   98SAPS  H17R 9814   5.272   6.122   7.893  1.6130  0.2144 -0.2991
   98SAPS  H17S 9815   5.379   6.098   8.034 -1.3979  2.3218  0.0645
   98SAPS  C218 9816   5.181   6.023   8.067  1.1690  0.5506  0.5836
   98SAPS  H18R 9817   5.102   5.962   8.020 -0.3011 -0.1376  3.6896
   98SAPS  H18S 9818   5.128   6.116   8.098  0.8258 -0.2707  2.5642
   98SAPS  C219 9819   5.227   5.956   8.196 -0.6246 -0.3869 -0.1666
   98SAPS  H19R 9820   5.288   5.864   8.182 -1.9935 -1.4703  0.6209
   98SAPS  H19S 9821   5.138   5.905   8.240 -0.8637 -0.0303 -0.2389
   98SAPS  C220 9822   5.294   6.057   8.294 -0.6334 -0.0681  0.1532
   98SAPS  H20R 9823   5.225   6.141   8.317 -0.3364  0.2825 -0.2210
   98SAPS  H20S 9824   5.376   6.105   8.236  0.8973 -0.6767  1.7308
   98SAPS  H20T 9825   5.327   6.002   8.384 -0.4291  0.6820  0.5438
   98SAPS   C33 9826   5.563   6.158   6.911  0.4830  0.2076  0.4523
   98SAPS   H3X 9827   5.455   6.181   6.910  0.7520  1.6792  1.9639
   98SAPS   H3Y 9828   5.627   6.248   6.900  3.3451 -1.7954 -0.6372
   98SAPS   C34 9829   5.619   6.096   7.042  0.1786 -0.1008  0.8024
   98SAPS   H4X 9830   5.714   6.041   7.025  0.5996  0.2031  2.0809
   98SAPS   H4Y 9831   5.541   6.025   7.076 -1.6660  1.8204  0.7956
   98SAPS   C35 9832   5.640   6.201   7.143 -0.0541 -0.0712  0.6760
   98SAPS   H5X 9833   5.542   6.240   7.176 -1.5425 -1.8255 -1.3733
   98SAPS   H5Y 9834   5.707   6.283   7.109  0.7417 -0.6558  0.8123
   98SAPS   C36 9835   5.700   6.156   7.273  0.3786 -0.0726 -0.5357
   98SAPS   H6X 9836   5.768   6.070   7.254 -1.1612 -1.3597 -0.4383
   98SAPS   H6Y 9837   5.627   6.102   7.336  1.0397 -0.3443  0.0120
   98SAPS   C37 9838   5.742   6.271   7.350 -0.0540  0.1747 -0.2531
   98SAPS   H7X 9839   5.658   6.343   7.361 -0.4672 -0.3741  0.2610
   98SAPS   H7Y 9840   5.815   6.333   7.293  0.7525 -0.1172  0.4526
   98SAPS   C38 9841   5.801   6.228   7.481 -0.4380  0.6893  0.1003
   98SAPS   H8X 9842   5.894   6.172   7.460  0.0133  1.1106  0.9172
   98SAPS   H8Y 9843   5.739   6.149   7.528 -3.5805  1.4010 -2.4809
   98SAPS   C39 9844   5.830   6.339   7.591  0.1665 -0.1137  0.4389
   98SAPS   H9X 9845   5.747   6.413   7.593  0.7892  0.8981 -3.0663
   98SAPS   H9Y 9846   5.919   6.391   7.550 -0.0798  0.5671  0.7515
   98SAPS  C310 9847   5.855   6.280   7.734 -0.2039 -0.0963  0.0275
   98SAPS  H10X 9848   5.883   6.374   7.786 -0.5231  0.0283 -0.0206
   98SAPS  H10Y 9849   5.938   6.207   7.730  0.1352  0.3254 -1.8518
   98SAPS  C311 9850   5.742   6.217   7.799 -0.5231  0.8352 -0.6468
   98SAPS  H11X 9851   5.710   6.123   7.749  2.4556 -0.1148 -0.9152
   98SAPS  H11Y 9852   5.663   6.295   7.789 -0.0298  1.3078 -0.9277
   98SAPS  C312 9853   5.766   6.190   7.950 -0.2979  0.2469 -0.7282
   98SAPS  H12X 9854   5.675   6.151   8.000 -0.2057 -0.1183 -0.8419
   98SAPS  H12Y 9855   5.802   6.281   8.002 -1.6733 -0.3934  1.4380
   98SAPS  C313 9856   5.874   6.085   7.969  0.0256  0.3886 -1.0627
   98SAPS  H13X 9857   5.963   6.125   7.916 -1.0622 -0.1760 -3.4632
   98SAPS  H13Y 9858   5.839   5.990   7.923 -0.6088 -1.5459  2.9734
   98SAPS  C314 9859   5.925   6.053   8.112 -0.1983  0.2286 -0.4711
   98SAPS  H14X 9860   5.971   6.150   8.144 -0.0001 -0.2239  0.6820
   98SAPS  H14Y 9861   5.999   5.971   8.113 -0.8725 -0.3862 -0.4626
   98SAPS  C315 9862   5.807   6.018   8.202  0.4238  0.4165 -0.3844
   98SAPS  H15X 9863   5.727   6.095   8.207  0.1044  0.0038  1.6343
   98SAPS  H15Y 9864   5.849   6.001   8.303  0.2214  1.4026 -0.1268
   98SAPS  C316 9865   5.732   5.891   8.157 -0.5831 -0.4310  0.3767
   98SAPS  H16X 9866   5.806   5.808   8.162  1.9908  1.7440  0.7524
   98SAPS  H16Y 9867   5.703   5.912   8.052  2.1299  1.2525 -0.1345
   98SAPS  C317 9868   5.620   5.840   8.238  0.4388  0.0000 -0.4554
   98SAPS  H17X 9869   5.599   5.735   8.208  2.0657 -0.1469 -1.1640
   98SAPS  H17Y 9870   5.528   5.900   8.220  0.0498  0.4482  2.4251
   98SAPS  C318 9871   5.650   5.838   8.387 -0.2277 -1.0171  0.5150
   98SAPS  H18X 9872   5.688   5.935   8.425 -0.6699 -1.4264  2.0963
   98SAPS  H18Y 9873   5.715   5.750   8.408  0.5504 -1.0499 -1.7828
   98SAPS  H18Z 9874   5.556   5.824   8.445 -0.9957 -0.0958 -0.4841
   99SAPS     N 9875   2.099   4.225   5.706  0.1710  0.5891 -0.7938
   99SAPS   HN1 9876   2.051   4.278   5.631  1.4127 -0.8797 -2.7431
   99SAPS   HN2 9877   2.195   4.261   5.723  1.5190 -3.8143  3.2043
   99SAPS   HN3 9878   2.100   4.128   5.669  0.0367  0.6860 -1.0535
   99SAPS   C12 9879   2.023   4.245   5.830 -0.0337 -0.2917 -0.4492
   99SAPS  H12A 9880   2.039   4.345   5.870  0.0938 -0.5565  0.1804
   99SAPS   C13 9881   1.866   4.243   5.801  0.3150  0.2977  0.0999
   99SAPS  O13A 9882   1.822   4.202   5.689 -0.5621  0.2650  0.1445
   99SAPS  O13B 9883   1.791   4.266   5.895 -0.3307 -0.1602 -0.0694
   99SAPS   C11 9884   2.050   4.126   5.925  0.9157  0.3460 -0.3740
   99SAPS  H11A 9885   2.037   4.028   5.873  0.8815 -0.6793  1.4935
   99SAPS  H11B 9886   1.985   4.131   6.015  1.5087  1.5104  0.0053
   99SAPS     P 9887   2.230   4.186   6.100  0.1442  0.2939  0.5219
   99SAPS   O13 9888   2.379   4.181   6.092 -0.1292 -0.2751  0.2687
   99SAPS   O14 9889   2.167   4.320   6.109  0.1827  0.5902  0.1458
   99SAPS   O12 9890   2.186   4.121   5.965 -0.0334 -0.6161 -0.2696
   99SAPS   O11 9891   2.172   4.092   6.217 -0.5608  0.5216  0.1310
   99SAPS    C1 9892   2.201   3.947   6.219  0.0420 -0.0587  0.4868
   99SAPS    HA 9893   2.202   3.898   6.119 -0.4302 -0.0961  0.4981
   99SAPS    HB 9894   2.297   3.927   6.271  0.4802 -0.3864 -0.4305
   99SAPS    C2 9895   2.089   3.869   6.292 -0.6827 -1.0587  0.7304
   99SAPS    HS 9896   1.999   3.882   6.228 -0.2467  1.3871  0.5135
   99SAPS   O21 9897   2.068   3.934   6.418 -0.2246  0.0221 -0.5659
   99SAPS   C21 9898   1.943   3.925   6.467  0.0703  0.4436  0.1065
   99SAPS   O22 9899   1.848   3.881   6.400 -0.1757  0.2131 -0.4019
   99SAPS   C22 9900   1.942   3.965   6.613 -0.4863 -0.8240  0.6678
   99SAPS   H2R 9901   2.036   3.929   6.660  1.2099  0.7548 -1.3180
   99SAPS   H2S 9902   1.948   4.075   6.604  0.8797 -0.8061  1.6063
   99SAPS    C3 9903   2.114   3.717   6.297  0.1760  0.4207  0.6434
   99SAPS    HX 9904   2.148   3.684   6.197 -1.1838 -1.1542  0.6554
   99SAPS    HY 9905   2.017   3.665   6.309  0.5434 -0.7947 -1.2840
   99SAPS   O31 9906   2.212   3.672   6.393 -0.1566  0.1172  0.5746
   99SAPS   C31 9907   2.169   3.653   6.511 -0.4237 -0.0186  0.5514
   99SAPS   O32 9908   2.059   3.672   6.554  0.4533 -0.5626 -0.6032
   99SAPS   C32 9909   2.271   3.577   6.593  0.1114  0.0914  0.2067
   99SAPS   H2X 9910   2.372   3.621   6.581  0.3327  0.0175  1.5465
   99SAPS   H2Y 9911   2.262   3.477   6.546 -1.5684 -0.2869  1.2377
   99SAPS   C23 9912   1.819   3.940   6.694 -0.4355  0.5493  0.1646
   99SAPS   H3R 9913   1.793   3.832   6.694  0.6776  0.1965  2.9482
   99SAPS   H3S 9914   1.726   3.981   6.649 -0.0718  0.6624 -0.5010
   99SAPS   C24 9915   1.834   3.983   6.840 -0.5113 -0.8031  0.7356
   99SAPS   H4R 9916   1.731   4.000   6.880 -0.3530  1.7114  0.2704
   99SAPS   H4S 9917   1.869   4.088   6.831  0.9508 -1.3937 -1.0352
   99SAPS   C25 9918   1.919   3.886   6.913 -0.1336 -0.5004  0.1353
   99SAPS   H5R 9919   1.954   3.799   6.855 -0.6743  0.5068 -1.8011
   99SAPS   C26 9920   1.945   3.891   7.042 -0.0749 -0.0397  0.3277
   99SAPS   H6R 9921   2.014   3.819   7.087  3.1894  2.0584 -0.9754
   99SAPS   C27 9922   1.889   3.998   7.132 -0.0695 -0.2102  0.3116
   99SAPS   H7R 9923   1.808   3.950   7.191  0.1928 -1.1033 -0.0365
   99SAPS   H7S 9924   1.848   4.081   7.072  1.6138 -0.5289 -1.3741
   99SAPS   C28 9925   1.993   4.042   7.235  0.1143 -0.1103 -0.2291
   99SAPS   H8R 9926   2.057   4.129   7.213  0.3585 -0.7032 -2.0615
   99SAPS   C29 9927   2.023   3.984   7.356  0.7613 -0.9084 -0.6280
   99SAPS   H9R 9928   2.094   4.033   7.424  0.2248 -0.0131 -0.6965
   99SAPS  C210 9929   1.954   3.868   7.424  0.1058  0.1539  0.3758
   99SAPS  H10R 9930   2.018   3.819   7.501 -2.0754 -1.0525  1.5451
   99SAPS  H10S 9931   1.922   3.792   7.350  0.1986  1.4305 -1.0162
   99SAPS  C211 9932   1.824   3.918   7.484 -0.2373 -0.5940 -0.1185
   99SAPS  H11R 9933   1.757   3.960   7.408 -0.2525  0.6593  0.5601
   99SAPS  C212 9934   1.790   3.906   7.615 -0.3545  0.1594 -0.9735
   99SAPS  H12R 9935   1.704   3.963   7.653  0.8874  0.4445  1.5930
   99SAPS  C213 9936   1.873   3.837   7.726  0.1367 -0.2004 -0.6216
   99SAPS  H13R 9937   1.958   3.769   7.703  1.5773  1.7746 -1.3639
   99SAPS  H13S 9938   1.799   3.778   7.785 -0.1899  1.6908  0.9508
   99SAPS  C214 9939   1.930   3.946   7.818 -0.1283 -0.1555  0.0391
   99SAPS  H14R 9940   1.975   4.025   7.756 -0.6285 -0.6587 -0.9969
   99SAPS  C215 9941   1.935   3.957   7.952 -0.2495 -0.2706  0.4250
   99SAPS  H15R 9942   1.979   4.049   7.994 -0.8120 -0.1594  0.7955
   99SAPS  C216 9943   1.875   3.853   8.043  0.0743  0.2368 -0.3013
   99SAPS  H16R 9944   1.891   3.752   8.001  1.3118  0.3853 -0.2355
   99SAPS  H16S 9945   1.765   3.865   8.054  0.0766  1.0946 -1.0629
   99SAPS  C217 9946   1.939   3.861   8.185  0.6463  0.4351 -0.7740
   99SAPS  H17R 9947   1.920   3.959   8.233  1.6324  0.2915 -0.0732
   99SAPS  H17S 9948   2.048   3.847   8.170  1.3939  3.5641  0.8657
   99SAPS  C218 9949   1.888   3.760   8.285  0.9124  0.6611 -0.1779
   99SAPS  H18R 9950   1.942   3.772   8.381  0.4369 -1.8981  0.4858
   99SAPS  H18S 9951   1.896   3.656   8.245 -3.5055  0.4907 -1.1228
   99SAPS  C219 9952   1.737   3.780   8.307 -0.5604  0.3676  0.1131
   99SAPS  H19R 9953   1.691   3.722   8.224 -2.8406 -0.5521  1.9291
   99SAPS  H19S 9954   1.707   3.887   8.294  0.6935  0.7704  0.3769
   99SAPS  C220 9955   1.700   3.710   8.438 -0.7969 -0.2368  0.1060
   99SAPS  H20R 9956   1.762   3.743   8.524 -1.3343 -0.2519  0.5016
   99SAPS  H20S 9957   1.721   3.601   8.426  0.0236 -0.1780  0.8607
   99SAPS  H20T 9958   1.593   3.733   8.459 -0.8909 -0.2657 -0.3372
   99SAPS   C33 9959   2.242   3.593   6.745  0.4428 -0.1742  0.2810
   99SAPS   H3X 9960   2.137   3.573   6.775  0.9876 -0.4591  2.1268
   99SAPS   H3Y 9961   2.266   3.698   6.772  1.9775 -0.6113  0.6893
   99SAPS   C34 9962   2.330   3.504   6.839 -0.0940 -0.5118  0.2141
   99SAPS   H4X 9963   2.439   3.518   6.825 -0.1335  2.4689  1.9091
   99SAPS   H4Y 9964   2.305   3.398   6.817 -1.2232  0.0999 -1.6398
   99SAPS   C35 9965   2.289   3.542   6.983  0.0267 -0.1959  0.1695
   99SAPS   H5X 9966   2.183   3.574   6.980  0.7390  2.3837  0.2091
   99SAPS   H5Y 9967   2.349   3.631   7.011 -2.0800  1.2563  0.2991
   99SAPS   C36 9968   2.306   3.436   7.097  0.5883  0.1131  0.0950
   99SAPS   H6X 9969   2.411   3.400   7.107  0.4968 -0.5246 -1.0702
   99SAPS   H6Y 9970   2.259   3.336   7.086  1.5194 -0.2679 -0.6303
   99SAPS   C37 9971   2.248   3.498   7.224  0.5166  0.1095  0.0845
   99SAPS   H7X 9972   2.146   3.533   7.200  0.8915  0.7004 -0.6844
   99SAPS   H7Y 9973   2.304   3.592   7.242 -2.7430  2.6351 -1.8450
   99SAPS   C38 9974   2.248   3.410   7.349 -0.4429 -0.2698  0.5617
   99SAPS   H8X 9975   2.350   3.367   7.360 -0.2578  0.2721  1.0364
   99SAPS   H8Y 9976   2.172   3.332   7.329 -1.8359  0.5592  2.2888
   99SAPS   C39 9977   2.220   3.489   7.480  0.0110  0.3642  0.5119
   99SAPS   H9X 9978   2.118   3.532   7.478  0.9569  2.7829 -0.3349
   99SAPS   H9Y 9979   2.290   3.576   7.484  1.1053 -0.1622 -3.3038
   99SAPS  C310 9980   2.254   3.405   7.604 -0.1510 -0.3049  0.6352
   99SAPS  H10X 9981   2.362   3.411   7.625  0.1152 -2.2179 -0.0310
   99SAPS  H10Y 9982   2.227   3.303   7.569 -1.4457  0.7356 -1.6753
   99SAPS  C311 9983   2.179   3.458   7.724  0.5523 -0.5045 -0.4426
   99SAPS  H11X 9984   2.070   3.446   7.711  0.2146  1.3772  0.2542
   99SAPS  H11Y 9985   2.185   3.569   7.724 -0.4919 -0.4321  0.3391
   99SAPS  C312 9986   2.219   3.394   7.858 -0.6766  0.2557 -0.7799
   99SAPS  H12X 9987   2.328   3.411   7.870 -0.8191  1.2440 -0.7418
   99SAPS  H12Y 9988   2.204   3.284   7.860 -3.8271  0.5963  0.6335
   99SAPS  C313 9989   2.139   3.451   7.982 -0.3257 -0.0448 -0.3942
   99SAPS  H13X 9990   2.031   3.453   7.956  0.3576 -0.4746 -3.6897
   99SAPS  H13Y 9991   2.171   3.556   7.998  0.2024  0.2178 -2.7933
   99SAPS  C314 9992   2.174   3.371   8.113  1.0018 -0.4225 -0.4565
   99SAPS  H14X 9993   2.283   3.389   8.124  1.0200 -0.3499 -0.7582
   99SAPS  H14Y 9994   2.159   3.265   8.083  0.1705 -0.7508  1.0291
   99SAPS  C315 9995   2.087   3.411   8.231  0.2738  0.4128  0.4475
   99SAPS  H15X 9996   2.060   3.324   8.294  0.8998  0.4232  0.7310
   99SAPS  H15Y 9997   1.987   3.442   8.192 -1.6282 -3.9335  1.3542
   99SAPS  C316 9998   2.149   3.530   8.299 -0.6583  0.0361  0.5653
   99SAPS  H16X 9999   2.073   3.586   8.357  0.1351  1.3158  0.4034
   99SAPS  H16Y10000   2.187   3.605   8.225  1.5428 -0.0043  1.5692
   99SAPS  C31710001   2.270   3.493   8.388  0.3367 -0.1643  0.4050
   99SAPS  H17X10002   2.361   3.466   8.331  0.4279  0.7567  0.0893
   99SAPS  H17Y10003   2.236   3.402   8.441  0.9527 -3.5662 -4.3992
   99SAPS  C31810004   2.305   3.610   8.484 -0.9140  0.1723 -0.0052
   99SAPS  H18X10005   2.215   3.643   8.540 -0.0933  0.2978  1.2834
   99SAPS  H18Y10006   2.354   3.691   8.427 -1.6193  0.1939 -0.5845
   99SAPS  H18Z10007   2.382   3.583   8.560  0.3729  2.3593 -0.4438
  100SAPS     N10008   5.831   5.135   6.101  0.6207 -0.1466 -0.9966
  100SAPS   HN110009   5.762   5.058   6.112 -1.4319  1.2883 -2.9155
  100SAPS   HN210010   5.856   5.167   6.197 -0.8464 -2.4079  0.2609
  100SAPS   HN310011   5.768   5.212   6.071 -0.2997 -0.7890 -0.7760
  100SAPS   C1210012   5.955   5.108   6.032 -0.6768 -0.4727 -0.4381
  100SAPS  H12A10013   5.938   5.022   5.969 -1.8395 -0.9691  0.5107
  100SAPS   C1310014   6.004   5.229   5.951 -0.3110  0.5749  0.1939
  100SAPS  O13A10015   5.943   5.335   5.941 -0.2578  0.1637  0.0681
  100SAPS  O13B10016   6.117   5.208   5.891  0.5254  0.1022 -0.3327
  100SAPS   C1110017   6.063   5.079   6.140  0.5516  0.1947 -0.0016
  100SAPS  H11A10018   6.066   5.168   6.206 -2.0410  0.4184 -0.0772
  100SAPS  H11B10019   6.168   5.080   6.105  1.7928  0.1147  3.4443
  100SAPS     P10020   6.076   4.936   6.355 -0.0396 -0.1662 -0.0967
  100SAPS   O1310021   5.977   4.962   6.458  0.3735 -0.2992 -0.5525
  100SAPS   O1410022   6.145   4.804   6.357 -0.5020  0.1502  0.0433
  100SAPS   O1210023   6.028   4.957   6.210  0.2771  0.0684  0.4457
  100SAPS   O1110024   6.186   5.047   6.372  0.6338  0.0098 -1.1279
  100SAPS    C110025   6.166   5.151   6.470 -0.4053 -0.3315 -0.0070
  100SAPS    HA10026   6.190   5.253   6.430 -1.0924 -0.2616 -0.2517
  100SAPS    HB10027   6.061   5.170   6.499 -0.9250 -0.2704 -1.7870
  100SAPS    C210028   6.263   5.144   6.590 -0.2191  0.4635  0.2055
  100SAPS    HS10029   6.370   5.153   6.560 -0.5769 -0.7945 -1.5370
  100SAPS   O2110030   6.232   5.026   6.666  0.5715  0.3597 -0.1781
  100SAPS   C2110031   6.304   4.930   6.632  0.2149  0.1160 -0.0504
  100SAPS   O2210032   6.409   4.933   6.571  0.4019  0.3044 -0.5340
  100SAPS   C2210033   6.246   4.804   6.702 -0.6817 -0.0737 -0.0763
  100SAPS   H2R10034   6.184   4.830   6.791  0.1988 -0.9445  0.8244
  100SAPS   H2S10035   6.171   4.755   6.636 -0.2662  0.2149 -0.7604
  100SAPS    C310036   6.240   5.270   6.687  0.5257  0.1945  0.3374
  100SAPS    HX10037   6.134   5.257   6.718  0.0651 -0.8753 -1.5056
  100SAPS    HY10038   6.247   5.369   6.638 -3.4347  0.3131 -0.3433
  100SAPS   O3110039   6.332   5.263   6.805 -0.5347 -0.6018 -0.0670
  100SAPS   C3110040   6.315   5.373   6.878  0.2379  0.0691  0.1050
  100SAPS   O3210041   6.244   5.468   6.844 -0.0210 -0.3718  0.1496
  100SAPS   C3210042   6.367   5.354   7.020  0.4567  0.5295 -1.4927
  100SAPS   H2X10043   6.351   5.249   7.054 -1.0324  0.3612 -2.5968
  100SAPS   H2Y10044   6.304   5.422   7.081  0.8048 -1.2019  0.9332
  100SAPS   C2310045   6.353   4.695   6.745 -0.1828  0.0795 -0.3319
  100SAPS   H3R10046   6.449   4.704   6.689  0.1221  0.3530  0.2282
  100SAPS   H3S10047   6.303   4.599   6.720  3.0984 -1.9559  0.3095
  100SAPS   C2410048   6.384   4.691   6.897  0.4762  0.5143  0.4444
  100SAPS   H4R10049   6.451   4.603   6.912  0.1793 -0.1097 -1.6340
  100SAPS   H4S10050   6.286   4.677   6.948  0.1696 -1.3038 -0.5848
  100SAPS   C2510051   6.453   4.819   6.921  0.9538  0.3007  0.0589
  100SAPS   H5R10052   6.537   4.832   6.851  1.9652 -0.6342  1.0550
  100SAPS   C2610053   6.417   4.915   7.006 -0.1722 -0.1929 -0.5375
  100SAPS   H6R10054   6.479   5.006   7.007 -2.5229  1.4850 -0.5549
  100SAPS   C2710055   6.295   4.913   7.101 -0.3649  0.2262  0.1783
  100SAPS   H7R10056   6.205   4.893   7.039 -0.2824 -1.4288  0.5485
  100SAPS   H7S10057   6.277   5.012   7.147 -0.0203 -0.4841  1.9023
  100SAPS   C2810058   6.286   4.796   7.194 -1.3355  0.3601 -0.1119
  100SAPS   H8R10059   6.382   4.750   7.221  0.2780  2.9914 -0.9654
  100SAPS   C2910060   6.171   4.753   7.254 -0.2483  0.3445  0.0100
  100SAPS   H9R10061   6.187   4.683   7.337 -0.4826  1.1271  0.7270
  100SAPS  C21010062   6.041   4.822   7.233  0.6040 -0.0168  0.0433
  100SAPS  H10R10063   6.019   4.818   7.124  0.8954  0.1104 -0.0200
  100SAPS  H10S10064   6.042   4.930   7.257 -1.6654 -0.1854  1.2023
  100SAPS  C21110065   5.922   4.756   7.306 -0.4407  0.3684 -0.1213
  100SAPS  H11R10066   5.915   4.646   7.311  0.0251  0.3841  2.3497
  100SAPS  C21210067   5.826   4.824   7.377  0.0395 -0.7902  0.1276
  100SAPS  H12R10068   5.749   4.771   7.433  0.6668  1.1150  3.0092
  100SAPS  C21310069   5.809   4.977   7.398 -0.2885 -0.3277  0.6968
  100SAPS  H13R10070   5.812   5.024   7.298  2.0636  0.4906  1.0964
  100SAPS  H13S10071   5.907   5.015   7.434 -0.1439 -0.6431  0.6357
  100SAPS  C21410072   5.698   5.037   7.482  0.2107  0.0239  0.0620
  100SAPS  H14R10073   5.612   5.075   7.426  0.0523 -1.3337 -0.6496
  100SAPS  C21510074   5.709   5.059   7.617  0.3770 -0.4803  0.0420
  100SAPS  H15R10075   5.624   5.097   7.675 -0.8248 -3.5757  0.4954
  100SAPS  C21610076   5.817   5.012   7.711  0.2481 -0.0103  0.3250
  100SAPS  H16R10077   5.901   5.086   7.714  0.4206 -0.2200  2.1942
  100SAPS  H16S10078   5.864   4.919   7.673 -0.2205 -1.0770  2.2299
  100SAPS  C21710079   5.777   4.991   7.864  0.1548  0.4020  0.5572
  100SAPS  H17R10080   5.692   4.921   7.852 -0.5856  1.4355 -0.4562
  100SAPS  H17S10081   5.735   5.079   7.917 -3.2755 -1.0538  0.5340
  100SAPS  C21810082   5.887   4.938   7.952 -0.1933 -0.3739  0.6109
  100SAPS  H18R10083   5.959   5.014   7.990  0.0415 -1.2198  1.9243
  100SAPS  H18S10084   5.933   4.855   7.895 -0.3200  0.4103 -0.6785
  100SAPS  C21910085   5.816   4.886   8.076  0.1000  0.3995 -0.2995
  100SAPS  H19R10086   5.715   4.841   8.061 -0.4004  1.8563 -1.5701
  100SAPS  H19S10087   5.796   4.973   8.141 -1.3016 -0.5707  0.6419
  100SAPS  C22010088   5.887   4.773   8.150  0.6948 -0.2643 -0.6826
  100SAPS  H20R10089   5.904   4.681   8.091  2.2382 -1.8308  1.9734
  100SAPS  H20S10090   5.819   4.731   8.228  1.0529 -1.8484 -1.1796
  100SAPS  H20T10091   5.987   4.795   8.193 -0.0156 -0.5207  1.2093
  100SAPS   C3310092   6.515   5.379   7.041 -0.6742 -0.1979 -0.5898
  100SAPS   H3X10093   6.532   5.481   6.999 -3.0065  0.0795 -1.0282
  100SAPS   H3Y10094   6.582   5.315   6.980 -0.7469 -2.3397  1.4481
  100SAPS   C3410095   6.556   5.372   7.188 -0.6033  0.0706 -0.0634
  100SAPS   H4X10096   6.482   5.414   7.259  1.0943  2.0034  0.6766
  100SAPS   H4Y10097   6.659   5.410   7.206 -0.2295 -1.5086  1.4054
  100SAPS   C3510098   6.566   5.228   7.240  0.0743 -0.2173  0.7850
  100SAPS   H5X10099   6.632   5.163   7.180  0.2444 -0.9035  1.6992
  100SAPS   H5Y10100   6.462   5.193   7.225 -0.8949  0.7901  4.2445
  100SAPS   C3610101   6.615   5.209   7.382  0.4008 -0.0767  0.2857
  100SAPS   H6X10102   6.561   5.275   7.453  2.5035 -1.3869  3.3120
  100SAPS   H6Y10103   6.722   5.240   7.383  1.4069 -3.1324 -0.8324
  100SAPS   C3710104   6.607   5.061   7.417 -0.1111  0.0711  0.1635
  100SAPS   H7X10105   6.677   5.008   7.349  1.2333  0.8216  0.9377
  100SAPS   H7Y10106   6.502   5.029   7.400 -0.1706 -0.7042  1.7259
  100SAPS   C3810107   6.642   5.037   7.562 -0.4101  0.4129 -0.2514
  100SAPS   H8X10108   6.556   5.072   7.623  0.1870  0.8633  0.3537
  100SAPS   H8Y10109   6.733   5.099   7.581 -0.9997  0.8523  1.2972
  100SAPS   C3910110   6.652   4.891   7.605 -0.2832  0.4895 -0.1126
  100SAPS   H9X10111   6.738   4.840   7.557  1.6264  0.7964  2.7354
  100SAPS   H9Y10112   6.561   4.829   7.597 -0.4594  0.5136  1.4223
  100SAPS  C31010113   6.698   4.877   7.756 -0.5201  0.5409  0.3262
  100SAPS  H10X10114   6.698   4.768   7.776  0.1635  0.2922 -0.9093
  100SAPS  H10Y10115   6.631   4.905   7.840  0.2736 -1.3771  1.6595
  100SAPS  C31110116   6.838   4.938   7.770  0.0520  0.5657 -0.5575
  100SAPS  H11X10117   6.833   5.048   7.755  1.9828  0.8433  0.4813
  100SAPS  H11Y10118   6.905   4.892   7.695  2.0294  1.2665  0.6996
  100SAPS  C31210119   6.889   4.917   7.919 -0.0681 -0.3739 -0.4579
  100SAPS  H12X10120   6.805   4.937   7.989  0.9378  0.8783  0.4493
  100SAPS  H12Y10121   6.963   4.997   7.942  0.1943 -0.9422  0.7354
  100SAPS  C31310122   6.946   4.777   7.937  0.1207  0.4112 -0.1294
  100SAPS  H13X10123   7.007   4.748   7.849  2.5425 -1.3004  1.9638
  100SAPS  H13Y10124   6.860   4.707   7.927  0.8608 -0.6053  0.4191
  100SAPS  C31410125   7.021   4.751   8.069 -0.7647  0.2575 -0.5880
  100SAPS  H14X10126   6.946   4.740   8.149  0.5800 -2.8758  0.4043
  100SAPS  H14Y10127   7.092   4.834   8.090 -1.4695  0.6013  0.4586
  100SAPS  C31510128   7.096   4.617   8.079 -0.5576  0.5168  0.1402
  100SAPS  H15X10129   7.180   4.609   8.007  0.2224  1.8384  0.8763
  100SAPS  H15Y10130   7.017   4.543   8.052 -0.4156 -0.2433  1.7483
  100SAPS  C31610131   7.143   4.587   8.223  0.5154  0.1000  0.2004
  100SAPS  H16X10132   7.179   4.483   8.239  1.5423  0.6336  1.5696
  100SAPS  H16Y10133   7.067   4.606   8.301  0.8621 -0.2183  0.6244
  100SAPS  C31710134   7.271   4.669   8.263  0.1011 -0.5617  0.3715
  100SAPS  H17X10135   7.241   4.775   8.265 -1.0515 -0.8761  0.3331
  100SAPS  H17Y10136   7.345   4.651   8.182 -1.6879 -0.5885 -1.3368
  100SAPS  C31810137   7.332   4.634   8.401  0.2208 -0.3346 -0.4449
  100SAPS  H18X10138   7.386   4.537   8.395  3.6524  1.4307 -1.0349
  100SAPS  H18Y10139   7.254   4.618   8.477  0.5693 -0.7773 -0.1767
  100SAPS  H18Z10140   7.403   4.717   8.423  2.4101 -2.2980  0.3458
  101OSM      N10141   5.612   4.117  11.193  0.1075 -0.0896  0.2616
  101OSM    C1510142   5.596   4.162  11.338  0.9065 -0.6217 -0.5386
  101OSM   H15A10143   5.595   4.070  11.395  2.7987  0.8945  2.1496
  101OSM   H15B10144   5.508   4.225  11.348  2.6206  1.7542  0.4631
  101OSM   H15C10145   5.679   4.222  11.371 -0.3506  1.2755 -0.6919
  101OSM    C1410146   5.624   4.234  11.109  0.2098 -0.5545 -0.2368
  101OSM   H14A10147   5.533   4.292  11.115  1.0982  0.8575 -0.0031
  101OSM   H14B10148   5.643   4.207  11.006 -0.0609 -1.1218 -0.1402
  101OSM   H14C10149   5.701   4.297  11.151 -3.3795  2.6651  2.2267
  101OSM    C1310150   5.732   4.028  11.172 -0.2109  0.5133 -0.3131
  101OSM   H13A10151   5.821   4.082  11.200  1.1326  0.0841 -3.3170
  101OSM   H13B10152   5.735   3.988  11.072 -2.2579 -1.3574  0.2993
  101OSM   H13C10153   5.728   3.948  11.243 -0.9928 -1.3210 -2.3132
  101OSM    C1210154   5.492   4.034  11.169  0.4417  0.0723 -0.4203
  101OSM   H12A10155   5.408   4.088  11.211 -0.0106 -0.4668 -0.6144
  101OSM   H12B10156   5.509   3.940  11.218 -1.1807 -0.0213  0.0334
  101OSM    C1110157   5.443   4.000  11.021 -0.3919  0.0742 -1.0159
  101OSM   H11A10158   5.441   4.093  10.961 -1.2276  0.5029 -0.3384
  101OSM   H11B10159   5.338   3.967  11.035  0.0219 -2.0707 -2.4165
  101OSM      P10160   5.595   3.892  10.828 -0.0956 -0.1538 -0.2960
  101OSM    O1310161   5.670   4.020  10.820 -0.2109 -1.1289  0.3577
  101OSM    O1410162   5.660   3.764  10.833  0.1842 -0.3538 -0.1635
  101OSM    O1110163   5.492   3.880  10.704 -0.6404 -0.6298 -0.6118
  101OSM    O1210164   5.513   3.888  10.957 -0.8133 -0.6567 -0.0307
  101OSM    C1S10165   5.424   3.992  10.648 -0.3281 -0.3840 -0.3818
  101OSM    H1S10166   5.454   4.092  10.687 -0.7094 -0.2668 -0.3835
  101OSM    H1T10167   5.315   3.984  10.667 -0.4456  0.0390 -0.8583
  101OSM     NF10168   5.387   4.111  10.429  0.1780  1.0680 -0.3759
  101OSM    HNF10169   5.320   4.077  10.364 -0.0732 -0.8043  0.8006
  101OSM    C2S10170   5.457   3.995  10.490  0.8677  0.5380 -0.3772
  101OSM    H2S10171   5.565   4.008  10.468  0.8451  0.7223 -0.3842
  101OSM    C3S10172   5.415   3.861  10.414 -0.0421  0.3585  0.2256
  101OSM    H3S10173   5.305   3.857  10.424 -0.5289 -0.7787 -3.8556
  101OSM     O310174   5.471   3.744  10.469 -0.5963  0.1630  0.4080
  101OSM    HO310175   5.491   3.762  10.561 -1.5298  0.3473  0.5820
  101OSM    C4S10176   5.449   3.869  10.268  0.5172 -0.0293 -0.0947
  101OSM    H4S10177   5.556   3.869  10.242  0.8301  2.2254  0.9817
  101OSM    C5S10178   5.357   3.879  10.167 -0.5535 -0.0773  0.7424
  101OSM    H5S10179   5.249   3.873  10.190 -0.7775  0.9170  0.0220
  101OSM    C6S10180   5.384   3.883  10.020  0.1323 -0.2101 -0.1078
  101OSM    H6S10181   5.320   3.805   9.973  2.1626 -2.4592  0.6501
  101OSM    H6T10182   5.491   3.874   9.991  0.3304  0.3961  0.4068
  101OSM    C7S10183   5.356   4.025   9.966  0.1766  0.4368  0.4592
  101OSM    H7S10184   5.390   4.095  10.045 -0.5071  1.0790  0.1930
  101OSM    H7T10185   5.250   4.051   9.949  0.5403  1.7300  0.0442
  101OSM    C8S10186   5.421   4.064   9.832 -0.4704 -0.0434  0.6570
  101OSM    H8S10187   5.528   4.035   9.836  0.3298  2.0557 -2.0117
  101OSM    H8T10188   5.406   4.174   9.828 -0.3402 -0.0452  0.0995
  101OSM    C9S10189   5.351   3.990   9.716 -0.2086 -0.7703 -1.1199
  101OSM    H9S10190   5.242   3.989   9.735 -0.2357 -0.1894 -1.2098
  101OSM    H9T10191   5.392   3.887   9.712 -0.5563 -0.9623  0.0165
  101OSM   C10S10192   5.359   4.060   9.578 -0.6197 -0.9315  0.2511
  101OSM   H10S10193   5.467   4.076   9.558 -0.9207  1.7473  0.4747
  101OSM   H10T10194   5.312   4.160   9.568 -1.7202 -1.4635 -0.1473
  101OSM   C11S10195   5.306   3.957   9.473  0.5103 -0.7375  0.3491
  101OSM   H11S10196   5.199   3.932   9.489  0.7625 -2.5266 -0.4950
  101OSM   H11T10197   5.353   3.856   9.486 -1.2323 -1.4118  1.7924
  101OSM   C12S10198   5.328   4.012   9.329  0.0083 -0.4974  0.0856
  101OSM   H12S10199   5.432   4.009   9.292  0.6413 -0.3848  1.7740
  101OSM   H12T10200   5.309   4.121   9.319  3.6213  0.3491  0.9565
  101OSM   C13S10201   5.241   3.931   9.231  0.0866 -0.2987 -0.2328
  101OSM   H13S10202   5.137   3.929   9.270 -0.4954  2.3135 -1.4553
  101OSM   H13T10203   5.280   3.827   9.225  3.2135  0.8181 -1.5055
  101OSM   C14S10204   5.236   3.991   9.091 -0.2423 -0.3040  0.1946
  101OSM   H14S10205   5.243   4.102   9.090 -0.8388 -0.2646 -0.3322
  101OSM   H14T10206   5.136   3.964   9.050  0.3586 -1.3923 -0.5899
  101OSM   C15S10207   5.346   3.941   9.000  0.1567  0.7298  0.7816
  101OSM   H15S10208   5.328   3.834   8.976  0.9033  0.8112 -0.2406
  101OSM   H15T10209   5.443   3.946   9.054  0.0798 -1.7844  1.2327
  101OSM   C16S10210   5.355   4.019   8.865 -0.2077  0.2527 -0.4476
  101OSM   H16S10211   5.423   3.964   8.796 -0.3867  1.5328 -1.6816
  101OSM   H16T10212   5.393   4.123   8.872 -0.6457  0.3283  1.0694
  101OSM   C17S10213   5.223   4.018   8.791  0.1375 -0.0532  0.4367
  101OSM   H17S10214   5.154   4.084   8.847  2.3261  2.4293  0.4115
  101OSM   H17T10215   5.183   3.915   8.803 -2.6392  1.0081  1.1155
  101OSM   C18S10216   5.225   4.066   8.647  0.4505 -0.6698  0.0802
  101OSM   H18S10217   5.122   4.086   8.610  1.4456 -0.2908 -2.7489
  101OSM   H18T10218   5.273   3.996   8.575  1.3241  0.1623 -0.1667
  101OSM   H18U10219   5.297   4.150   8.644  2.3092 -2.2060 -0.2456
  101OSM    C1F10220   5.411   4.239  10.458 -0.8924 -0.0225 -0.6426
  101OSM     OF10221   5.521   4.276  10.504  0.3471 -0.5553 -0.2189
  101OSM    C2F10222   5.310   4.339  10.429  0.0351  0.4432  0.5355
  101OSM    H2F10223   5.254   4.351  10.524  0.3053  1.7379  0.5437
  101OSM    H2G10224   5.245   4.300  10.348 -1.0336  0.0182  1.5706
  101OSM    C3F10225   5.366   4.477  10.372 -0.4114 -0.6082  0.5287
  101OSM    H3F10226   5.426   4.524  10.453 -0.3805 -0.2720  0.3122
  101OSM    H3G10227   5.277   4.541  10.351 -0.5654 -0.7222  0.8166
  101OSM    C4F10228   5.430   4.481  10.232  0.3424  0.2878 -0.8061
  101OSM    H4F10229   5.499   4.394  10.219 -0.5961 -0.2679 -2.3020
  101OSM    H4G10230   5.485   4.577  10.225 -2.3801  1.8789 -1.6439
  101OSM    C5F10231   5.321   4.460  10.118 -0.6130 -0.1049 -0.2443
  101OSM    H5F10232   5.243   4.539  10.126 -0.6712 -0.1201 -0.6492
  101OSM    H5G10233   5.275   4.360  10.131  1.6985 -1.1752  0.2317
  101OSM    C6F10234   5.377   4.472   9.975  0.4126 -0.7003  0.2792
  101OSM    H6F10235   5.427   4.374   9.966  1.4234 -0.1586 -0.1365
  101OSM    H6G10236   5.454   4.552   9.977  2.5991 -2.6364  4.0979
  101OSM    C7F10237   5.274   4.499   9.866 -0.7872 -0.3549  0.5359
  101OSM    H7F10238   5.255   4.609   9.864  0.0883 -0.2001 -0.1069
  101OSM    H7G10239   5.183   4.438   9.881 -1.4322  0.2933 -0.5428
  101OSM    C8F10240   5.321   4.446   9.727  0.6920  0.1095 -0.7736
  101OSM    H8F10241   5.242   4.470   9.653 -0.7100 -0.6447  0.4257
  101OSM    H8G10242   5.324   4.335   9.739  1.4206 -0.2619 -3.7342
  101OSM    C9F10243   5.455   4.498   9.694  0.2640 -0.1954  0.5087
  101OSM    H9F10244   5.530   4.511   9.774  1.2263  0.0410 -0.3966
  101OSM   C10F10245   5.489   4.551   9.570 -0.0581 -0.7701  0.4086
  101OSM   H10F10246   5.588   4.596   9.557 -0.0949 -1.1958 -1.6040
  101OSM   C11F10247   5.407   4.561   9.442 -0.4471 -0.0264  0.0184
  101OSM   H11F10248   5.428   4.651   9.380 -2.2791  0.3419 -0.1246
  101OSM   H11G10249   5.298   4.553   9.464 -0.2604 -0.2961  0.8899
  101OSM   C12F10250   5.425   4.442   9.339  0.5991 -0.0721 -0.1857
  101OSM   H12F10251   5.374   4.348   9.370  1.2771 -1.0827 -1.9442
  101OSM   H12G10252   5.530   4.411   9.323  0.6276 -0.0158 -0.0995
  101OSM   C13F10253   5.364   4.484   9.197 -0.4387 -0.6023 -1.0225
  101OSM   H13F10254   5.422   4.575   9.170 -1.1594 -0.0450 -0.7207
  101OSM   H13G10255   5.260   4.522   9.209  0.3154  2.0754 -2.2188
  101OSM   C14F10256   5.391   4.387   9.077 -0.1498  0.1224  0.0561
  101OSM   H14F10257   5.331   4.294   9.090  1.6435 -1.0558  0.2855
  101OSM   H14G10258   5.498   4.357   9.084 -0.0835  0.6928  2.5564
  101OSM   C15F10259   5.367   4.475   8.949 -0.5966 -0.3907 -0.6465
  101OSM   H15F10260   5.451   4.546   8.942 -0.3628 -0.6825 -0.8443
  101OSM   H15G10261   5.268   4.525   8.942  0.2482  1.3099 -0.9726
  101OSM   C16F10262   5.380   4.387   8.821  0.1049 -0.6291  0.1419
  101OSM   H16F10263   5.295   4.319   8.804 -0.1125 -0.0628 -1.1525
  101OSM   H16G10264   5.480   4.339   8.824  1.2240  1.5994  1.2412
  101OSM   C17F10265   5.373   4.464   8.682  0.7803  0.3338 -0.1254
  101OSM   H17F10266   5.416   4.402   8.600 -0.0766 -1.0092  0.4094
  101OSM   H17G10267   5.432   4.556   8.697  2.7140 -1.2471  3.5384
  101OSM   C18F10268   5.229   4.501   8.653 -0.0115  0.2073  0.2045
  101OSM   H18F10269   5.220   4.557   8.557  1.2241 -1.2730 -0.8156
  101OSM   H18G10270   5.178   4.567   8.727  0.9941  1.9037 -0.5489
  101OSM   H18H10271   5.168   4.409   8.643  2.8051 -1.9087  1.3440
  102OSM      N10272   4.622   4.751  10.761  1.2424 -0.4375 -0.4130
  102OSM    C1510273   4.742   4.679  10.723 -0.5416 -0.1593 -0.2058
  102OSM   H15A10274   4.798   4.734  10.649 -0.1334  0.5580  0.6164
  102OSM   H15B10275   4.723   4.578  10.690 -1.5273 -0.0558  0.0160
  102OSM   H15C10276   4.804   4.664  10.810  0.3534  2.4663 -0.3228
  102OSM    C1410277   4.656   4.896  10.780 -0.6291 -0.9354 -0.2000
  102OSM   H14A10278   4.734   4.894  10.856  2.9230 -0.0639 -3.4838
  102OSM   H14B10279   4.585   4.967  10.818  0.3117 -1.5489  3.0358
  102OSM   H14C10280   4.714   4.942  10.701  1.5658  0.6373  2.1484
  102OSM    C1310281   4.534   4.749  10.638  0.7762 -0.1440 -0.0336
  102OSM   H13A10282   4.441   4.800  10.655  0.6212 -0.1917 -0.7135
  102OSM   H13B10283   4.507   4.645  10.625  0.6415  0.0317 -1.2768
  102OSM   H13C10284   4.575   4.792  10.547 -1.5808  0.7648 -0.7336
  102OSM    C1210285   4.556   4.705  10.885 -0.6397 -0.2042 -0.0130
  102OSM   H12A10286   4.466   4.763  10.900 -0.2410  0.0480  1.5172
  102OSM   H12B10287   4.613   4.711  10.976  0.4046 -3.9036 -0.2477
  102OSM    C1110288   4.515   4.557  10.879  0.4514  0.2859 -0.8611
  102OSM   H11A10289   4.492   4.526  10.984  0.4077  1.2876 -0.5612
  102OSM   H11B10290   4.602   4.494  10.851  0.3420 -0.4712  0.3856
  102OSM      P10291   4.254   4.580  10.838 -0.0692  0.2905  0.2143
  102OSM    O1310292   4.202   4.491  10.939  0.7088  0.0287  0.1342
  102OSM    O1410293   4.232   4.725  10.859  0.1481 -0.6379  0.5536
  102OSM    O1110294   4.167   4.538  10.711  0.2149  0.2656 -0.6008
  102OSM    O1210295   4.403   4.542  10.791  0.3154 -0.8058  0.2480
  102OSM    C1S10296   4.146   4.626  10.601  0.1349 -0.3905 -0.3789
  102OSM    H1S10297   4.215   4.712  10.611 -1.1446  0.4535  1.9556
  102OSM    H1T10298   4.041   4.660  10.598  0.7052  1.5247  0.1176
  102OSM     NF10299   4.115   4.643  10.360 -0.0856  0.1320  0.4326
  102OSM    HNF10300   4.021   4.677  10.368 -0.4130 -0.7691  0.5501
  102OSM    C2S10301   4.157   4.550  10.464  0.4847 -0.1862 -0.5234
  102OSM    H2S10302   4.263   4.528  10.440  0.4106 -0.1453 -0.8941
  102OSM    C3S10303   4.068   4.427  10.469 -0.4377  0.6267  0.3840
  102OSM    H3S10304   3.967   4.458  10.507 -0.4428  0.6654  0.3397
  102OSM     O310305   4.105   4.331  10.568  0.4883  0.1231  0.3919
  102OSM    HO310306   4.166   4.376  10.627  0.7500  0.9566 -0.4850
  102OSM    C4S10307   4.060   4.360  10.334 -0.2161  0.7896 -0.2515
  102OSM    H4S10308   4.150   4.308  10.298  0.7536  2.1644  0.1436
  102OSM    C5S10309   3.955   4.381  10.255  1.5163  0.2784  0.1971
  102OSM    H5S10310   3.874   4.446  10.293  2.6411  0.6640  2.0448
  102OSM    C6S10311   3.933   4.328  10.112  0.0245 -0.1432  0.1836
  102OSM    H6S10312   3.827   4.296  10.095  0.5536 -1.4481 -0.8514
  102OSM    H6T10313   3.986   4.232  10.098 -1.8146 -1.3249  0.8604
  102OSM    C7S10314   3.974   4.425  10.003 -0.6431  0.2204 -1.0669
  102OSM    H7S10315   4.077   4.462  10.022 -0.3850 -0.8140 -0.3607
  102OSM    H7T10316   3.912   4.517  10.010  0.5980  1.2123 -2.5409
  102OSM    C8S10317   3.970   4.359   9.866  0.0029  0.7198 -0.5800
  102OSM    H8S10318   3.867   4.319   9.856 -0.8103  2.6965 -0.5951
  102OSM    H8T10319   4.041   4.273   9.866 -0.3372  0.3323  2.3083
  102OSM    C9S10320   3.985   4.460   9.748 -0.2805 -0.0544  0.4121
  102OSM    H9S10321   4.064   4.534   9.775 -1.6879  1.4468  0.5602
  102OSM    H9T10322   3.897   4.527   9.744  1.4957  2.3878 -0.3391
  102OSM   C10S10323   4.010   4.381   9.629 -0.3271  0.0314  0.2688
  102OSM   H10S10324   3.946   4.292   9.612  2.2529 -1.3056 -4.2953
  102OSM   H10T10325   4.113   4.341   9.633 -1.0565 -1.9185  0.6163
  102OSM   C11S10326   3.998   4.468   9.503 -0.0486 -0.1492 -0.0543
  102OSM   H11S10327   4.073   4.550   9.511  0.3791 -0.4227 -1.0404
  102OSM   H11T10328   3.896   4.512   9.504  0.1290  0.3018  1.9772
  102OSM   C12S10329   4.020   4.401   9.363  0.5706 -0.6581 -0.7117
  102OSM   H12S10330   3.952   4.314   9.353 -1.6444  0.6344  1.7300
  102OSM   H12T10331   4.122   4.362   9.346  1.0606  1.3163 -2.7757
  102OSM   C13S10332   3.978   4.497   9.241 -0.2082 -0.5774  0.6838
  102OSM   H13S10333   4.048   4.584   9.236 -0.4505 -0.3969  0.4095
  102OSM   H13T10334   3.877   4.541   9.249 -0.1290  0.9274 -3.7324
  102OSM   C14S10335   3.990   4.431   9.102  0.0552 -0.2567  0.5796
  102OSM   H14S10336   3.902   4.364   9.090  0.1436 -0.3307  0.3523
  102OSM   H14T10337   4.074   4.360   9.118 -0.9131 -1.3976  0.7419
  102OSM   C15S10338   4.002   4.530   8.981 -0.2204  0.6971  0.1356
  102OSM   H15S10339   4.019   4.468   8.891 -1.4724 -1.8039  1.5013
  102OSM   H15T10340   4.084   4.603   8.998 -0.9427  2.3801 -2.9558
  102OSM   C16S10341   3.872   4.615   8.974  0.4687  1.0405  0.1940
  102OSM   H16S10342   3.881   4.694   9.052  1.3346  0.7455  0.3925
  102OSM   H16T10343   3.782   4.551   8.980  0.3786  1.0687 -0.7034
  102OSM   C17S10344   3.842   4.690   8.841 -0.3266 -0.7039 -0.5518
  102OSM   H17S10345   3.759   4.764   8.843 -0.0171 -0.2836 -2.0626
  102OSM   H17T10346   3.804   4.614   8.770 -1.4659  2.1549 -3.2214
  102OSM   C18S10347   3.964   4.764   8.783 -0.4828  0.0424 -0.0772
  102OSM   H18S10348   4.010   4.844   8.845 -1.1460  2.0535 -2.0382
  102OSM   H18T10349   3.919   4.808   8.691 -0.2825 -0.8400 -0.6078
  102OSM   H18U10350   4.050   4.701   8.750  0.4943  2.2800 -2.1810
  102OSM    C1F10351   4.202   4.714  10.288  0.0132  0.4124  0.0863
  102OSM     OF10352   4.323   4.719  10.309  0.5422  0.4398  0.0006
  102OSM    C2F10353   4.136   4.781  10.174 -0.3676 -0.1080  0.9907
  102OSM    H2F10354   4.044   4.837  10.201 -1.7258 -1.9608  0.4194
  102OSM    H2G10355   4.110   4.696  10.108 -0.9733 -0.5728  1.8082
  102OSM    C3F10356   4.239   4.881  10.103 -0.8930  0.8117 -0.3401
  102OSM    H3F10357   4.272   4.960  10.174 -2.1072  2.4405 -1.5061
  102OSM    H3G10358   4.179   4.944  10.033 -0.8604  1.9521  0.6183
  102OSM    C4F10359   4.357   4.827  10.014  0.7903  0.0522 -0.3598
  102OSM    H4F10360   4.438   4.778  10.072  1.2741  0.5146 -0.6323
  102OSM    H4G10361   4.411   4.917   9.977 -0.3530 -0.1563 -2.7103
  102OSM    C5F10362   4.302   4.740   9.902  0.6505 -0.7330 -0.3940
  102OSM    H5F10363   4.215   4.793   9.856  0.1297 -1.2119  0.0337
  102OSM    H5G10364   4.259   4.646   9.942 -0.0311 -0.6730 -0.9521
  102OSM    C6F10365   4.406   4.703   9.791  1.0403  0.3845 -0.0943
  102OSM    H6F10366   4.468   4.621   9.834  1.4586  1.0214  0.5411
  102OSM    H6G10367   4.467   4.792   9.764 -1.8868  2.4355 -0.4842
  102OSM    C7F10368   4.338   4.654   9.652 -0.8720  0.5730 -0.3417
  102OSM    H7F10369   4.284   4.748   9.628 -0.7235  1.0210  0.9901
  102OSM    H7G10370   4.267   4.572   9.673  0.1599 -0.5862 -1.2151
  102OSM    C8F10371   4.439   4.618   9.532  0.2523  0.2716 -0.3000
  102OSM    H8F10372   4.513   4.545   9.571 -0.8877  0.0243  1.5391
  102OSM    H8G10373   4.496   4.713   9.531 -0.2358  0.7656  3.3827
  102OSM    C9F10374   4.361   4.581   9.411 -0.1547  0.6305  0.6882
  102OSM    H9F10375   4.289   4.498   9.419 -1.2781  1.2853 -1.7675
  102OSM   C10F10376   4.368   4.638   9.293  0.2758  0.1052  0.1672
  102OSM   H10F10377   4.306   4.611   9.206 -0.3873  1.7014  0.1106
  102OSM   C11F10378   4.458   4.743   9.243  0.3205  0.0789  0.5450
  102OSM   H11F10379   4.523   4.712   9.158  1.8824  1.6054  1.1230
  102OSM   H11G10380   4.524   4.773   9.327  0.4958 -0.3811  0.5715
  102OSM   C12F10381   4.383   4.872   9.196  0.4144 -0.0879  0.0429
  102OSM   H12F10382   4.461   4.951   9.197  0.5469 -0.1208 -2.1072
  102OSM   H12G10383   4.304   4.900   9.269 -0.9444 -0.8895 -1.0612
  102OSM   C13F10384   4.345   4.868   9.053 -0.5504 -0.7445  0.8427
  102OSM   H13F10385   4.308   4.764   9.046  1.3494 -1.3705 -0.6810
  102OSM   H13G10386   4.434   4.869   8.987 -0.8217  0.2547  0.4613
  102OSM   C14F10387   4.250   4.976   9.010  0.3520 -0.4345  0.9147
  102OSM   H14F10388   4.284   5.075   9.049  0.8527  1.0879 -2.9809
  102OSM   H14G10389   4.146   4.955   9.044  0.1362 -1.9215 -0.5846
  102OSM   C15F10390   4.238   4.974   8.855 -0.2970 -0.9883  0.1257
  102OSM   H15F10391   4.197   4.876   8.825 -1.9840 -0.8252  1.7307
  102OSM   H15G10392   4.340   4.991   8.813  0.2636 -2.3305  0.8847
  102OSM   C16F10393   4.132   5.083   8.822 -0.4735  0.5571  0.2562
  102OSM   H16F10394   4.148   5.173   8.884 -0.0778  0.0740  0.8686
  102OSM   H16G10395   4.032   5.050   8.858 -0.4133  0.4212  0.3027
  102OSM   C17F10396   4.134   5.129   8.673  0.2141 -0.1660 -0.7129
  102OSM   H17F10397   4.086   5.047   8.614  0.1004 -0.1466 -0.6477
  102OSM   H17G10398   4.238   5.143   8.636  0.0755 -0.3362 -1.1762
  102OSM   C18F10399   4.050   5.254   8.654  0.6102 -0.2802  0.7179
  102OSM   H18F10400   3.943   5.228   8.664  0.4023 -0.3132 -1.2420
  102OSM   H18G10401   4.062   5.283   8.548 -0.3874 -0.5454  0.5285
  102OSM   H18H10402   4.086   5.334   8.722  0.3434  0.9938 -0.5956
  103OSM      N10403   5.804   0.423  11.361  0.0730 -0.2194 -0.3198
  103OSM    C1510404   5.825   0.468  11.503  0.3785 -0.2228  0.4729
  103OSM   H15A10405   5.743   0.441  11.568  0.8262  0.1691  1.2061
  103OSM   H15B10406   5.825   0.576  11.502  0.4030 -0.2050 -1.3835
  103OSM   H15C10407   5.912   0.425  11.550  0.9688  0.9760  0.5121
  103OSM    C1410408   5.924   0.467  11.275 -0.3267 -1.3523  0.5615
  103OSM   H14A10409   5.897   0.471  11.171  2.2998 -0.7444 -0.1664
  103OSM   H14B10410   6.007   0.397  11.279  2.4453  1.6326 -0.4751
  103OSM   H14C10411   5.958   0.565  11.304 -1.1134 -0.7001 -0.6437
  103OSM    C1310412   5.787   0.275  11.350  0.5352  0.0028 -0.4130
  103OSM   H13A10413   5.706   0.235  11.409  1.0749 -1.5534 -0.6673
  103OSM   H13B10414   5.873   0.218  11.382  0.5807 -0.3014 -1.0457
  103OSM   H13C10415   5.751   0.252  11.250 -1.6452  0.0895  0.2993
  103OSM    C1210416   5.677   0.491  11.305 -0.2056 -0.2713 -0.6995
  103OSM   H12A10417   5.586   0.439  11.335  0.3551 -2.1323 -2.0034
  103OSM   H12B10418   5.680   0.465  11.200 -1.2312 -1.3234 -0.5038
  103OSM    C1110419   5.648   0.642  11.301  0.3738  0.4622 -0.0662
  103OSM   H11A10420   5.651   0.663  11.410  2.7086 -1.3955  0.3188
  103OSM   H11B10421   5.552   0.668  11.253  0.6316  1.3588 -0.1069
  103OSM      P10422   5.787   0.726  11.088  0.4005 -0.1191  0.1971
  103OSM    O1310423   5.690   0.822  11.036  0.6011  0.6151  0.5265
  103OSM    O1410424   5.930   0.756  11.054  0.3225 -0.3598 -0.1968
  103OSM    O1110425   5.745   0.581  11.036  0.9483  0.5774 -0.7636
  103OSM    O1210426   5.759   0.707  11.242 -0.3315 -0.2640 -0.2757
  103OSM    C1S10427   5.689   0.538  10.914  0.3295 -0.0075  0.5039
  103OSM    H1S10428   5.604   0.606  10.890  0.2716  0.0775  0.9508
  103OSM    H1T10429   5.648   0.436  10.931  0.8568 -0.0643  1.4904
  103OSM     NF10430   5.740   0.509  10.664  0.2666  0.0647  0.3326
  103OSM    HNF10431   5.748   0.424  10.612  1.6600  1.2663 -1.5741
  103OSM    C2S10432   5.795   0.521  10.800  0.1044  0.2415 -0.6458
  103OSM    H2S10433   5.859   0.611  10.809 -1.2244  1.0043  2.2926
  103OSM    C3S10434   5.887   0.393  10.831 -0.6621  0.3324 -0.3528
  103OSM    H3S10435   5.830   0.306  10.869  0.3240 -0.9685 -1.7403
  103OSM     O310436   5.984   0.436  10.929  0.1529  0.2581 -0.2029
  103OSM    HO310437   5.932   0.486  10.992  1.9907  0.7767  0.9739
  103OSM    C4S10438   5.965   0.350  10.710  0.4195 -0.4144  0.0629
  103OSM    H4S10439   6.039   0.423  10.674 -0.2899 -0.3516 -1.3488
  103OSM    C5S10440   5.933   0.237  10.645  0.1956  0.1712  0.0104
  103OSM    H5S10441   5.845   0.181  10.682 -0.9252  1.9619  0.1753
  103OSM    C6S10442   6.003   0.193  10.524 -0.5683 -0.3081  0.5754
  103OSM    H6S10443   5.976   0.089  10.496  1.2659 -0.6814  0.0877
  103OSM    H6T10444   6.111   0.211  10.539 -0.7446  0.5414  0.9070
  103OSM    C7S10445   5.979   0.293  10.406 -0.4428 -0.4307 -0.1573
  103OSM    H7S10446   6.031   0.390  10.421 -0.8325  0.1678 -2.2136
  103OSM    H7T10447   5.870   0.314  10.397 -0.1019  1.5704 -0.2603
  103OSM    C8S10448   6.036   0.250  10.271 -0.0551 -0.5124  0.1314
  103OSM    H8S10449   6.027   0.141  10.253 -2.7017 -0.1245 -1.3854
  103OSM    H8T10450   6.147   0.262  10.272 -0.0334 -0.6302 -0.4324
  103OSM    C9S10451   5.965   0.326  10.155  0.0030 -0.0716 -0.2436
  103OSM    H9S10452   5.974   0.436  10.166 -0.5797 -0.1429  1.0697
  103OSM    H9T10453   5.860   0.292  10.142  0.5194 -2.1928  0.7572
  103OSM   C10S10454   6.038   0.293  10.026 -0.1076  0.4362 -0.2849
  103OSM   H10S10455   6.003   0.193   9.992  0.0685 -0.3340  1.6619
  103OSM   H10T10456   6.145   0.293  10.056 -0.4939  0.7763  1.1352
  103OSM   C11S10457   6.008   0.397   9.916  0.4257  0.5342  0.4001
  103OSM   H11S10458   6.041   0.500   9.939 -0.1150  0.4263  1.7478
  103OSM   H11T10459   5.898   0.408   9.909 -0.0569 -2.8676  0.8508
  103OSM   C12S10460   6.056   0.351   9.774  0.2666  0.1284 -0.0340
  103OSM   H12S10461   6.009   0.254   9.749  0.9756 -0.1814 -0.1932
  103OSM   H12T10462   6.167   0.347   9.772  0.3767 -1.9465  3.1219
  103OSM   C13S10463   6.015   0.445   9.656  0.1415  0.3590  0.0742
  103OSM   H13S10464   6.046   0.551   9.667  0.8559  0.1077  0.6463
  103OSM   H13T10465   5.905   0.451   9.648  0.0429  0.7133  1.3679
  103OSM   C14S10466   6.070   0.377   9.526  0.0967 -0.0442  0.2830
  103OSM   H14S10467   6.048   0.269   9.517  2.4718 -0.5301 -0.3202
  103OSM   H14T10468   6.179   0.401   9.523 -0.0481  0.6907  0.5920
  103OSM   C15S10469   6.022   0.449   9.407  0.0930 -0.0740 -0.0107
  103OSM   H15S10470   6.033   0.558   9.427 -0.8319 -0.1476  0.9645
  103OSM   H15T10471   5.913   0.449   9.387 -0.2455  1.6798  1.6083
  103OSM   C16S10472   6.115   0.412   9.291  0.3548  0.6579  0.5072
  103OSM   H16S10473   6.099   0.306   9.260 -0.3404  0.8708  0.1222
  103OSM   H16T10474   6.222   0.415   9.323  0.9479  1.2277 -1.4132
  103OSM   C17S10475   6.099   0.514   9.171 -0.5630  0.9389  0.3759
  103OSM   H17S10476   6.102   0.618   9.211  0.2535  0.8276  0.6312
  103OSM   H17T10477   6.010   0.491   9.109  0.8175  0.3224 -1.4494
  103OSM   C18S10478   6.215   0.502   9.078 -1.0179  0.4018  0.4913
  103OSM   H18S10479   6.301   0.448   9.124  0.2936  1.5409 -0.5512
  103OSM   H18T10480   6.250   0.604   9.054  3.2597 -1.4559 -2.3717
  103OSM   H18U10481   6.191   0.443   8.987  0.7121  0.2054  0.1310
  103OSM    C1F10482   5.671   0.608  10.606  0.8355 -0.2901  0.1707
  103OSM     OF10483   5.665   0.719  10.653 -0.1728  0.0777 -0.0414
  103OSM    C2F10484   5.577   0.577  10.490  0.2082 -0.0799  0.6891
  103OSM    H2F10485   5.481   0.628  10.513 -0.1675 -1.4898  2.4526
  103OSM    H2G10486   5.551   0.469  10.489  0.3847 -0.1224  0.1391
  103OSM    C3F10487   5.638   0.627  10.353 -0.1476 -0.3545  0.0494
  103OSM    H3F10488   5.724   0.564  10.322  1.4852  2.3578 -1.3170
  103OSM    H3G10489   5.685   0.728  10.363 -0.9290  0.0166  0.0330
  103OSM    C4F10490   5.540   0.636  10.236 -0.2079  0.3964 -0.5435
  103OSM    H4F10491   5.460   0.710  10.258 -0.6284 -0.1297 -0.2751
  103OSM    H4G10492   5.477   0.545  10.225  1.1935 -0.7186  0.3945
  103OSM    C5F10493   5.599   0.668  10.096 -0.0516  0.7286  0.1864
  103OSM    H5F10494   5.665   0.583  10.067 -0.0336  0.7943  0.0317
  103OSM    H5G10495   5.654   0.764  10.106  0.5287  0.3863  0.3325
  103OSM    C6F10496   5.498   0.675   9.980 -0.0746  0.4566 -0.4816
  103OSM    H6F10497   5.424   0.739  10.032 -0.3305  1.3035 -1.8540
  103OSM    H6G10498   5.463   0.571   9.963  3.7794 -0.7431 -2.3205
  103OSM    C7F10499   5.546   0.736   9.850  0.1910 -0.3203 -0.0854
  103OSM    H7F10500   5.629   0.681   9.800 -0.8198  1.9767 -4.8704
  103OSM    H7G10501   5.580   0.841   9.865 -1.5114  0.1732  0.5531
  103OSM    C8F10502   5.439   0.745   9.744  0.1131 -0.0788 -0.8353
  103OSM    H8F10503   5.358   0.803   9.793 -0.1110 -0.4451 -0.7770
  103OSM    H8G10504   5.399   0.643   9.729 -1.5514  0.1187  1.7685
  103OSM    C9F10505   5.474   0.821   9.619 -0.0242 -0.2415 -0.3950
  103OSM    H9F10506   5.536   0.908   9.648  1.1008 -1.2056  0.1836
  103OSM   C10F10507   5.445   0.798   9.494  0.4759 -0.0296  0.3726
  103OSM   H10F10508   5.502   0.855   9.420 -1.5038  2.3400  0.5334
  103OSM   C11F10509   5.357   0.694   9.443  0.4002  0.5379  0.1586
  103OSM   H11F10510   5.280   0.667   9.519 -0.6228 -0.8678 -1.3088
  103OSM   H11G10511   5.403   0.594   9.428 -2.5888 -0.8819 -0.3394
  103OSM   C12F10512   5.271   0.738   9.316 -0.7098  0.3135 -0.5798
  103OSM   H12F10513   5.195   0.811   9.350  0.3858  1.3732 -0.3426
  103OSM   H12G10514   5.213   0.650   9.281 -1.0525  1.5783 -3.3835
  103OSM   C13F10515   5.352   0.791   9.202  0.4653 -0.4290  0.6168
  103OSM   H13F10516   5.392   0.893   9.221 -1.9750  0.7855 -0.2749
  103OSM   H13G10517   5.434   0.720   9.178 -0.7397 -1.3411 -1.0438
  103OSM   C14F10518   5.271   0.803   9.069  0.5325 -0.0083 -0.1755
  103OSM   H14F10519   5.213   0.708   9.064 -0.2147  0.4688 -0.7425
  103OSM   H14G10520   5.335   0.814   8.979  0.2335  1.4214 -0.2322
  103OSM   C15F10521   5.172   0.916   9.074 -0.0339  1.2425  0.7042
  103OSM   H15F10522   5.234   1.006   9.092  0.4632  0.5463  2.6086
  103OSM   H15G10523   5.107   0.898   9.162 -0.9267 -0.3032 -0.2150
  103OSM   C16F10524   5.079   0.933   8.954  0.0677  0.7197 -0.5888
  103OSM   H16F10525   5.010   1.018   8.974  1.0601  1.2735  0.6062
  103OSM   H16G10526   5.016   0.843   8.937  2.8596 -1.6453  0.7811
  103OSM   C17F10527   5.156   0.948   8.822  0.4108 -0.2231 -0.2406
  103OSM   H17F10528   5.216   0.857   8.797  0.3396  0.2046 -2.0921
  103OSM   H17G10529   5.229   1.031   8.832  1.3061 -1.1751  1.7541
  103OSM   C18F10530   5.062   0.973   8.711  0.1709 -0.2352 -0.0314
  103OSM   H18F10531   5.108   0.970   8.610 -2.0158 -0.4705 -1.0709
  103OSM   H18G10532   5.017   1.071   8.736  1.3206 -0.1096  1.7530
  103OSM   H18H10533   4.977   0.901   8.716  0.9154 -1.1770 -0.4963
  104OSM      N10534   4.120   5.312  10.817  0.0608 -0.5754  0.1692
  104OSM    C1510535   4.032   5.269  10.706  0.2202 -0.1460  0.5513
  104OSM   H15A10536   4.071   5.188  10.646  1.9526  1.7720 -1.0742
  104OSM   H15B10537   4.017   5.359  10.648 -0.8871  0.4476  1.7250
  104OSM   H15C10538   3.937   5.245  10.751 -1.0081  3.1053  0.0117
  104OSM    C1410539   4.141   5.204  10.907 -0.4278 -0.4901 -0.0380
  104OSM   H14A10540   4.171   5.118  10.850 -1.7212 -0.5049 -0.7316
  104OSM   H14B10541   4.049   5.171  10.953 -0.1786 -2.1295 -0.6669
  104OSM   H14C10542   4.208   5.242  10.983  0.9551 -1.0080 -0.9753
  104OSM    C1310543   4.245   5.349  10.744 -0.7457  0.3096  0.4672
  104OSM   H13A10544   4.318   5.386  10.814  0.5654  1.2116 -1.3143
  104OSM   H13B10545   4.217   5.429  10.677 -2.8142 -1.0223 -0.3474
  104OSM   H13C10546   4.279   5.258  10.699 -0.7845  0.7242 -0.4174
  104OSM    C1210547   4.056   5.432  10.891 -0.3149  0.0379 -0.1218
  104OSM   H12A10548   4.126   5.447  10.972  2.1723  1.3743 -2.3603
  104OSM   H12B10549   3.965   5.399  10.940  0.0218  0.1849  0.6196
  104OSM    C1110550   4.034   5.564  10.809 -0.2585  0.1746  0.1956
  104OSM   H11A10551   3.978   5.547  10.715  0.9514  3.2166 -1.1972
  104OSM   H11B10552   4.134   5.603  10.782  0.2538  0.1173  1.8538
  104OSM      P10553   3.806   5.614  10.922 -0.0127 -0.2108  0.3582
  104OSM    O1310554   3.811   5.492  11.004  0.0516  0.0532 -0.0804
  104OSM    O1410555   3.737   5.731  10.974 -0.4099  0.4712 -0.0313
  104OSM    O1110556   3.738   5.575  10.786 -0.0797 -0.8684  0.1516
  104OSM    O1210557   3.956   5.655  10.880  0.2054  0.0304 -0.5302
  104OSM    C1S10558   3.732   5.668  10.676 -0.2787  0.1771  0.0824
  104OSM    H1S10559   3.833   5.675  10.630  0.6927  0.9554  2.2179
  104OSM    H1T10560   3.711   5.771  10.713  1.2547  0.0341  1.4222
  104OSM     NF10561   3.643   5.706  10.433  0.4516  0.5353  0.2416
  104OSM    HNF10562   3.583   5.785  10.421  1.0096  0.9557  0.1599
  104OSM    C2S10563   3.626   5.641  10.568 -0.2709 -0.5180  0.2158
  104OSM    H2S10564   3.625   5.532  10.544  2.0340 -0.1642 -1.9021
  104OSM    C3S10565   3.496   5.675  10.631  0.6482 -0.3708 -0.2432
  104OSM    H3S10566   3.492   5.781  10.665  0.6132 -0.7783  1.0778
  104OSM     O310567   3.486   5.616  10.761  0.6159  0.4456  0.2489
  104OSM    HO310568   3.577   5.590  10.775  0.8128  1.4144  0.9001
  104OSM    C4S10569   3.382   5.643  10.539 -0.7036 -0.2259 -0.2829
  104OSM    H4S10570   3.358   5.727  10.471 -1.1258  0.2431  0.4311
  104OSM    C5S10571   3.306   5.529  10.524 -0.6665 -0.2335 -0.5458
  104OSM    H5S10572   3.325   5.437  10.581 -2.9006  0.0684  0.7979
  104OSM    C6S10573   3.191   5.522  10.425 -0.0817 -0.2190  0.4262
  104OSM    H6S10574   3.155   5.619  10.383 -0.1414 -0.2955  0.2998
  104OSM    H6T10575   3.100   5.478  10.472 -0.3408 -0.7080 -0.5163
  104OSM    C7S10576   3.236   5.431  10.310  0.8592 -0.1807  0.8451
  104OSM    H7S10577   3.236   5.325  10.342 -0.5378  0.0115  1.5502
  104OSM    H7T10578   3.338   5.457  10.273  0.1602  2.1179  0.3777
  104OSM    C8S10579   3.131   5.433  10.196  0.0424  0.2392 -0.1991
  104OSM    H8S10580   3.110   5.537  10.164  0.5847  1.7572  3.8432
  104OSM    H8T10581   3.035   5.388  10.228  0.4442  0.5838  1.6056
  104OSM    C9S10582   3.182   5.361  10.068 -0.7871  0.4877 -0.7837
  104OSM    H9S10583   3.193   5.259  10.109  3.1915  1.0807  0.0222
  104OSM    H9T10584   3.278   5.395  10.024  0.6211 -0.5108  1.3926
  104OSM   C10S10585   3.080   5.354   9.948 -1.2431  0.0571 -1.0330
  104OSM   H10S10586   3.047   5.458   9.924 -2.2090  0.7323  2.5772
  104OSM   H10T10587   2.995   5.294   9.988  0.7886 -2.5711 -0.3700
  104OSM   C11S10588   3.139   5.287   9.820 -1.0561 -0.6434 -0.2575
  104OSM   H11S10589   3.075   5.197   9.806 -0.9504 -1.2137  2.4487
  104OSM   H11T10590   3.239   5.246   9.843 -1.0308 -0.4034  0.0635
  104OSM   C12S10591   3.157   5.381   9.702 -0.0832 -0.2395 -0.2293
  104OSM   H12S10592   3.234   5.458   9.724  2.5655 -2.2019 -1.9799
  104OSM   H12T10593   3.063   5.435   9.676  0.0683 -0.3171 -0.9419
  104OSM   C13S10594   3.218   5.318   9.567  0.7094  0.6045 -0.1128
  104OSM   H13S10595   3.144   5.239   9.539  0.1442  1.1771 -0.2551
  104OSM   H13T10596   3.315   5.272   9.595  2.4901  3.5666 -0.9586
  104OSM   C14S10597   3.237   5.427   9.459 -0.6499 -0.1568  0.4237
  104OSM   H14S10598   3.333   5.481   9.475 -0.4176 -0.6330  0.6485
  104OSM   H14T10599   3.164   5.511   9.456 -0.2652  0.1913  0.6600
  104OSM   C15S10600   3.242   5.360   9.314 -0.0791 -0.7016  0.6628
  104OSM   H15S10601   3.323   5.283   9.313 -0.1624 -0.7891 -1.0378
  104OSM   H15T10602   3.267   5.443   9.244 -1.7264 -0.9761 -0.3072
  104OSM   C16S10603   3.119   5.279   9.259  0.7194 -0.0300  0.1081
  104OSM   H16S10604   3.038   5.351   9.281 -0.1322 -1.4385  1.8588
  104OSM   H16T10605   3.095   5.191   9.324 -0.9366 -0.3336 -0.8674
  104OSM   C17S10606   3.136   5.229   9.113 -0.4977 -0.0263 -0.6063
  104OSM   H17S10607   3.218   5.155   9.121  1.3002  2.0305  1.3788
  104OSM   H17T10608   3.173   5.315   9.053 -0.0516 -0.6501 -1.2353
  104OSM   C18S10609   3.009   5.169   9.042  0.6613  0.1429  1.0005
  104OSM   H18S10610   2.955   5.098   9.107 -0.9480 -0.0449 -0.4911
  104OSM   H18T10611   3.052   5.111   8.957  0.0312  0.7491  0.2554
  104OSM   H18U10612   2.945   5.250   9.000 -0.8568 -1.5299 -0.0474
  104OSM    C1F10613   3.746   5.683  10.354 -0.1951  0.0559  0.6939
  104OSM     OF10614   3.821   5.593  10.372  0.0170 -0.3443 -0.1606
  104OSM    C2F10615   3.774   5.780  10.241  0.5737 -0.2643 -0.7582
  104OSM    H2F10616   3.854   5.847  10.281 -0.9853  0.0305  2.1022
  104OSM    H2G10617   3.683   5.838  10.214 -0.3377 -1.2520  0.1162
  104OSM    C3F10618   3.837   5.721  10.120 -0.7842 -0.0921 -0.3669
  104OSM    H3F10619   3.781   5.629  10.092  1.2959 -1.3068 -0.7924
  104OSM    H3G10620   3.937   5.679  10.143 -1.5728 -2.0549 -0.3137
  104OSM    C4F10621   3.844   5.818  10.003  0.4168  0.4395  0.4954
  104OSM    H4F10622   3.914   5.898  10.034  1.0573 -0.2164  0.7757
  104OSM    H4G10623   3.746   5.869   9.995 -1.7272 -2.8167  2.9495
  104OSM    C5F10624   3.901   5.753   9.870 -0.4780 -0.0742 -0.1670
  104OSM    H5F10625   3.913   5.847   9.813  1.4354  0.3447  0.8494
  104OSM    H5G10626   3.828   5.690   9.816 -0.9247  0.4452 -0.1803
  104OSM    C6F10627   4.037   5.688   9.885 -0.6556 -0.3431 -0.1603
  104OSM    H6F10628   4.031   5.611   9.965  0.0439 -0.1523  0.0807
  104OSM    H6G10629   4.111   5.759   9.927  1.4337 -1.5719 -1.5285
  104OSM    C7F10630   4.096   5.634   9.753  0.4764 -0.4353 -0.0961
  104OSM    H7F10631   4.011   5.576   9.710  0.0572 -0.9254  1.3502
  104OSM    H7G10632   4.185   5.574   9.781  0.8948  0.6393  0.9679
  104OSM    C8F10633   4.141   5.743   9.649 -0.0914  0.0102 -0.9747
  104OSM    H8F10634   4.206   5.813   9.705 -1.6259  1.0826 -0.4549
  104OSM    H8G10635   4.059   5.795   9.594  0.3012  0.2036 -1.3764
  104OSM    C9F10636   4.236   5.693   9.544 -0.5249 -0.8968 -0.7133
  104OSM    H9F10637   4.343   5.698   9.568 -0.8889 -1.3059  1.1700
  104OSM   C10F10638   4.215   5.645   9.420 -0.1282  0.7483 -0.4992
  104OSM   H10F10639   4.292   5.607   9.351 -1.6254 -0.7583 -1.4348
  104OSM   C11F10640   4.072   5.627   9.370  0.7392 -0.0674  0.6791
  104OSM   H11F10641   3.995   5.657   9.445  1.3754  1.2336  0.8363
  104OSM   H11G10642   4.059   5.521   9.341 -1.1541  0.5275 -0.8168
  104OSM   C12F10643   4.054   5.706   9.242  0.2192  0.3653 -0.1622
  104OSM   H12F10644   4.087   5.810   9.262  1.3757  0.2667 -1.4101
  104OSM   H12G10645   3.948   5.717   9.209  0.2018 -0.5859 -0.4413
  104OSM   C13F10646   4.135   5.641   9.131 -0.2954  0.2634  0.2687
  104OSM   H13F10647   4.081   5.549   9.100  1.4054 -0.3478 -1.0795
  104OSM   H13G10648   4.228   5.602   9.178 -2.6422 -3.6443  2.2372
  104OSM   C14F10649   4.161   5.724   9.005  0.1903  0.0686  1.4381
  104OSM   H14F10650   4.230   5.682   8.928  2.0669 -0.4313  3.2777
  104OSM   H14G10651   4.213   5.817   9.036  1.5143 -0.3256  0.4834
  104OSM   C15F10652   4.029   5.761   8.930 -0.6038  0.1576  0.2039
  104OSM   H15F10653   3.945   5.797   8.994 -0.7576  2.2200 -1.0890
  104OSM   H15G10654   3.979   5.677   8.876 -0.8882  1.2043 -1.2209
  104OSM   C16F10655   4.050   5.868   8.822  0.6114 -0.4855 -0.1556
  104OSM   H16F10656   4.095   5.961   8.863  0.1579 -0.6457  0.7349
  104OSM   H16G10657   3.951   5.895   8.781  0.4224  1.8894  1.6380
  104OSM   C17F10658   4.135   5.811   8.717  0.0975  0.7264 -0.4554
  104OSM   H17F10659   4.106   5.707   8.692 -1.6813  0.5903  1.8701
  104OSM   H17G10660   4.238   5.812   8.759 -0.0284  0.8071 -0.1516
  104OSM   C18F10661   4.153   5.908   8.598 -0.2863  0.4699 -0.3757
  104OSM   H18F10662   4.061   5.907   8.535 -0.4174  0.8079 -0.1951
  104OSM   H18G10663   4.243   5.874   8.542  2.8228  3.7747  2.1489
  104OSM   H18H10664   4.185   6.007   8.637  0.3846 -0.4785  1.5711
  105OSM      N10665   3.435   5.278  10.995 -0.0602 -0.2333  0.4762
  105OSM    C1510666   3.519   5.386  11.051 -0.2149  0.6637  0.1016
  105OSM   H15A10667   3.464   5.478  11.035 -2.3264 -0.6323 -0.4756
  105OSM   H15B10668   3.607   5.400  10.990 -0.7067 -0.0784 -0.8099
  105OSM   H15C10669   3.527   5.370  11.157  2.1623 -1.7889 -0.3525
  105OSM    C1410670   3.495   5.144  11.026 -0.2609 -0.1481  0.1362
  105OSM   H14A10671   3.496   5.113  11.129 -1.3742 -1.1243 -0.1344
  105OSM   H14B10672   3.594   5.152  10.984 -1.0790  0.6766 -1.7749
  105OSM   H14C10673   3.447   5.061  10.977  1.1927 -1.7522  1.3456
  105OSM    C1310674   3.301   5.277  11.058  0.7459  0.1439 -0.4681
  105OSM   H13A10675   3.245   5.189  11.031  0.6312 -0.4328  1.5178
  105OSM   H13B10676   3.242   5.366  11.039  1.7375  1.1184  0.7623
  105OSM   H13C10677   3.303   5.279  11.166  1.0790  0.8367 -0.4799
  105OSM    C1210678   3.410   5.286  10.845 -0.0635 -0.0098  0.9479
  105OSM   H12A10679   3.339   5.363  10.821 -0.1893 -0.1358  0.9152
  105OSM   H12B10680   3.367   5.195  10.805  0.5338  0.3974 -0.7407
  105OSM    C1110681   3.535   5.300  10.752  0.1125  0.1828 -0.0094
  105OSM   H11A10682   3.603   5.381  10.785 -1.2383  1.0423  0.7214
  105OSM   H11B10683   3.501   5.331  10.651 -1.3679  2.1369  1.0350
  105OSM      P10684   3.562   5.054  10.661 -0.1006 -0.2423 -0.0240
  105OSM    O1310685   3.647   4.932  10.699 -0.5589  0.1764  0.4952
  105OSM    O1410686   3.417   5.038  10.658 -0.4341 -0.4028  0.6499
  105OSM    O1110687   3.610   5.106  10.512 -0.4732 -0.4149 -0.1195
  105OSM    O1210688   3.610   5.173  10.755 -0.4565 -0.5156  0.2453
  105OSM    C1S10689   3.720   5.195  10.486  0.3798 -0.7665 -0.0042
  105OSM    H1S10690   3.810   5.142  10.525  0.8273 -0.9572 -1.2542
  105OSM    H1T10691   3.702   5.291  10.540  0.5267  0.0696 -1.3932
  105OSM     NF10692   3.867   5.305  10.313 -0.0583  0.1940 -0.3317
  105OSM    HNF10693   3.866   5.403  10.330 -0.8125  0.3541 -1.2090
  105OSM    C2S10694   3.741   5.235  10.332  0.1445 -1.3574  0.3577
  105OSM    H2S10695   3.730   5.141  10.273  0.6436 -1.7680  0.9055
  105OSM    C3S10696   3.620   5.330  10.285  0.4486 -0.1186 -0.2655
  105OSM    H3S10697   3.609   5.421  10.349 -1.0776 -0.9234  0.6647
  105OSM     O310698   3.500   5.265  10.323  0.2592  0.1018 -0.3143
  105OSM    HO310699   3.531   5.197  10.383  0.2587  1.0202  0.7684
  105OSM    C4S10700   3.627   5.365  10.137  0.3478 -0.7182  0.3667
  105OSM    H4S10701   3.719   5.416  10.104  0.5542 -0.9781  0.5420
  105OSM    C5S10702   3.540   5.336  10.036  1.0461  0.1343  0.5944
  105OSM    H5S10703   3.462   5.265  10.064 -0.0176  0.1266 -2.0958
  105OSM    C6S10704   3.541   5.370   9.886 -0.7014 -0.3060  0.3040
  105OSM    H6S10705   3.522   5.476   9.862  1.2241  0.1311  0.6030
  105OSM    H6T10706   3.456   5.317   9.837  0.2935 -1.6575 -0.0302
  105OSM    C7S10707   3.666   5.318   9.822  0.4322 -0.0265 -0.4979
  105OSM    H7S10708   3.684   5.211   9.845 -1.2630 -0.4671 -1.0528
  105OSM    H7T10709   3.756   5.368   9.863 -0.8255  2.1890 -0.2617
  105OSM    C8S10710   3.658   5.339   9.666 -0.3035  0.2157  0.2055
  105OSM    H8S10711   3.650   5.449   9.648  1.1215  0.5225  1.2356
  105OSM    H8T10712   3.564   5.294   9.629 -0.2286 -1.1980  1.6209
  105OSM    C9S10713   3.785   5.290   9.595 -0.1462  0.4381 -0.1667
  105OSM    H9S10714   3.786   5.184   9.629 -0.3178  0.6721  0.5831
  105OSM    H9T10715   3.878   5.346   9.621 -0.1197  1.2995 -2.0095
  105OSM   C10S10716   3.758   5.281   9.443 -0.0940 -0.0376 -0.7870
  105OSM   H10S10717   3.688   5.196   9.432 -0.5339 -0.0013  1.3553
  105OSM   H10T10718   3.856   5.252   9.398 -0.0040  1.0792 -1.3519
  105OSM   C11S10719   3.712   5.410   9.374 -0.4106  0.1887 -0.2149
  105OSM   H11S10720   3.787   5.490   9.388 -1.3674  1.0634  0.0280
  105OSM   H11T10721   3.625   5.461   9.420  0.3635  0.6479  0.7610
  105OSM   C12S10722   3.672   5.387   9.226  0.1762  0.3987  0.3591
  105OSM   H12S10723   3.585   5.320   9.209 -0.1884  1.3063 -1.7624
  105OSM   H12T10724   3.759   5.333   9.184 -1.3193 -3.0368  1.3813
  105OSM   C13S10725   3.650   5.523   9.153 -0.0274 -0.0218 -0.8229
  105OSM   H13S10726   3.735   5.596   9.158  0.1373 -0.0771 -2.2987
  105OSM   H13T10727   3.558   5.562   9.201 -0.7845 -1.5584 -0.9703
  105OSM   C14S10728   3.617   5.492   9.004  0.2920 -0.1362 -0.4801
  105OSM   H14S10729   3.542   5.411   8.993 -3.0877  2.9048 -1.7684
  105OSM   H14T10730   3.712   5.462   8.954  0.3082  1.7987 -1.7185
  105OSM   C15S10731   3.554   5.612   8.930 -0.8333  0.4714 -1.2845
  105OSM   H15S10732   3.617   5.699   8.900  1.4183 -0.3487  0.7554
  105OSM   H15T10733   3.483   5.647   9.008 -0.1859  2.5939 -1.5686
  105OSM   C16S10734   3.455   5.561   8.822 -0.3976  0.1865 -0.5658
  105OSM   H16S10735   3.504   5.489   8.753 -1.2137  0.5703 -1.5695
  105OSM   H16T10736   3.433   5.652   8.762  0.3452  1.3175  0.7972
  105OSM   C17S10737   3.332   5.486   8.871  0.7496  0.1452 -0.0822
  105OSM   H17S10738   3.285   5.549   8.949  3.1121  0.2028  1.3850
  105OSM   H17T10739   3.349   5.387   8.918  0.5215  0.1178 -0.0579
  105OSM   C18S10740   3.219   5.461   8.764  0.1456  0.3203 -0.2210
  105OSM   H18S10741   3.178   5.562   8.741 -4.0670 -0.3903  2.9427
  105OSM   H18T10742   3.125   5.415   8.803  0.7818 -1.9429 -1.1907
  105OSM   H18U10743   3.251   5.426   8.664  0.1009 -2.2575  0.6048
  105OSM    C1F10744   3.980   5.236  10.325 -0.3590  0.3283  0.1771
  105OSM     OF10745   3.985   5.111  10.307  0.2361  0.4109 -0.0682
  105OSM    C2F10746   4.105   5.317  10.359 -0.1477  0.0722  0.0614
  105OSM    H2F10747   4.110   5.328  10.469  0.8024 -0.4200  0.0786
  105OSM    H2G10748   4.086   5.424  10.331 -0.8651  0.0971  0.6152
  105OSM    C3F10749   4.235   5.276  10.287 -0.6579  0.6105  0.4550
  105OSM    H3F10750   4.254   5.166  10.289  1.8683  0.9929  1.1603
  105OSM    H3G10751   4.314   5.327  10.346 -0.9410 -1.8049  3.1751
  105OSM    C4F10752   4.248   5.337  10.146 -0.0377 -0.0691 -0.1884
  105OSM    H4F10753   4.355   5.323  10.120 -0.2250  0.6480 -1.4008
  105OSM    H4G10754   4.218   5.443  10.161 -0.3294 -0.0094 -1.1223
  105OSM    C5F10755   4.173   5.277  10.021 -0.3850 -0.6180 -0.0679
  105OSM    H5F10756   4.076   5.330  10.010  0.6728  2.0840  2.2119
  105OSM    H5G10757   4.156   5.167  10.026 -2.0066 -0.3523  1.8600
  105OSM    C6F10758   4.246   5.308   9.893  0.0275  0.0345 -0.8487
  105OSM    H6F10759   4.324   5.228   9.895 -1.0814 -1.0575 -0.2956
  105OSM    H6G10760   4.295   5.407   9.899 -2.0166  0.9735  1.7614
  105OSM    C7F10761   4.153   5.278   9.774  0.1613  0.3988  0.7611
  105OSM    H7F10762   4.061   5.339   9.789 -0.2784 -0.1375  0.2679
  105OSM    H7G10763   4.109   5.176   9.778  1.5460 -0.1870  2.0502
  105OSM    C8F10764   4.207   5.305   9.636 -0.8280 -0.6762  0.7071
  105OSM    H8F10765   4.268   5.397   9.648  1.7361 -2.2428  0.4556
  105OSM    H8G10766   4.124   5.314   9.563  0.4936  2.2324 -0.5976
  105OSM    C9F10767   4.302   5.200   9.595 -0.5117 -0.2484 -0.2124
  105OSM    H9F10768   4.329   5.126   9.673  3.2696 -1.1692 -2.1474
  105OSM   C10F10769   4.342   5.186   9.468  0.2488 -0.3771 -0.5035
  105OSM   H10F10770   4.396   5.095   9.439 -2.5388 -1.7979 -1.5894
  105OSM   C11F10771   4.301   5.262   9.340 -0.3342 -0.3706  0.1573
  105OSM   H11F10772   4.271   5.367   9.362  0.7620 -0.1549  0.6542
  105OSM   H11G10773   4.216   5.209   9.293  0.0723  1.0482 -2.3538
  105OSM   C12F10774   4.409   5.267   9.229  0.9094 -0.3645  0.7626
  105OSM   H12F10775   4.444   5.166   9.198  1.9530  0.5831 -1.3289
  105OSM   H12G10776   4.491   5.322   9.279 -1.7102  1.6781  3.1879
  105OSM   C13F10777   4.362   5.338   9.101 -0.5150  0.2374  0.3698
  105OSM   H13F10778   4.310   5.431   9.132  0.3461  1.4496 -1.6144
  105OSM   H13G10779   4.276   5.282   9.057 -0.2394 -0.5015  0.7624
  105OSM   C14F10780   4.479   5.357   9.003 -0.0549 -0.0670  0.1932
  105OSM   H14F10781   4.523   5.257   8.985 -1.6335 -0.7671  0.0947
  105OSM   H14G10782   4.542   5.427   9.063 -0.4198 -0.1832  0.7161
  105OSM   C15F10783   4.443   5.407   8.865 -0.8079  0.1903  0.2063
  105OSM   H15F10784   4.342   5.453   8.861 -0.3629  1.0822 -1.4272
  105OSM   H15G10785   4.435   5.323   8.793  0.2869  1.6614 -1.7256
  105OSM   C16F10786   4.547   5.508   8.812 -0.4228 -0.5291 -0.2451
  105OSM   H16F10787   4.645   5.457   8.799 -0.0269  0.8495 -3.5491
  105OSM   H16G10788   4.560   5.588   8.887  0.7962  0.0282 -1.0282
  105OSM   C17F10789   4.505   5.586   8.683  0.0378  0.2886  0.0022
  105OSM   H17F10790   4.593   5.640   8.642  0.7937 -1.3949 -0.7126
  105OSM   H17G10791   4.428   5.665   8.690 -0.6754 -0.3549 -0.4440
  105OSM   C18F10792   4.453   5.485   8.573 -0.1778  0.2273 -0.2674
  105OSM   H18F10793   4.471   5.515   8.467  1.9007  0.3403  0.0829
  105OSM   H18G10794   4.344   5.468   8.591  0.0574 -0.4288  0.5966
  105OSM   H18H10795   4.505   5.388   8.584  0.9011  0.5490 -2.1250
  106OSM      N10796   3.930   4.594  11.191  0.3250 -0.1633 -0.6596
  106OSM    C1510797   3.956   4.505  11.311  0.2651  0.3116 -0.0010
  106OSM   H15A10798   4.053   4.459  11.306 -1.4009 -3.6126 -0.3228
  106OSM   H15B10799   3.888   4.420  11.313  0.9690 -0.2526  0.2447
  106OSM   H15C10800   3.935   4.546  11.409  0.0053  0.5301 -0.1490
  106OSM    C1410801   3.790   4.646  11.212 -0.8927 -0.0834  0.4461
  106OSM   H14A10802   3.780   4.677  11.315  0.6945 -2.9050  1.5672
  106OSM   H14B10803   3.726   4.565  11.183 -0.2218  0.0329 -1.4986
  106OSM   H14C10804   3.765   4.722  11.139  0.2163 -1.3633 -1.3287
  106OSM    C1310805   4.024   4.709  11.185 -0.7182 -0.3275  0.4159
  106OSM   H13A10806   3.999   4.778  11.106 -0.7955  0.2101  0.9038
  106OSM   H13B10807   4.122   4.672  11.157 -0.7612 -0.0838 -0.0668
  106OSM   H13C10808   4.041   4.761  11.279  2.5051 -0.0145 -0.2310
  106OSM    C1210809   3.952   4.513  11.064  1.5689  0.0617  0.3526
  106OSM   H12A10810   3.912   4.412  11.066  0.9375  0.2853 -0.4604
  106OSM   H12B10811   4.057   4.527  11.044  1.2576  3.2290  0.4717
  106OSM    C1110812   3.895   4.576  10.936 -0.1247 -0.4117  0.5449
  106OSM   H11A10813   3.948   4.516  10.860  0.3440  0.9879 -0.2633
  106OSM   H11B10814   3.929   4.678  10.909  2.4261 -1.0718  0.9897
  106OSM      P10815   3.675   4.443  10.873  0.0588  0.3747 -0.0612
  106OSM    O1310816   3.748   4.324  10.926  0.3840  0.3348 -0.9080
  106OSM    O1410817   3.534   4.455  10.908  0.6869  0.4774  0.1872
  106OSM    O1110818   3.694   4.445  10.716  0.5479  0.4199  0.2619
  106OSM    O1210819   3.752   4.569  10.918 -0.7321 -0.0121 -0.0390
  106OSM    C1S10820   3.695   4.568  10.645 -0.3775 -0.0276 -0.7185
  106OSM    H1S10821   3.800   4.606  10.646 -0.7053  0.9925  1.5907
  106OSM    H1T10822   3.635   4.646  10.696 -1.6843  0.1622 -2.4371
  106OSM     NF10823   3.633   4.689  10.421 -0.1800  0.4121 -0.3423
  106OSM    HNF10824   3.546   4.735  10.407 -0.4534 -0.7154 -3.0541
  106OSM    C2S10825   3.631   4.561  10.502 -0.3902  0.4820  0.6227
  106OSM    H2S10826   3.701   4.493  10.449  0.2845  2.1804 -0.7314
  106OSM    C3S10827   3.491   4.492  10.501  0.6827  0.4763  0.7690
  106OSM    H3S10828   3.415   4.551  10.556  0.0364  0.3794 -0.0038
  106OSM     O310829   3.488   4.368  10.571  0.1422 -0.0966 -0.0317
  106OSM    HO310830   3.573   4.368  10.614 -0.8549 -0.8814  2.0647
  106OSM    C4S10831   3.436   4.458  10.368 -0.3204 -0.6041 -0.0432
  106OSM    H4S10832   3.345   4.517  10.349 -0.0203 -0.6755 -1.9476
  106OSM    C5S10833   3.483   4.373  10.274 -0.4213  0.2334 -0.0510
  106OSM    H5S10834   3.575   4.317  10.294 -0.0524  1.3219  1.4160
  106OSM    C6S10835   3.413   4.351  10.145  0.6107  0.3623 -0.2054
  106OSM    H6S10836   3.334   4.429  10.132  1.7717  1.8971  1.3269
  106OSM    H6T10837   3.366   4.251  10.144  1.1893  0.0471  1.1522
  106OSM    C7S10838   3.504   4.374  10.024  0.6222 -0.3161 -0.2720
  106OSM    H7S10839   3.601   4.321  10.032  1.9546  1.9720 -0.3351
  106OSM    H7T10840   3.517   4.484  10.034 -1.8700  0.0148  0.0766
  106OSM    C8S10841   3.433   4.351   9.892 -0.7216  0.0713 -0.2173
  106OSM    H8S10842   3.329   4.390   9.901 -0.6541  0.3072 -0.4784
  106OSM    H8T10843   3.405   4.243   9.887 -2.0876  0.4394 -1.2192
  106OSM    C9S10844   3.516   4.394   9.771  0.0878  0.3122 -0.8378
  106OSM    H9S10845   3.617   4.351   9.791 -0.2410  0.7371  2.1953
  106OSM    H9T10846   3.545   4.501   9.761 -0.9137  0.5470 -1.3528
  106OSM   C10S10847   3.451   4.348   9.640  0.1629 -0.7512 -0.7029
  106OSM   H10S10848   3.344   4.379   9.646 -0.6603 -2.9079 -2.7224
  106OSM   H10T10849   3.451   4.238   9.627 -1.8377 -1.2830  2.5783
  106OSM   C11S10850   3.517   4.400   9.508 -0.0727  0.6210 -0.5837
  106OSM   H11S10851   3.623   4.369   9.514 -0.3766 -0.1112  2.2557
  106OSM   H11T10852   3.509   4.510   9.501 -1.0355  0.4695 -3.4661
  106OSM   C12S10853   3.450   4.347   9.377 -0.6187 -1.1975  0.1207
  106OSM   H12S10854   3.349   4.393   9.382  0.4229  1.1490  0.7044
  106OSM   H12T10855   3.437   4.236   9.385 -0.2161 -1.4550 -2.2625
  106OSM   C13S10856   3.519   4.400   9.245  0.3211  0.6563 -0.1880
  106OSM   H13S10857   3.623   4.362   9.242  0.5435  1.3206 -1.7131
  106OSM   H13T10858   3.522   4.511   9.243  0.5409  0.6652  0.5086
  106OSM   C14S10859   3.455   4.357   9.117  0.6018 -0.0167  0.3993
  106OSM   H14S10860   3.361   4.415   9.109 -1.0338 -2.5971 -0.6875
  106OSM   H14T10861   3.427   4.250   9.128 -0.8768  0.5156  2.2221
  106OSM   C15S10862   3.542   4.370   8.994 -0.5456 -0.5480 -0.8695
  106OSM   H15S10863   3.648   4.338   9.009 -0.9257 -1.1269  0.7820
  106OSM   H15T10864   3.544   4.478   8.968 -1.2984 -0.4539 -0.5650
  106OSM   C16S10865   3.482   4.292   8.881  0.0952  0.6861 -0.1392
  106OSM   H16S10866   3.371   4.290   8.873  0.0906 -1.4614 -0.0206
  106OSM   H16T10867   3.507   4.188   8.909  0.2242  0.5591 -0.7224
  106OSM   C17S10868   3.535   4.304   8.742 -0.6743 -0.7647 -0.3138
  106OSM   H17S10869   3.498   4.401   8.701  0.6062  0.6695  1.7270
  106OSM   H17T10870   3.482   4.229   8.680 -0.7036 -1.7512  0.8889
  106OSM   C18S10871   3.693   4.302   8.731  0.4943  0.9295  0.2285
  106OSM   H18S10872   3.740   4.393   8.774 -1.0985  1.1180  1.6714
  106OSM   H18T10873   3.722   4.307   8.624 -0.2111 -0.4267 -0.0441
  106OSM   H18U10874   3.737   4.208   8.770  0.5539  1.5072  1.6196
  106OSM    C1F10875   3.745   4.736  10.370  0.5142  0.7842  0.0297
  106OSM     OF10876   3.851   4.691  10.411  0.1284 -0.3829  0.1217
  106OSM    C2F10877   3.730   4.836  10.263 -1.1986  0.3381  1.0836
  106OSM    H2F10878   3.810   4.913  10.271  0.0105 -0.6765 -0.6609
  106OSM    H2G10879   3.631   4.885  10.275 -1.0254  0.9980 -0.0325
  106OSM    C3F10880   3.751   4.771  10.122  0.2241  0.4569  0.9858
  106OSM    H3F10881   3.658   4.716  10.093  0.9059 -0.5748  0.6871
  106OSM    H3G10882   3.834   4.698  10.129  0.0403  0.1827  0.4015
  106OSM    C4F10883   3.774   4.872  10.006 -0.2415 -0.3235 -0.1359
  106OSM    H4F10884   3.845   4.951  10.038  0.4615 -0.1550 -2.0448
  106OSM    H4G10885   3.674   4.922  10.011 -0.5867 -1.0636  4.0037
  106OSM    C5F10886   3.826   4.809   9.881 -0.3390  0.3882 -0.4540
  106OSM    H5F10887   3.748   4.740   9.841 -0.5241 -0.8422  1.8632
  106OSM    H5G10888   3.918   4.753   9.908 -1.2700 -0.2602  1.5081
  106OSM    C6F10889   3.869   4.910   9.778 -0.1091 -0.0031  1.0821
  106OSM    H6F10890   3.958   4.968   9.811 -0.0292  1.3880 -1.3811
  106OSM    H6G10891   3.799   4.991   9.750 -0.0615  0.1457  1.3944
  106OSM    C7F10892   3.929   4.852   9.643  0.0949  0.1561  0.2565
  106OSM    H7F10893   3.856   4.794   9.582  2.8171 -2.4577 -0.7987
  106OSM    H7G10894   3.998   4.770   9.673  0.5851  0.3018 -0.4502
  106OSM    C8F10895   4.000   4.957   9.558 -0.3846 -0.1295 -0.1328
  106OSM    H8F10896   4.084   4.999   9.617  0.9532 -1.7930 -0.7529
  106OSM    H8G10897   3.931   5.041   9.534  0.0882  0.5281  0.7584
  106OSM    C9F10898   4.071   4.902   9.437  0.8569  0.2703 -0.4883
  106OSM    H9F10899   4.180   4.893   9.451  0.8055  0.4179  0.0146
  106OSM   C10F10900   4.026   4.871   9.313  0.1922  0.1219  0.4299
  106OSM   H10F10901   4.090   4.832   9.232 -3.1806 -0.4463 -2.1749
  106OSM   C11F10902   3.876   4.889   9.283 -0.1761 -0.2583  0.2440
  106OSM   H11F10903   3.816   4.928   9.368 -0.8817 -0.2176 -0.2685
  106OSM   H11G10904   3.823   4.794   9.258 -0.6105  0.0921 -0.1667
  106OSM   C12F10905   3.850   4.994   9.174  0.0292  0.2451 -0.2245
  106OSM   H12F10906   3.905   4.947   9.090 -3.5085 -1.1527 -1.9994
  106OSM   H12G10907   3.899   5.091   9.194  2.1276 -0.2988 -2.3088
  106OSM   C13F10908   3.697   5.000   9.136 -0.8637 -0.2891 -0.3687
  106OSM   H13F10909   3.637   5.050   9.215  0.1810 -0.7764  0.7789
  106OSM   H13G10910   3.647   4.906   9.105 -0.3402 -0.4903 -0.6231
  106OSM   C14F10911   3.690   5.081   8.994  0.5959  0.6676  0.1228
  106OSM   H14F10912   3.776   5.048   8.933 -1.2668 -0.1022 -2.2489
  106OSM   H14G10913   3.693   5.191   9.012 -2.5526  1.4999 -3.1282
  106OSM   C15F10914   3.563   5.051   8.908 -0.8620  0.1562 -1.0561
  106OSM   H15F10915   3.469   5.077   8.961 -0.1553 -0.5041  0.5946
  106OSM   H15G10916   3.569   4.941   8.892  0.5780  0.3312 -1.8818
  106OSM   C16F10917   3.560   5.130   8.778 -0.0137 -0.1631 -0.1801
  106OSM   H16F10918   3.652   5.094   8.727  0.0180  0.5486 -0.6481
  106OSM   H16G10919   3.560   5.237   8.808 -2.7018 -0.2737  0.4573
  106OSM   C17F10920   3.430   5.094   8.698 -0.1040 -0.2494  0.2730
  106OSM   H17F10921   3.347   5.145   8.752 -0.9384  0.2557 -1.4075
  106OSM   H17G10922   3.412   4.988   8.673  0.1222  0.1101 -1.4995
  106OSM   C18F10923   3.432   5.159   8.559  0.0941  0.1712 -0.1164
  106OSM   H18F10924   3.392   5.262   8.555  1.8135  0.8540 -0.4898
  106OSM   H18G10925   3.368   5.094   8.496 -1.5713  0.7944  0.8663
  106OSM   H18H10926   3.539   5.178   8.537  0.4081  1.2433  2.0718
  107OSM      N10927   4.823   1.316  11.125 -0.2746  0.0266  0.4165
  107OSM    C1510928   4.757   1.351  11.259 -0.3724 -0.3730  0.6500
  107OSM   H15A10929   4.804   1.436  11.306  0.8376  0.0363 -1.1859
  107OSM   H15B10930   4.777   1.265  11.322  1.1981  1.6456  3.0794
  107OSM   H15C10931   4.650   1.366  11.258 -0.3675 -0.3635  0.2939
  107OSM    C1410932   4.806   1.430  11.040 -0.6724 -0.0859  0.5649
  107OSM   H14A10933   4.703   1.446  11.013 -0.4950  1.7994  0.8818
  107OSM   H14B10934   4.866   1.412  10.952 -1.6731  0.2587 -0.2048
  107OSM   H14C10935   4.833   1.525  11.083 -0.7442  0.9788 -1.5923
  107OSM    C1310936   4.970   1.286  11.139  0.1897 -0.1310 -0.1736
  107OSM   H13A10937   5.011   1.371  11.193  1.3418 -1.4178  1.0440
  107OSM   H13B10938   5.010   1.276  11.039 -1.5577 -0.2068 -0.8988
  107OSM   H13C10939   4.987   1.197  11.197  0.7370 -0.7616 -1.2678
  107OSM    C1210940   4.756   1.192  11.076  0.1126  0.1415 -0.3230
  107OSM   H12A10941   4.649   1.201  11.078 -0.0839 -1.4998  2.8346
  107OSM   H12B10942   4.781   1.118  11.150  0.6579  0.5452 -0.0902
  107OSM    C1110943   4.793   1.144  10.940  0.5543 -0.1055  0.7097
  107OSM   H11A10944   4.782   1.215  10.856 -0.2228  1.0750  1.7685
  107OSM   H11B10945   4.716   1.069  10.909  0.0265  0.1860  1.2927
  107OSM      P10946   4.946   0.927  10.963 -0.2490  0.2521  0.0062
  107OSM    O1310947   5.088   0.901  10.933  0.1640 -0.0597  0.2301
  107OSM    O1410948   4.895   0.872  11.094 -0.0933 -0.5909  0.0404
  107OSM    O1110949   4.857   0.872  10.847  0.0214  0.7422 -0.5526
  107OSM    O1210950   4.919   1.076  10.945 -0.4914 -0.4105 -1.1465
  107OSM    C1S10951   4.894   0.900  10.709 -0.0322 -0.4735 -0.0521
  107OSM    H1S10952   4.990   0.851  10.685  0.3710 -1.1555  2.6395
  107OSM    H1T10953   4.918   1.006  10.687 -2.3481 -0.0530 -0.7784
  107OSM     NF10954   4.808   0.945  10.482 -0.2713 -0.4253 -0.3151
  107OSM    HNF10955   4.755   1.029  10.475  1.0497  0.5198  0.5896
  107OSM    C2S10956   4.787   0.861  10.597  0.5678 -0.5669  0.6109
  107OSM    H2S10957   4.807   0.757  10.563  0.0795 -0.3002 -0.5467
  107OSM    C3S10958   4.636   0.869  10.653 -0.5348  0.0205 -0.7052
  107OSM    H3S10959   4.619   0.975  10.681  1.6721  0.2344 -0.0275
  107OSM     O310960   4.623   0.790  10.772 -0.2756  0.4513 -0.0230
  107OSM    HO310961   4.711   0.793  10.812 -0.4479  0.9906  0.3284
  107OSM    C4S10962   4.539   0.813  10.559  0.9928 -0.4934 -0.4922
  107OSM    H4S10963   4.557   0.711  10.521 -0.4062 -0.0806 -2.3755
  107OSM    C5S10964   4.443   0.881  10.491 -0.3629 -0.0463 -0.2903
  107OSM    H5S10965   4.416   0.985  10.514 -1.0026 -0.5796  1.5770
  107OSM    C6S10966   4.350   0.812  10.395 -0.6039 -0.3367  0.1772
  107OSM    H6S10967   4.365   0.862  10.297  1.6972  0.9045  1.0778
  107OSM    H6T10968   4.247   0.844  10.422 -0.1792  2.5034 -1.0826
  107OSM    C7S10969   4.347   0.660  10.396  0.9858 -0.1474  0.6567
  107OSM    H7S10970   4.348   0.625  10.501  0.7647  1.3333  1.1772
  107OSM    H7T10971   4.449   0.627  10.366  1.1952 -1.8300  2.9796
  107OSM    C8S10972   4.238   0.584  10.320 -0.3021 -0.3709 -0.1897
  107OSM    H8S10973   4.270   0.478  10.316  0.8421  0.0015 -2.1170
  107OSM    H8T10974   4.235   0.612  10.213  0.9931  1.4481  0.1958
  107OSM    C9S10975   4.091   0.605  10.368 -1.0936  0.5879 -0.2121
  107OSM    H9S10976   4.058   0.711  10.354  0.6708  0.8649 -2.8972
  107OSM    H9T10977   4.091   0.589  10.478 -1.0312  1.0573 -0.1423
  107OSM   C10S10978   4.000   0.499  10.311  0.7920 -0.1789 -0.3260
  107OSM   H10S10979   3.908   0.515  10.371  1.3671 -0.7613  0.7384
  107OSM   H10T10980   4.042   0.398  10.334 -0.4445 -0.9250 -1.1947
  107OSM   C11S10981   3.984   0.499  10.160  0.0838 -0.2761  0.2657
  107OSM   H11S10982   4.080   0.467  10.116  0.5980  0.5168  0.7632
  107OSM   H11T10983   3.969   0.606  10.132  0.3321  0.1213  1.5549
  107OSM   C12S10984   3.867   0.415  10.127  0.5337  0.2497  0.5236
  107OSM   H12S10985   3.771   0.450  10.172 -0.0528 -0.6652  0.0340
  107OSM   H12T10986   3.898   0.316  10.167 -0.1376 -0.0669  0.2907
  107OSM   C13S10987   3.846   0.416   9.976 -0.2632  0.1319  0.2638
  107OSM   H13S10988   3.786   0.326   9.951 -1.0476  0.6361  0.2793
  107OSM   H13T10989   3.943   0.414   9.922  0.0138 -1.2361  0.7890
  107OSM   C14S10990   3.749   0.526   9.920 -0.0268  0.4763 -0.5397
  107OSM   H14S10991   3.780   0.627   9.952  1.3637  0.8609 -2.9007
  107OSM   H14T10992   3.644   0.503   9.949  0.6597 -1.4997  0.6070
  107OSM   C15S10993   3.743   0.526   9.768 -0.6565 -0.1272  0.5599
  107OSM   H15S10994   3.736   0.427   9.718 -0.1951  1.5267 -3.1222
  107OSM   H15T10995   3.844   0.566   9.744 -1.2855  1.3047  0.1569
  107OSM   C16S10996   3.634   0.619   9.704 -1.3901 -0.2564 -0.4581
  107OSM   H16S10997   3.651   0.717   9.754 -3.8261 -0.3938  0.7684
  107OSM   H16T10998   3.536   0.582   9.740 -1.0862 -0.0978  0.5665
  107OSM   C17S10999   3.665   0.608   9.546  0.3346 -0.8561 -0.7816
  107OSM   H17S11000   3.679   0.502   9.514 -1.0136 -0.6490 -2.1342
  107OSM   H17T11001   3.759   0.666   9.537 -0.2861  0.2551 -0.2304
  107OSM   C18S11002   3.559   0.673   9.459  0.4708 -0.2879  0.0935
  107OSM   H18S11003   3.465   0.614   9.459 -0.0026  0.4559  0.8372
  107OSM   H18T11004   3.581   0.685   9.350 -0.2583  1.9894  0.1537
  107OSM   H18U11005   3.538   0.774   9.499  0.5404  0.5061 -1.7788
  107OSM    C1F11006   4.901   0.912  10.392 -0.0549  0.4081  0.5901
  107OSM     OF11007   4.962   0.811  10.409  0.2927  0.3192  0.3610
  107OSM    C2F11008   4.926   0.999  10.269 -0.4587  0.3485  0.5136
  107OSM    H2F11009   4.913   1.106  10.296  0.1284  0.5568  0.0104
  107OSM    H2G11010   4.850   0.975  10.191 -0.2772  0.0047  0.4435
  107OSM    C3F11011   5.073   0.979  10.213 -0.2730 -0.4913 -0.4138
  107OSM    H3F11012   5.102   0.872  10.217 -0.9656 -0.6473  1.4299
  107OSM    H3G11013   5.132   1.028  10.292 -0.9573  2.2173 -1.4635
  107OSM    C4F11014   5.096   1.039  10.077  0.1449 -0.3101  0.7140
  107OSM    H4F11015   5.200   1.036  10.038 -0.9778 -0.7295 -2.5825
  107OSM    H4G11016   5.072   1.147  10.079 -0.9323 -0.5047 -0.3364
  107OSM    C5F11017   5.026   0.959   9.971  0.0341  0.4151  0.7310
  107OSM    H5F11018   4.916   0.973   9.980  0.0050 -0.6885  2.4758
  107OSM    H5G11019   5.045   0.850   9.980 -1.2988  0.0318 -0.5880
  107OSM    C6F11020   5.077   0.992   9.828 -0.2517 -0.8132  0.0514
  107OSM    H6F11021   5.024   0.931   9.752  0.7980 -2.0777  0.2815
  107OSM    H6G11022   5.177   0.943   9.817  0.6985  0.9661  0.4971
  107OSM    C7F11023   5.070   1.145   9.788 -0.0966 -0.2496  0.4233
  107OSM    H7F11024   5.143   1.193   9.857  1.6955 -0.4902 -1.2199
  107OSM    H7G11025   4.973   1.195   9.805  0.2668  0.4851  0.3988
  107OSM    C8F11026   5.112   1.159   9.644 -0.2670 -0.6526  0.0100
  107OSM    H8F11027   5.086   1.263   9.614  1.7684 -0.1165 -0.0276
  107OSM    H8G11028   5.047   1.089   9.586 -0.1287 -0.8159  0.0535
  107OSM    C9F11029   5.258   1.125   9.614  0.3325 -0.6803 -0.0938
  107OSM    H9F11030   5.301   1.032   9.654  1.1289 -1.2806 -2.2187
  107OSM   C10F11031   5.352   1.204   9.554 -0.6255  1.0720  0.0856
  107OSM   H10F11032   5.450   1.160   9.531  0.8853  3.2824  1.7958
  107OSM   C11F11033   5.329   1.345   9.493 -0.7537  0.1701 -0.9649
  107OSM   H11F11034   5.223   1.365   9.466 -1.4163  0.9493  1.9151
  107OSM   H11G11035   5.394   1.355   9.403  0.6139 -0.8949 -0.1253
  107OSM   C12F11036   5.376   1.458   9.594  0.3777 -1.2250 -0.6037
  107OSM   H12F11037   5.353   1.557   9.548 -0.9336 -0.3422  1.7897
  107OSM   H12G11038   5.486   1.456   9.610  0.7392  1.2997 -2.1986
  107OSM   C13F11039   5.298   1.463   9.727 -0.5666 -0.2854 -0.3570
  107OSM   H13F11040   5.341   1.381   9.788  1.7504 -0.0383 -1.5602
  107OSM   H13G11041   5.188   1.447   9.718 -0.5876 -1.2855  1.2535
  107OSM   C14F11042   5.334   1.591   9.806  0.5672  0.1164 -1.0187
  107OSM   H14F11043   5.319   1.685   9.748  0.4322  1.8767  1.6562
  107OSM   H14G11044   5.442   1.595   9.833  1.0571 -1.9990 -2.4763
  107OSM   C15F11045   5.254   1.603   9.938 -0.2434  0.0371 -0.0915
  107OSM   H15F11046   5.148   1.637   9.935 -0.7296 -1.5202 -1.7170
  107OSM   H15G11047   5.305   1.686   9.992 -1.2141  1.3969 -1.1817
  107OSM   C16F11048   5.263   1.479  10.036 -0.1343  0.3802  0.1688
  107OSM   H16F11049   5.363   1.431  10.033 -1.3049 -2.2158 -1.6990
  107OSM   H16G11050   5.200   1.395   9.999 -0.1323 -0.2465  1.5270
  107OSM   C17F11051   5.226   1.521  10.178  0.5480 -0.8662 -0.0279
  107OSM   H17F11052   5.119   1.553  10.172  0.1068 -2.2203  0.1705
  107OSM   H17G11053   5.295   1.602  10.211 -0.0782  0.1662 -1.1649
  107OSM   C18F11054   5.235   1.411  10.284  0.4480  0.2798 -0.1957
  107OSM   H18F11055   5.224   1.444  10.390 -2.8625 -1.5679  0.1869
  107OSM   H18G11056   5.340   1.376  10.279  0.2542 -0.5856  1.2703
  107OSM   H18H11057   5.172   1.322  10.262  2.1168 -1.3965  1.4191
  108OSM      N11058   1.602   5.351  11.367  0.4488 -0.3930 -0.1900
  108OSM    C1511059   1.575   5.459  11.465  0.5069  0.2012 -0.2005
  108OSM   H15A11060   1.474   5.496  11.450 -1.3048 -4.7016 -1.9539
  108OSM   H15B11061   1.643   5.541  11.444 -1.0021  1.9943  1.4687
  108OSM   H15C11062   1.580   5.430  11.569 -0.4744  1.7167  0.3065
  108OSM    C1411063   1.740   5.301  11.401  0.9859  0.3535 -0.0736
  108OSM   H14A11064   1.809   5.384  11.411  0.4160  0.7163  1.0401
  108OSM   H14B11065   1.776   5.228  11.330 -0.7130 -1.9244  1.2809
  108OSM   H14C11066   1.725   5.261  11.500  0.0226 -0.0709 -0.3747
  108OSM    C1311067   1.503   5.241  11.397  0.0921 -0.6690 -0.4480
  108OSM   H13A11068   1.401   5.271  11.381  0.3145 -0.6479 -1.9374
  108OSM   H13B11069   1.508   5.216  11.502 -1.0163  1.4033  0.1608
  108OSM   H13C11070   1.532   5.157  11.336  1.5768 -1.5179  1.3177
  108OSM    C1211071   1.593   5.392  11.230  0.7186  0.4185 -0.2947
  108OSM   H12A11072   1.488   5.406  11.208  0.4729  1.7159  1.4395
  108OSM   H12B11073   1.612   5.312  11.161  0.9526  0.4318 -0.2481
  108OSM    C1111074   1.678   5.505  11.180  0.7882  0.0398 -0.0271
  108OSM   H11A11075   1.772   5.515  11.238  1.3478  0.2351 -0.9473
  108OSM   H11B11076   1.624   5.599  11.205  0.0077 -0.3348 -0.2676
  108OSM      P11077   1.823   5.424  10.982 -0.5284  0.4689  0.2630
  108OSM    O1311078   1.940   5.510  11.023 -0.4944 -0.1486  0.0417
  108OSM    O1411079   1.830   5.284  11.032  0.0996 -0.1382  0.0492
  108OSM    O1111080   1.807   5.419  10.825 -0.0200  0.3138  0.1689
  108OSM    O1211081   1.695   5.497  11.038  0.2374  0.1367 -0.2881
  108OSM    C1S11082   1.735   5.532  10.769  0.0686  0.6585 -0.6145
  108OSM    H1S11083   1.794   5.626  10.775 -0.1759  0.8320 -0.9322
  108OSM    H1T11084   1.634   5.541  10.815  0.5667 -1.7759  1.1891
  108OSM     NF11085   1.646   5.638  10.563 -1.4573  0.9340  0.5601
  108OSM    HNF11086   1.547   5.646  10.554 -1.3000  1.9158 -0.6119
  108OSM    C2S11087   1.696   5.505  10.614 -0.0519  0.2722  0.0139
  108OSM    H2S11088   1.791   5.472  10.566 -1.3261 -0.4847 -2.0881
  108OSM    C3S11089   1.601   5.390  10.592  0.2661  0.3791  0.3324
  108OSM    H3S11090   1.507   5.404  10.648 -0.4788  0.0774 -0.7968
  108OSM     O311091   1.652   5.262  10.613  0.1308  0.0810  0.1962
  108OSM    HO311092   1.728   5.286  10.666 -2.0716  1.9009  2.7969
  108OSM    C4S11093   1.566   5.384  10.445 -0.4895  0.3385 -0.1743
  108OSM    H4S11094   1.653   5.387  10.378 -0.7345 -0.8221 -0.5651
  108OSM    C5S11095   1.451   5.378  10.389  0.3120  0.7491  0.6495
  108OSM    H5S11096   1.361   5.374  10.452 -0.3223 -0.7860 -0.2885
  108OSM    C6S11097   1.434   5.384  10.239  0.3220 -0.4070 -0.1496
  108OSM    H6S11098   1.343   5.447  10.228  0.8384  0.9794  2.6808
  108OSM    H6T11099   1.411   5.284  10.195  0.5466  0.9497 -3.7255
  108OSM    C7S11100   1.549   5.438  10.146 -0.3164 -0.1337  0.7184
  108OSM    H7S11101   1.634   5.367  10.148  1.4999  1.8553 -0.9486
  108OSM    H7T11102   1.577   5.537  10.187  0.5787 -0.6289  1.3320
  108OSM    C8S11103   1.499   5.468  10.000 -0.3012  0.1586 -0.3390
  108OSM    H8S11104   1.488   5.578   9.996  0.3309  0.3984  2.4793
  108OSM    H8T11105   1.398   5.422   9.990  0.4445 -1.6954  0.2862
  108OSM    C9S11106   1.589   5.424   9.888  0.3309  0.1915  0.3003
  108OSM    H9S11107   1.648   5.331   9.902  1.0658 -0.1848 -3.9533
  108OSM    H9T11108   1.663   5.506   9.881  1.5865 -0.8303  1.2193
  108OSM   C10S11109   1.509   5.415   9.751  0.0121 -0.0352  0.1170
  108OSM   H10S11110   1.464   5.517   9.756  1.0214  0.3911  1.0803
  108OSM   H10T11111   1.438   5.331   9.752 -0.7066  0.4697 -2.2757
  108OSM   C11S11112   1.596   5.412   9.624 -0.2544 -0.2261 -0.2539
  108OSM   H11S11113   1.675   5.333   9.627  2.3049  2.0383 -2.2787
  108OSM   H11T11114   1.655   5.506   9.628  2.7595 -1.9660 -0.2045
  108OSM   C12S11115   1.516   5.397   9.494  0.3931  0.1741 -0.0063
  108OSM   H12S11116   1.433   5.471   9.483 -1.7590 -2.1967 -0.6379
  108OSM   H12T11117   1.466   5.298   9.490 -2.3081  1.3742  1.1239
  108OSM   C13S11118   1.595   5.397   9.357 -0.2754  0.0808 -0.5188
  108OSM   H13S11119   1.685   5.332   9.369  0.3758  0.9094 -0.8302
  108OSM   H13T11120   1.628   5.503   9.348 -1.5380  0.7380  1.8185
  108OSM   C14S11121   1.524   5.348   9.241 -0.0922 -0.1788  0.4742
  108OSM   H14S11122   1.433   5.411   9.225 -0.2481 -0.2955  0.8958
  108OSM   H14T11123   1.491   5.242   9.248 -0.7563  0.1236  2.8881
  108OSM   C15S11124   1.613   5.362   9.111 -0.2506  0.5413  0.1867
  108OSM   H15S11125   1.700   5.294   9.123 -2.8402 -2.8858  0.9093
  108OSM   H15T11126   1.651   5.467   9.109  1.6554 -0.1077 -1.2875
  108OSM   C16S11127   1.536   5.321   8.980  0.5511 -0.1026  0.5170
  108OSM   H16S11128   1.454   5.391   8.956 -0.8628 -1.0520  2.3508
  108OSM   H16T11129   1.491   5.224   9.011 -0.8754  0.8971  1.6838
  108OSM   C17S11130   1.627   5.313   8.857  0.8104 -0.4474 -0.9093
  108OSM   H17S11131   1.732   5.297   8.889  0.3638  0.7650  1.3320
  108OSM   H17T11132   1.619   5.408   8.800 -1.5317  0.3376  0.5558
  108OSM   C18S11133   1.591   5.198   8.763  0.4037  0.3026 -0.8624
  108OSM   H18S11134   1.661   5.185   8.679 -0.7239 -0.1808 -1.7477
  108OSM   H18T11135   1.491   5.212   8.718 -1.2429 -2.8485  1.4195
  108OSM   H18U11136   1.593   5.098   8.811  1.3441  0.4019 -0.6774
  108OSM    C1F11137   1.730   5.750  10.562 -0.0093  0.1664  0.7030
  108OSM     OF11138   1.848   5.734  10.560 -0.3478 -0.0098 -0.0654
  108OSM    C2F11139   1.662   5.887  10.554  0.6263 -0.4566  0.4582
  108OSM    H2F11140   1.701   5.925  10.650  0.2605  0.5841  0.2035
  108OSM    H2G11141   1.553   5.869  10.554  0.7341 -1.1347  0.4169
  108OSM    C3F11142   1.712   5.985  10.443  0.1634 -0.7796  0.4589
  108OSM    H3F11143   1.819   5.991  10.473 -0.5388 -0.7467  3.3090
  108OSM    H3G11144   1.664   6.081  10.470 -2.5797 -2.0530  0.5089
  108OSM    C4F11145   1.690   5.940  10.299  0.4258 -0.7496 -0.8712
  108OSM    H4F11146   1.743   5.842  10.294  1.8855 -0.2525  2.3463
  108OSM    H4G11147   1.738   6.011  10.229  3.6926 -0.3242  1.5272
  108OSM    C5F11148   1.544   5.929  10.258  0.0339 -0.6407 -0.3653
  108OSM    H5F11149   1.492   6.023  10.285 -0.1144 -1.2565  1.6774
  108OSM    H5G11150   1.493   5.859  10.328 -1.3196  2.3501  1.8350
  108OSM    C6F11151   1.520   5.905  10.105  0.1990  0.2856  0.3134
  108OSM    H6F11152   1.566   5.808  10.077  2.1569  1.2923 -0.0927
  108OSM    H6G11153   1.565   5.987  10.046  0.4881 -0.3325 -0.3364
  108OSM    C7F11154   1.366   5.898  10.093 -0.2482  0.0888  0.2418
  108OSM    H7F11155   1.314   5.995  10.109  0.6501  0.5511  0.4901
  108OSM    H7G11156   1.320   5.824  10.162 -3.3116  2.1326  0.5663
  108OSM    C8F11157   1.319   5.837   9.957  0.0247  0.1102 -0.0283
  108OSM    H8F11158   1.210   5.817   9.967 -0.1481 -1.0268 -2.9515
  108OSM    H8G11159   1.369   5.739   9.943  0.0812  0.0404  0.6710
  108OSM    C9F11160   1.344   5.935   9.846  0.5862  0.2719 -0.1527
  108OSM    H9F11161   1.275   6.020   9.855  0.1197  0.1803 -2.3185
  108OSM   C10F11162   1.446   5.933   9.755 -0.7972  0.7243  0.5567
  108OSM   H10F11163   1.456   6.013   9.680  0.5690  0.3037  0.2708
  108OSM   C11F11164   1.543   5.817   9.740  0.1445  0.5569 -0.1641
  108OSM   H11F11165   1.490   5.729   9.696 -1.1741  0.3102  1.7822
  108OSM   H11G11166   1.561   5.776   9.841 -1.9162 -0.8303 -0.2773
  108OSM   C12F11167   1.678   5.843   9.679 -0.2050  0.3734  0.0247
  108OSM   H12F11168   1.744   5.754   9.684  1.1639  1.3846  0.9306
  108OSM   H12G11169   1.728   5.925   9.735  2.9898 -0.3217 -1.5503
  108OSM   C13F11170   1.683   5.899   9.534  0.6799  0.1878 -0.4301
  108OSM   H13F11171   1.792   5.917   9.519  0.1640  3.3257 -0.9508
  108OSM   H13G11172   1.634   5.998   9.532  0.0033 -0.1087  0.6533
  108OSM   C14F11173   1.626   5.802   9.436 -0.0150 -0.1991 -0.3130
  108OSM   H14F11174   1.519   5.786   9.460 -0.5110  0.9116 -1.6231
  108OSM   H14G11175   1.681   5.706   9.443  2.0364  0.9813  0.5033
  108OSM   C15F11176   1.644   5.848   9.291 -0.4618 -0.6092 -1.1628
  108OSM   H15F11177   1.742   5.900   9.290 -2.1042  2.8736  0.8593
  108OSM   H15G11178   1.564   5.923   9.271  0.1425  1.1898  2.4547
  108OSM   C16F11179   1.628   5.747   9.175 -0.2449 -0.1926 -0.1020
  108OSM   H16F11180   1.522   5.717   9.165  0.4100 -1.9959 -2.5556
  108OSM   H16G11181   1.690   5.659   9.203 -1.0288 -0.8498 -0.4155
  108OSM   C17F11182   1.646   5.807   9.043  0.8755 -0.5225  0.5708
  108OSM   H17F11183   1.754   5.833   9.037  0.4461  1.0873 -1.7802
  108OSM   H17G11184   1.597   5.907   9.052  1.3806 -0.3342  1.3409
  108OSM   C18F11185   1.598   5.722   8.925 -0.0534  0.3054  0.7052
  108OSM   H18F11186   1.489   5.700   8.924 -0.0577  0.3432  0.0238
  108OSM   H18G11187   1.646   5.622   8.922 -3.7727 -1.6503  0.1569
  108OSM   H18H11188   1.622   5.772   8.829  1.2970 -0.7957  0.4317
  109OSM      N11189   2.567   6.469  10.732  1.0207  0.3037 -1.0063
  109OSM    C1511190   2.685   6.382  10.689  1.0198  0.1296 -0.1764
  109OSM   H15A11191   2.756   6.382  10.771  1.4913  2.2144 -0.5217
  109OSM   H15B11192   2.730   6.418  10.597  2.4188  0.9987  0.8019
  109OSM   H15C11193   2.654   6.282  10.663 -1.0742  1.2474 -2.4090
  109OSM    C1411194   2.468   6.473  10.623  0.2962  0.0820  0.5426
  109OSM   H14A11195   2.505   6.534  10.541  0.9445  1.3920  1.7707
  109OSM   H14B11196   2.375   6.520  10.651 -0.6025 -0.8914 -0.6492
  109OSM   H14C11197   2.455   6.373  10.583  2.4452  0.0610 -0.2021
  109OSM    C1311198   2.503   6.396  10.844 -0.0831 -0.2138 -0.2910
  109OSM   H13A11199   2.521   6.292  10.821  1.9443  0.5606 -2.5642
  109OSM   H13B11200   2.395   6.394  10.847 -0.1170  0.9586 -0.1838
  109OSM   H13C11201   2.543   6.409  10.944  1.1780 -1.6954 -0.5675
  109OSM    C1211202   2.613   6.599  10.777  0.0162 -0.5382  0.2690
  109OSM   H12A11203   2.691   6.584  10.850  0.0431  0.5044  0.4655
  109OSM   H12B11204   2.534   6.639  10.838  0.3876 -1.5650  1.4560
  109OSM    C1111205   2.651   6.701  10.670  0.0766 -0.9453  0.4180
  109OSM   H11A11206   2.698   6.638  10.591 -0.7083 -2.2814  0.9813
  109OSM   H11B11207   2.734   6.765  10.709 -0.3443  0.9606 -1.5898
  109OSM      P11208   2.489   6.897  10.707 -0.1846 -0.2453  0.4198
  109OSM    O1311209   2.343   6.872  10.719 -0.0743  0.0964  0.2185
  109OSM    O1411210   2.565   6.903  10.838 -0.1586 -0.1122  0.5083
  109OSM    O1111211   2.501   7.035  10.635 -0.3922 -0.4183 -0.2125
  109OSM    O1211212   2.546   6.783  10.616  0.3696 -0.3042  0.0570
  109OSM    C1S11213   2.605   7.094  10.552 -0.0234  0.6431  0.0069
  109OSM    H1S11214   2.704   7.044  10.549 -0.4564 -0.2320 -0.2371
  109OSM    H1T11215   2.615   7.199  10.587 -1.2020  0.9714 -0.5961
  109OSM     NF11216   2.668   7.111  10.314  0.6786 -0.5749  0.5246
  109OSM    HNF11217   2.714   7.200  10.313 -0.1524 -0.1429  0.1012
  109OSM    C2S11218   2.553   7.097  10.406 -0.3845  0.3900  0.5470
  109OSM    H2S11219   2.499   7.005  10.373 -0.0403  0.1389  0.6759
  109OSM    C3S11220   2.453   7.222  10.389  0.0267 -0.6836  0.8993
  109OSM    H3S11221   2.501   7.311  10.435  1.0703 -1.6242  1.6893
  109OSM     O311222   2.336   7.212  10.459 -0.3098 -0.2640  0.6051
  109OSM    HO311223   2.348   7.140  10.522  1.5752  0.7781  1.5270
  109OSM    C4S11224   2.418   7.250  10.245  0.3033 -0.4599  0.2889
  109OSM    H4S11225   2.459   7.173  10.178 -1.2665 -0.5771 -0.5918
  109OSM    C5S11226   2.367   7.365  10.204 -0.0224 -0.8557  0.1250
  109OSM    H5S11227   2.347   7.444  10.277 -1.9042 -1.1057 -0.0738
  109OSM    C6S11228   2.343   7.394  10.060 -0.0225 -0.5626  0.0249
  109OSM    H6S11229   2.239   7.432  10.055 -0.1564 -0.9111  0.1580
  109OSM    H6T11230   2.363   7.308   9.992 -2.1248 -1.3173  0.3032
  109OSM    C7S11231   2.450   7.496  10.019 -0.3250 -0.9871  0.0369
  109OSM    H7S11232   2.555   7.461  10.014  0.4367  1.2570 -0.8043
  109OSM    H7T11233   2.459   7.579  10.092 -2.8646 -0.6576  0.0716
  109OSM    C8S11234   2.416   7.558   9.884  0.4576 -0.1641  0.6480
  109OSM    H8S11235   2.475   7.652   9.879 -0.3587  0.3191 -0.4860
  109OSM    H8T11236   2.309   7.589   9.875  0.8097  0.6352 -1.4363
  109OSM    C9S11237   2.460   7.483   9.759 -0.6877 -0.3185  0.6158
  109OSM    H9S11238   2.395   7.392   9.760  0.9430 -1.5321  0.5276
  109OSM    H9T11239   2.570   7.464   9.755 -0.7717 -0.8059 -3.4974
  109OSM   C10S11240   2.446   7.566   9.633  0.0356 -0.3603  0.0457
  109OSM   H10S11241   2.508   7.658   9.639 -1.3081  0.5884 -0.1837
  109OSM   H10T11242   2.340   7.596   9.622  0.7224  1.6318 -1.8196
  109OSM   C11S11243   2.489   7.475   9.514 -0.0737  0.2456 -0.1791
  109OSM   H11S11244   2.463   7.369   9.533  0.5607  0.5856  3.4324
  109OSM   H11T11245   2.598   7.486   9.496  0.0577 -2.1497 -1.0802
  109OSM   C12S11246   2.427   7.518   9.374  0.2039  0.0146  0.6531
  109OSM   H12S11247   2.459   7.622   9.349 -0.3703 -0.0174 -0.2450
  109OSM   H12T11248   2.316   7.523   9.368  0.2306 -0.3022 -0.1375
  109OSM   C13S11249   2.499   7.432   9.261 -0.1146  0.0557  0.2596
  109OSM   H13S11250   2.485   7.329   9.300  2.7797  0.0440  1.5385
  109OSM   H13T11251   2.603   7.469   9.261 -0.6742  1.7039 -0.5258
  109OSM   C14S11252   2.441   7.440   9.125 -0.0218 -0.0634  0.0495
  109OSM   H14S11253   2.435   7.546   9.093  1.8948 -0.6154 -2.3762
  109OSM   H14T11254   2.337   7.402   9.138 -1.1879  3.1809  1.0983
  109OSM   C15S11255   2.503   7.358   9.013  0.3794 -0.8040 -0.0152
  109OSM   H15S11256   2.514   7.251   9.040 -0.1779 -0.7210  0.5511
  109OSM   H15T11257   2.605   7.402   9.002 -0.6126  1.7400  0.2373
  109OSM   C16S11258   2.446   7.367   8.876  0.1021 -0.2305 -0.1721
  109OSM   H16S11259   2.447   7.471   8.838 -0.7178 -1.1523 -2.9146
  109OSM   H16T11260   2.337   7.346   8.875 -0.4170  2.2185 -1.0744
  109OSM   C17S11261   2.520   7.271   8.773  0.3613  0.0107  1.5221
  109OSM   H17S11262   2.516   7.168   8.814 -3.2901 -0.7367 -0.2939
  109OSM   H17T11263   2.627   7.296   8.761  0.0236  1.5503  1.4876
  109OSM   C18S11264   2.466   7.271   8.627  0.2166  0.3806  0.3576
  109OSM   H18S11265   2.540   7.219   8.563  0.4496 -1.6937  2.2117
  109OSM   H18T11266   2.456   7.372   8.581  1.1277  0.9470  1.3586
  109OSM   H18U11267   2.368   7.220   8.621 -0.2779  1.4100 -0.9249
  109OSM    C1F11268   2.743   7.015  10.273 -0.6418  0.9905 -0.3019
  109OSM     OF11269   2.735   6.895  10.308  0.7136  0.0206 -0.0986
  109OSM    C2F11270   2.851   7.056  10.177 -0.7537  0.1568 -0.4318
  109OSM    H2F11271   2.936   6.988  10.195 -0.0347  1.4993  1.6120
  109OSM    H2G11272   2.902   7.145  10.220  0.0801 -0.1700 -0.7151
  109OSM    C3F11273   2.810   7.048  10.029 -0.3433 -0.0082 -0.8116
  109OSM    H3F11274   2.760   6.952  10.004  1.0426 -0.7399 -0.9144
  109OSM    H3G11275   2.900   7.046   9.964  0.1017  0.7069 -0.2258
  109OSM    C4F11276   2.720   7.165   9.982 -0.1458  0.2010  0.3698
  109OSM    H4F11277   2.777   7.260   9.991  0.4992 -0.1394 -0.0082
  109OSM    H4G11278   2.626   7.188  10.036 -0.5244  1.3422 -0.7326
  109OSM    C5F11279   2.676   7.137   9.833  0.0614 -0.0203  0.1490
  109OSM    H5F11280   2.592   7.205   9.805  0.3710  0.6869  0.8828
  109OSM    H5G11281   2.646   7.031   9.823  3.6340 -1.0585 -0.7275
  109OSM    C6F11282   2.785   7.167   9.724  0.0549  0.2929 -0.4631
  109OSM    H6F11283   2.839   7.071   9.712  0.9355  0.7276 -0.0699
  109OSM    H6G11284   2.855   7.236   9.775 -0.8566  0.6266  0.3608
  109OSM    C7F11285   2.756   7.234   9.594 -0.5230 -0.1095  0.0206
  109OSM    H7F11286   2.749   7.341   9.620 -0.9850  0.1785 -1.1960
  109OSM    H7G11287   2.660   7.204   9.546  0.3554  0.0189 -1.9497
  109OSM    C8F11288   2.856   7.190   9.477 -0.4369 -0.8760 -0.2023
  109OSM    H8F11289   2.842   7.080   9.462 -3.7318 -0.5436 -0.3301
  109OSM    H8G11290   2.960   7.210   9.511 -0.3445 -2.7209  0.7434
  109OSM    C9F11291   2.831   7.270   9.356 -0.4340  0.1849 -1.0306
  109OSM    H9F11292   2.789   7.369   9.382 -1.5864 -0.7971  1.1669
  109OSM   C10F11293   2.842   7.229   9.232 -0.3304  0.4683 -0.0806
  109OSM   H10F11294   2.821   7.306   9.157  0.7445 -0.8728 -1.8244
  109OSM   C11F11295   2.882   7.094   9.173 -0.1648  0.5947 -0.1366
  109OSM   H11F11296   2.901   7.031   9.262 -0.1439  0.1083 -0.4812
  109OSM   H11G11297   2.976   7.102   9.116  0.1655 -1.7843 -0.0284
  109OSM   C12F11298   2.785   7.028   9.071  0.4371  0.3504 -0.4555
  109OSM   H12F11299   2.829   6.936   9.025  1.0565  0.8680 -0.9061
  109OSM   H12G11300   2.768   7.098   8.987  0.5614 -0.2500 -0.9924
  109OSM   C13F11301   2.646   6.982   9.132 -0.3480 -0.3784  0.0305
  109OSM   H13F11302   2.592   7.060   9.189 -1.0890 -1.1528  0.4102
  109OSM   H13G11303   2.652   6.899   9.206 -2.0186  1.0005  1.8124
  109OSM   C14F11304   2.551   6.940   9.013 -1.0908  0.0237 -0.4253
  109OSM   H14F11305   2.563   7.014   8.931  0.9103  2.3857  1.8024
  109OSM   H14G11306   2.444   6.949   9.040 -1.3259  1.3268 -1.6921
  109OSM   C15F11307   2.571   6.791   8.980  1.1542  0.2313  0.2180
  109OSM   H15F11308   2.534   6.743   9.073 -1.1191 -2.7177 -1.9962
  109OSM   H15G11309   2.675   6.770   8.947  0.1247 -0.6436 -2.7806
  109OSM   C16F11310   2.466   6.747   8.873  1.1469 -0.6345  0.0419
  109OSM   H16F11311   2.397   6.834   8.870  0.2897 -1.2868  0.5379
  109OSM   H16G11312   2.417   6.651   8.897 -0.8946 -0.5306 -3.1376
  109OSM   C17F11313   2.511   6.744   8.723 -0.3359 -0.8155  0.3498
  109OSM   H17F11314   2.436   6.723   8.644 -0.7205  0.1708  0.4320
  109OSM   H17G11315   2.578   6.656   8.717 -1.3926 -1.7354  1.4981
  109OSM   C18F11316   2.589   6.869   8.684 -0.0783  0.1742 -0.4321
  109OSM   H18F11317   2.680   6.878   8.748  0.5656 -1.1779 -1.1162
  109OSM   H18G11318   2.534   6.962   8.710  0.8520  0.6389 -0.0699
  109OSM   H18H11319   2.614   6.874   8.576 -0.0161  1.7069 -0.3646
  110OSM      N11320   4.864   5.735  11.038 -0.2918  0.4576 -0.4508
  110OSM    C1511321   4.732   5.721  11.090  0.0358 -0.1356  0.4357
  110OSM   H15A11322   4.697   5.619  11.083 -0.9625  0.1838  0.7334
  110OSM   H15B11323   4.664   5.786  11.038  0.6785  0.1747 -0.0387
  110OSM   H15C11324   4.733   5.742  11.196  0.7257  3.7636 -0.1737
  110OSM    C1411325   4.913   5.870  11.062  0.5212  0.0607  0.1594
  110OSM   H14A11326   5.015   5.883  11.027 -0.1193  1.1641 -1.3834
  110OSM   H14B11327   4.901   5.901  11.165 -1.7769 -0.7146  0.1734
  110OSM   H14C11328   4.866   5.938  10.993  0.2613 -0.9931 -0.7286
  110OSM    C1311329   4.962   5.639  11.114  0.0739 -0.0711 -0.1978
  110OSM   H13A11330   5.064   5.647  11.080  0.4926 -2.9555  0.1398
  110OSM   H13B11331   4.923   5.538  11.114 -1.0099  0.3209  1.0524
  110OSM   H13C11332   4.954   5.673  11.217 -3.2647 -0.0140 -0.3507
  110OSM    C1211333   4.871   5.707  10.887 -0.1909  0.0618  0.0418
  110OSM   H12A11334   4.967   5.740  10.852  0.4369 -0.9763  0.7539
  110OSM   H12B11335   4.791   5.759  10.836 -0.2229 -0.9135 -0.9180
  110OSM    C1111336   4.849   5.559  10.844  0.1336 -0.4482  0.4997
  110OSM   H11A11337   4.936   5.500  10.878 -0.1381  0.0661  2.1706
  110OSM   H11B11338   4.857   5.556  10.733 -0.3681  0.4807  0.4249
  110OSM      P11339   4.669   5.377  10.878  0.4008  0.2534  0.0225
  110OSM    O1311340   4.755   5.289  10.956 -0.1192  0.5968 -0.0069
  110OSM    O1411341   4.523   5.369  10.905 -0.2686 -0.4814 -0.5524
  110OSM    O1111342   4.692   5.348  10.721 -0.0191  0.4068 -0.0040
  110OSM    O1211343   4.717   5.522  10.884 -0.1657 -1.0027 -0.3208
  110OSM    C1S11344   4.640   5.433  10.613 -0.4231 -0.8254  0.4754
  110OSM    H1S11345   4.672   5.539  10.625  0.7751 -1.0584 -0.4962
  110OSM    H1T11346   4.529   5.429  10.617 -0.3908 -2.0327  4.5751
  110OSM     NF11347   4.638   5.482  10.370 -0.4085 -0.0262  0.5445
  110OSM    HNF11348   4.553   5.469  10.320  0.7133  0.8641 -1.7504
  110OSM    C2S11349   4.688   5.386  10.474  0.3656  0.5145  0.3812
  110OSM    H2S11350   4.799   5.393  10.469  0.2327  1.8377 -1.6377
  110OSM    C3S11351   4.638   5.239  10.456 -0.6953  0.1294 -0.2354
  110OSM    H3S11352   4.528   5.232  10.468 -0.5119 -1.3385  0.8260
  110OSM     O311353   4.686   5.152  10.561 -0.3741 -0.1200 -0.4050
  110OSM    HO311354   4.715   5.200  10.640  2.7183 -0.8615 -0.9599
  110OSM    C4S11355   4.677   5.188  10.328 -0.2162  0.3929  0.7791
  110OSM    H4S11356   4.583   5.166  10.275  1.0874  0.2812 -1.6512
  110OSM    C5S11357   4.795   5.149  10.277 -0.3355 -0.0409 -0.7161
  110OSM    H5S11358   4.885   5.155  10.339  0.4963 -1.7321 -1.6914
  110OSM    C6S11359   4.824   5.092  10.137 -0.1120 -0.1803 -0.2299
  110OSM    H6S11360   4.881   4.996  10.137 -2.2856 -1.5259  0.8162
  110OSM    H6T11361   4.894   5.162  10.085  0.7307 -0.7836  0.0566
  110OSM    C7S11362   4.710   5.063  10.042 -0.4082 -0.2834 -0.6019
  110OSM    H7S11363   4.639   5.149  10.047  2.4182  2.1904  0.1852
  110OSM    H7T11364   4.660   4.966  10.063  2.1454 -1.3501  1.0044
  110OSM    C8S11365   4.759   5.069   9.897 -0.0780 -0.1276 -0.2700
  110OSM    H8S11366   4.824   4.981   9.877 -0.6507 -0.6667  0.2265
  110OSM    H8T11367   4.815   5.164   9.891 -0.7646  0.3766  0.9872
  110OSM    C9S11368   4.641   5.089   9.804 -0.2224 -0.3126  0.6869
  110OSM    H9S11369   4.573   5.169   9.840 -1.9852 -1.9214  1.1081
  110OSM    H9T11370   4.577   4.998   9.802 -1.8703  0.8176  0.1633
  110OSM   C10S11371   4.681   5.120   9.660  0.0444 -0.4915  0.1921
  110OSM   H10S11372   4.771   5.185   9.654  0.5149 -1.0731  0.8035
  110OSM   H10T11373   4.600   5.183   9.618  0.7052  2.4568  2.9978
  110OSM   C11S11374   4.708   4.995   9.572  0.6013 -0.2230  0.5127
  110OSM   H11S11375   4.615   4.935   9.558 -0.0121  0.6714  0.6495
  110OSM   H11T11376   4.795   4.943   9.616  1.0797  1.5529  1.8115
  110OSM   C12S11377   4.757   5.044   9.433  0.1376 -0.3485  0.0236
  110OSM   H12S11378   4.831   5.125   9.447 -0.5611 -0.0879  2.8574
  110OSM   H12T11379   4.677   5.084   9.367 -0.0014 -1.8652 -0.7689
  110OSM   C13S11380   4.823   4.941   9.351 -0.3856 -0.0505  0.1714
  110OSM   H13S11381   4.757   4.853   9.335 -1.8341  1.0302  0.0071
  110OSM   H13T11382   4.917   4.909   9.400  0.1362  0.3146 -0.5819
  110OSM   C14S11383   4.861   4.986   9.205  0.4790 -0.6392 -0.3443
  110OSM   H14S11384   4.895   4.892   9.154 -0.5252  0.6647 -3.6591
  110OSM   H14T11385   4.940   5.064   9.200  1.7448 -1.9186 -1.4544
  110OSM   C15S11386   4.737   5.034   9.119 -0.0465 -0.2639  0.1166
  110OSM   H15S11387   4.701   5.131   9.159 -0.2371 -0.1862 -0.2427
  110OSM   H15T11388   4.653   4.963   9.134 -0.6584  0.3059 -0.5525
  110OSM   C16S11389   4.760   5.030   8.966  0.8003  0.2303 -0.2339
  110OSM   H16S11390   4.660   5.045   8.919 -0.3133 -0.8288  1.6538
  110OSM   H16T11391   4.806   4.934   8.932  0.1047 -0.3962  0.5643
  110OSM   C17S11392   4.851   5.140   8.902 -0.4819 -0.2578  1.0392
  110OSM   H17S11393   4.954   5.125   8.940 -0.0613  0.3303  0.1543
  110OSM   H17T11394   4.811   5.240   8.930  3.7579  1.6957  0.8528
  110OSM   C18S11395   4.873   5.145   8.743  0.5793 -0.2494 -0.2120
  110OSM   H18S11396   4.970   5.192   8.719  0.8864  0.2953  1.9141
  110OSM   H18T11397   4.787   5.195   8.695  1.1217 -1.0145 -2.0518
  110OSM   H18U11398   4.884   5.045   8.696 -0.8744 -0.1281 -0.8676
  110OSM    C1F11399   4.700   5.597  10.349  0.1554 -0.5743  0.7470
  110OSM     OF11400   4.816   5.607  10.385  0.1152  1.1747  0.5481
  110OSM    C2F11401   4.620   5.711  10.280  0.4961 -0.5140  0.3162
  110OSM    H2F11402   4.620   5.799  10.348  1.3442 -0.1489 -0.1315
  110OSM    H2G11403   4.514   5.679  10.271 -0.0079 -0.0983  3.3776
  110OSM    C3F11404   4.679   5.748  10.143  0.4919 -0.9725 -0.8340
  110OSM    H3F11405   4.787   5.771  10.156 -0.1173  1.2494  1.0304
  110OSM    H3G11406   4.624   5.840  10.114  0.9161 -0.7688 -0.9943
  110OSM    C4F11407   4.675   5.650  10.030  0.4725 -0.0947 -0.6170
  110OSM    H4F11408   4.708   5.550  10.064 -2.0539 -1.8101 -2.8427
  110OSM    H4G11409   4.740   5.684   9.946 -0.7459  1.1009 -1.1168
  110OSM    C5F11410   4.541   5.634   9.961 -0.3153  0.4957  0.1048
  110OSM    H5F11411   4.497   5.732   9.931  0.4858  0.9096  0.2583
  110OSM    H5G11412   4.476   5.585  10.035 -0.5966  0.1010 -0.3978
  110OSM    C6F11413   4.554   5.541   9.838 -0.1194  0.4388  0.4707
  110OSM    H6F11414   4.453   5.504   9.808  0.6830  0.4852 -2.6288
  110OSM    H6G11415   4.618   5.451   9.840 -0.9011 -0.2344 -1.5553
  110OSM    C7F11416   4.607   5.609   9.710  0.0511 -0.1567 -0.0684
  110OSM    H7F11417   4.690   5.671   9.748 -1.3154  1.9276 -0.3266
  110OSM    H7G11418   4.530   5.683   9.680  0.4692 -0.4553 -2.0194
  110OSM    C8F11419   4.625   5.520   9.590 -0.7144 -0.3838  0.5533
  110OSM    H8F11420   4.525   5.512   9.541 -0.7564  1.0905  0.3608
  110OSM    H8G11421   4.650   5.421   9.636  1.6350  0.2306  0.6990
  110OSM    C9F11422   4.738   5.557   9.495 -0.1045 -0.0347 -0.0751
  110OSM    H9F11423   4.840   5.529   9.525 -0.3321 -0.7098  0.0845
  110OSM   C10F11424   4.726   5.621   9.379  0.4425 -0.1379  0.2288
  110OSM   H10F11425   4.822   5.647   9.332  2.1328 -2.3018  2.2237
  110OSM   C11F11426   4.598   5.668   9.312  0.0576  0.4802 -0.1017
  110OSM   H11F11427   4.516   5.690   9.384 -0.5579  1.2803 -1.0123
  110OSM   H11G11428   4.556   5.594   9.240 -0.8253  0.8437  0.0228
  110OSM   C12F11429   4.621   5.809   9.244  0.5449  0.2546 -0.7577
  110OSM   H12F11430   4.710   5.805   9.178  0.1601  0.8769 -1.3254
  110OSM   H12G11431   4.644   5.879   9.328  0.1067  0.4099 -0.7647
  110OSM   C13F11432   4.502   5.861   9.159  0.4464 -0.1292 -0.1090
  110OSM   H13F11433   4.417   5.881   9.228  0.6030  0.5975 -0.1230
  110OSM   H13G11434   4.455   5.786   9.092  0.7818  0.3377 -0.8813
  110OSM   C14F11435   4.534   5.976   9.075 -0.9110 -0.2977 -0.1792
  110OSM   H14F11436   4.635   5.957   9.035 -0.6262 -1.8459  1.1448
  110OSM   H14G11437   4.523   6.069   9.135  1.8603 -1.1795  1.8778
  110OSM   C15F11438   4.456   5.991   8.944  0.0794  0.5709  0.1115
  110OSM   H15F11439   4.350   6.016   8.970 -0.8743 -1.0721 -1.8605
  110OSM   H15G11440   4.454   5.896   8.886 -0.3844  0.5264  0.1928
  110OSM   C16F11441   4.484   6.115   8.863  0.8468  0.7286  0.1068
  110OSM   H16F11442   4.458   6.197   8.934 -1.2732  0.7264 -0.5995
  110OSM   H16G11443   4.410   6.112   8.780 -0.2065  2.4973  0.9203
  110OSM   C17F11444   4.621   6.131   8.794  0.0192  0.3953 -0.2015
  110OSM   H17F11445   4.701   6.135   8.871  0.8581  0.3313 -1.0461
  110OSM   H17G11446   4.620   6.227   8.739 -2.2210 -0.7236 -2.2812
  110OSM   C18F11447   4.658   6.011   8.709 -0.3294  0.1270 -0.2414
  110OSM   H18F11448   4.595   6.002   8.618  0.6923 -0.6450 -0.8961
  110OSM   H18G11449   4.650   5.917   8.769  0.3653 -1.4458 -2.4929
  110OSM   H18H11450   4.760   6.027   8.668 -0.2289  0.6673  0.2094
  111OSM      N11451   3.571   3.580  10.855 -0.0304  0.2244  0.7100
  111OSM    C1511452   3.550   3.490  10.972 -0.2475  0.8694  0.1914
  111OSM   H15A11453   3.636   3.485  11.037  0.5447  2.2698 -0.7147
  111OSM   H15B11454   3.528   3.391  10.934  1.4972 -0.6665  2.8148
  111OSM   H15C11455   3.460   3.508  11.030 -0.3027 -0.1907  0.4588
  111OSM    C1411456   3.440   3.603  10.792  0.1666  0.1104 -0.1401
  111OSM   H14A11457   3.451   3.669  10.707  1.8937 -0.1639 -0.1586
  111OSM   H14B11458   3.375   3.659  10.858  0.2952  2.6821 -2.0653
  111OSM   H14C11459   3.382   3.518  10.758 -0.3122  1.1671 -2.1638
  111OSM    C1311460   3.629   3.706  10.900 -0.0805 -0.2817  0.0055
  111OSM   H13A11461   3.620   3.782  10.824 -1.1764  0.4946  0.8698
  111OSM   H13B11462   3.731   3.702  10.935  0.4219  0.0959 -1.3496
  111OSM   H13C11463   3.576   3.740  10.988 -1.6314 -3.0134  0.2409
  111OSM    C1211464   3.670   3.510  10.763  0.0283  0.8474  0.8312
  111OSM   H12A11465   3.708   3.578  10.689 -0.5235 -0.1977 -0.4649
  111OSM   H12B11466   3.608   3.435  10.714 -0.2340  0.6592  1.4351
  111OSM    C1111467   3.800   3.450  10.822  0.2509  0.2945 -0.3799
  111OSM   H11A11468   3.843   3.523  10.894 -0.1876 -1.8234  2.2093
  111OSM   H11B11469   3.875   3.429  10.744  0.0891 -2.0429  0.0324
  111OSM      P11470   3.743   3.198  10.815 -0.2720 -0.0888  0.0359
  111OSM    O1311471   3.759   3.088  10.914  0.5656  0.1600 -0.6545
  111OSM    O1411472   3.608   3.215  10.753  0.2095  0.0030 -0.3810
  111OSM    O1111473   3.848   3.191  10.697  0.2459  0.0625 -0.2674
  111OSM    O1211474   3.783   3.331  10.895  0.9028  0.2429 -0.7241
  111OSM    C1S11475   3.847   3.084  10.601  0.0125 -0.3239 -0.0972
  111OSM    H1S11476   3.742   3.063  10.568 -1.2886  0.4451  3.1760
  111OSM    H1T11477   3.898   2.995  10.643  0.5488 -0.7810 -1.6429
  111OSM     NF11478   3.925   3.002  10.379 -0.4441  0.5876 -0.6791
  111OSM    HNF11479   4.013   2.957  10.386 -0.8531 -0.0498  0.9191
  111OSM    C2S11480   3.917   3.120  10.464 -0.0250 -0.6633 -0.7119
  111OSM    H2S11481   3.847   3.199  10.431 -1.5111 -0.9703  1.4803
  111OSM    C3S11482   4.061   3.178  10.485 -0.2177  0.0158 -0.1265
  111OSM    H3S11483   4.117   3.084  10.507 -0.4117 -0.3158 -0.9790
  111OSM     O311484   4.081   3.278  10.590 -0.0030  0.2422 -0.2613
  111OSM    HO311485   4.010   3.269  10.654  0.2097  3.9000  0.7229
  111OSM    C4S11486   4.118   3.240  10.351 -0.0320  0.1008 -0.0534
  111OSM    H4S11487   4.200   3.171  10.324  1.9407  0.8633  3.3412
  111OSM    C5S11488   4.091   3.357  10.299 -0.3621  0.5210 -0.0586
  111OSM    H5S11489   4.022   3.426  10.351 -2.7745 -0.5137 -1.7341
  111OSM    C6S11490   4.143   3.401  10.163  0.2542  0.5615  0.0410
  111OSM    H6S11491   4.242   3.358  10.137 -0.0945 -0.1065 -0.2109
  111OSM    H6T11492   4.150   3.511  10.150 -1.8901  0.5687 -1.3823
  111OSM    C7S11493   4.040   3.364  10.048 -0.5720  0.0326 -0.7833
  111OSM    H7S11494   3.951   3.429  10.061  0.4315  1.2108  0.5669
  111OSM    H7T11495   4.020   3.255  10.056 -1.3133 -0.0945 -3.4491
  111OSM    C8S11496   4.095   3.383   9.906 -0.5733 -0.3465 -1.0595
  111OSM    H8S11497   4.199   3.346   9.920  0.8752  3.1646 -1.4971
  111OSM    H8T11498   4.109   3.492   9.891 -0.6664 -0.0168  0.8961
  111OSM    C9S11499   4.006   3.325   9.796  0.0193 -0.7579  0.0094
  111OSM    H9S11500   3.899   3.356   9.804  0.4133  0.3838  1.2669
  111OSM    H9T11501   4.007   3.213   9.799 -0.6801 -0.8007 -1.0152
  111OSM   C10S11502   4.072   3.350   9.659 -0.8129  0.0299  0.9520
  111OSM   H10S11503   4.163   3.290   9.635 -0.4377  0.5045  1.1508
  111OSM   H10T11504   4.093   3.459   9.665 -1.2343  0.1831 -0.1580
  111OSM   C11S11505   3.999   3.313   9.533  0.0163  0.3754  0.0187
  111OSM   H11S11506   3.893   3.348   9.534 -0.2074 -0.1953  2.7405
  111OSM   H11T11507   3.986   3.203   9.532 -2.1511  0.5747 -0.4489
  111OSM   C12S11508   4.068   3.377   9.416 -0.1062 -0.1818 -0.2828
  111OSM   H12S11509   4.177   3.375   9.435 -0.4256  0.4496  1.8524
  111OSM   H12T11510   4.053   3.487   9.413  0.8258 -0.0507 -0.2744
  111OSM   C13S11511   4.015   3.303   9.288  0.2995  0.4997 -0.2959
  111OSM   H13S11512   3.905   3.308   9.280  0.3418  0.0481 -1.2592
  111OSM   H13T11513   4.044   3.197   9.302 -1.8059 -0.1711 -0.6825
  111OSM   C14S11514   4.088   3.355   9.165 -0.0537 -0.2733  0.8905
  111OSM   H14S11515   4.198   3.349   9.176 -0.2134 -2.1655  1.7991
  111OSM   H14T11516   4.071   3.464   9.154  0.6867 -0.0765  1.6184
  111OSM   C15S11517   4.039   3.277   9.040  0.3116  0.1872 -0.2035
  111OSM   H15S11518   3.928   3.273   9.033  0.3696  1.2161 -2.6870
  111OSM   H15T11519   4.070   3.170   9.043 -0.3944 -0.0226  0.1209
  111OSM   C16S11520   4.090   3.342   8.909 -0.2129 -0.1851 -0.1679
  111OSM   H16S11521   4.080   3.452   8.916  1.0925  0.1650 -2.5879
  111OSM   H16T11522   4.020   3.303   8.832 -1.8955 -0.3888  1.3918
  111OSM   C17S11523   4.238   3.324   8.865 -0.1923  0.0069 -0.3168
  111OSM   H17S11524   4.296   3.358   8.954 -0.9564 -1.0133  0.6113
  111OSM   H17T11525   4.263   3.391   8.780  2.3513  1.4951  1.4604
  111OSM   C18S11526   4.275   3.178   8.821 -0.2622 -0.7575 -0.6777
  111OSM   H18S11527   4.368   3.181   8.761  1.1203 -0.3596  1.3869
  111OSM   H18T11528   4.199   3.144   8.746 -0.9846 -0.2739 -0.1760
  111OSM   H18U11529   4.274   3.108   8.907  0.4316 -0.2726 -0.2665
  111OSM    C1F11530   3.819   2.935  10.324 -0.2092  0.1068 -0.7274
  111OSM     OF11531   3.705   2.968  10.338  0.1247  0.2305  0.2549
  111OSM    C2F11532   3.850   2.811  10.243 -0.0823  0.2214  0.1324
  111OSM    H2F11533   3.794   2.729  10.293  1.3152 -0.9561 -0.1792
  111OSM    H2G11534   3.958   2.786  10.243 -0.2757 -0.6862  1.1156
  111OSM    C3F11535   3.793   2.839  10.100  0.2107  0.1745 -0.6252
  111OSM    H3F11536   3.682   2.841  10.100  0.1131 -2.3439  0.4624
  111OSM    H3G11537   3.825   2.743  10.054  2.8701  0.3204  0.7111
  111OSM    C4F11538   3.844   2.968  10.033 -0.2767  0.2928 -0.0751
  111OSM    H4F11539   3.953   2.956  10.015 -0.5777  1.1060 -2.9803
  111OSM    H4G11540   3.835   3.064  10.088  0.5009  1.4153 -1.8463
  111OSM    C5F11541   3.776   3.011   9.901  0.1950 -0.2361 -0.3530
  111OSM    H5F11542   3.805   3.116   9.879 -1.6779  1.6267  4.7607
  111OSM    H5G11543   3.665   3.010   9.906  0.1712  1.9533  0.3399
  111OSM    C6F11544   3.794   2.908   9.789 -0.0307 -0.2462 -0.1015
  111OSM    H6F11545   3.719   2.829   9.812 -0.2733 -0.2438 -0.8670
  111OSM    H6G11546   3.901   2.877   9.785  0.7837  2.0468  1.7818
  111OSM    C7F11547   3.785   2.968   9.642 -0.2263 -0.1659 -1.1353
  111OSM    H7F11548   3.864   3.042   9.616  0.4556 -1.4553 -2.8934
  111OSM    H7G11549   3.695   3.032   9.633  0.2794  0.7731  0.1187
  111OSM    C8F11550   3.772   2.861   9.525  0.2900 -0.8096  0.3747
  111OSM    H8F11551   3.705   2.782   9.564  1.1160 -1.3594  0.6861
  111OSM    H8G11552   3.875   2.822   9.515 -0.0133 -1.3917 -0.5349
  111OSM    C9F11553   3.706   2.922   9.402  0.0711 -0.4594 -0.0666
  111OSM    H9F11554   3.599   2.931   9.422  0.1794 -0.5457  0.5921
  111OSM   C10F11555   3.747   2.937   9.281 -0.0526 -0.1639  0.6870
  111OSM   H10F11556   3.671   2.970   9.209 -0.4506  0.8659  1.5666
  111OSM   C11F11557   3.880   2.900   9.228 -0.7940 -0.5321  0.0137
  111OSM   H11F11558   3.940   2.845   9.303  3.4516  2.3261 -0.9339
  111OSM   H11G11559   3.933   2.991   9.194  0.5006 -1.4848 -0.6081
  111OSM   C12F11560   3.875   2.812   9.094 -0.3249  0.2927 -0.5041
  111OSM   H12F11561   3.817   2.719   9.109  0.9287 -0.8491 -2.2476
  111OSM   H12G11562   3.980   2.776   9.084 -0.5669 -1.1814  1.5818
  111OSM   C13F11563   3.820   2.892   8.985  0.1456 -0.7569  0.4154
  111OSM   H13F11564   3.870   2.991   8.995 -1.2341 -0.1154  1.2243
  111OSM   H13G11565   3.712   2.914   8.995  0.5047  0.6240  1.6084
  111OSM   C14F11566   3.855   2.839   8.840  0.2824  0.2823  0.4683
  111OSM   H14F11567   3.839   2.730   8.826  3.0344 -0.1839  0.4945
  111OSM   H14G11568   3.961   2.856   8.813 -0.4723 -0.4287 -3.6630
  111OSM   C15F11569   3.770   2.912   8.736  0.4134 -1.0230  0.1131
  111OSM   H15F11570   3.825   2.905   8.640  2.0011  3.1501  0.4830
  111OSM   H15G11571   3.776   3.021   8.759  0.1643 -0.7647 -1.0103
  111OSM   C16F11572   3.628   2.857   8.727  0.2514  0.0003 -0.4742
  111OSM   H16F11573   3.568   2.898   8.811 -2.1251 -1.7961 -1.1755
  111OSM   H16G11574   3.642   2.747   8.725  1.4738  0.1390 -0.6826
  111OSM   C17F11575   3.551   2.907   8.613 -0.6584 -0.6845  0.7433
  111OSM   H17F11576   3.577   3.014   8.593  0.9573 -1.3868 -1.2550
  111OSM   H17G11577   3.441   2.905   8.628 -0.9517  2.6282 -0.0396
  111OSM   C18F11578   3.597   2.833   8.480  0.5246  0.0058 -0.4145
  111OSM   H18F11579   3.554   2.873   8.386  1.5179 -0.6051 -1.1426
  111OSM   H18G11580   3.587   2.722   8.489 -0.2604  0.0737 -0.3451
  111OSM   H18H11581   3.703   2.861   8.466  0.6011  1.2075  2.0606
  112OSM      N11582   4.951   0.205  11.362 -0.1801 -0.1941 -0.7242
  112OSM    C1511583   4.951   0.128  11.491 -0.0059  0.6716 -0.3167
  112OSM   H15A11584   5.011   0.039  11.482 -1.8616 -0.8156  1.1956
  112OSM   H15B11585   4.851   0.100  11.518  0.5670 -0.2849  0.9252
  112OSM   H15C11586   4.987   0.189  11.573 -0.0183  1.0260 -0.5695
  112OSM    C1411587   4.860   0.323  11.376  0.2945  0.5679 -0.1816
  112OSM   H14A11588   4.898   0.402  11.438  0.1524 -0.3786  1.1453
  112OSM   H14B11589   4.766   0.296  11.422  0.8867  1.2564  1.4806
  112OSM   H14C11590   4.838   0.365  11.279 -1.6639 -0.0149 -0.0341
  112OSM    C1311591   5.085   0.253  11.319 -0.1103 -0.2846  0.1586
  112OSM   H13A11592   5.082   0.304  11.224  0.5570 -0.0361  0.2688
  112OSM   H13B11593   5.157   0.173  11.307  0.0029 -0.0057 -1.1479
  112OSM   H13C11594   5.126   0.322  11.391 -3.0146  2.4887 -0.5876
  112OSM    C1211595   4.898   0.110  11.264 -0.8229  0.4312  0.3568
  112OSM   H12A11596   4.807   0.062  11.297 -0.4362 -2.0176 -1.7916
  112OSM   H12B11597   4.967   0.029  11.247 -1.4194  0.0261 -0.2156
  112OSM    C1111598   4.882   0.160  11.117  0.4638  0.1569  0.1328
  112OSM   H11A11599   4.831   0.259  11.113  2.5142  1.2431 -1.1498
  112OSM   H11B11600   4.818   0.085  11.066 -1.6638  1.9800 -0.0239
  112OSM      P11601   5.104   0.040  11.018 -0.4871  0.3549 -0.4756
  112OSM    O1311602   5.242   0.085  11.050  0.2071 -0.2371 -0.4257
  112OSM    O1411603   5.050  -0.079  11.090  0.0470 -0.4749 -0.1603
  112OSM    O1111604   5.089   0.020  10.866 -0.2591 -0.6839  0.5181
  112OSM    O1211605   5.005   0.163  11.050 -0.0219 -0.3708  0.6081
  112OSM    C1S11606   5.103   0.133  10.777  0.8497  0.2375  0.1511
  112OSM    H1S11607   5.207   0.172  10.771  0.5572  0.8212 -3.5189
  112OSM    H1T11608   5.039   0.215  10.815  0.9808 -0.8461  2.9494
  112OSM     NF11609   5.067   0.225  10.550 -0.4589  0.1082 -0.3826
  112OSM    HNF11610   4.996   0.271  10.498  1.2422  0.1865 -2.8260
  112OSM    C2S11611   5.049   0.106  10.637  0.9643  0.6532  0.5615
  112OSM    H2S11612   5.119   0.027  10.602 -0.1853 -1.0029  1.8424
  112OSM    C3S11613   4.905   0.053  10.639 -0.0420 -0.3107  0.0190
  112OSM    H3S11614   4.857   0.137  10.693 -0.9374  0.1901 -1.5135
  112OSM     O311615   4.878  -0.074  10.715 -0.2874  0.2776 -0.1122
  112OSM    HO311616   4.949  -0.089  10.778  0.4246 -2.5269 -1.3980
  112OSM    C4S11617   4.857   0.038  10.497  0.3069 -0.7091  0.0396
  112OSM    H4S11618   4.821   0.130  10.449  0.5819 -0.1618  0.8540
  112OSM    C5S11619   4.838  -0.076  10.425  0.7635 -0.5521 -0.5904
  112OSM    H5S11620   4.874  -0.171  10.466 -0.9005 -2.0186 -2.2717
  112OSM    C6S11621   4.780  -0.097  10.288 -0.0291 -0.1881  0.3092
  112OSM    H6S11622   4.670  -0.107  10.302  0.0727 -1.5852  0.1999
  112OSM    H6T11623   4.820  -0.194  10.252 -0.6643 -0.8973  1.4388
  112OSM    C7S11624   4.797   0.021  10.190 -0.6864  0.4361 -0.5446
  112OSM    H7S11625   4.900   0.062  10.200 -1.5837  2.5539  0.9397
  112OSM    H7T11626   4.738   0.112  10.216  2.2751  2.1101  0.8629
  112OSM    C8S11627   4.787  -0.030  10.052 -0.0461  0.1201  1.2371
  112OSM    H8S11628   4.686  -0.069  10.029  0.7681  0.0225 -3.2102
  112OSM    H8T11629   4.845  -0.121  10.025  0.6948  0.9203  0.0027
  112OSM    C9S11630   4.820   0.082   9.956  0.3610 -0.3015  0.5770
  112OSM    H9S11631   4.930   0.102   9.952  0.2802  0.0129 -0.9132
  112OSM    H9T11632   4.771   0.174   9.994  0.8523  0.0771  0.3145
  112OSM   C10S11633   4.780   0.055   9.810  0.4462 -0.2490  0.4063
  112OSM   H10S11634   4.796  -0.053   9.788  0.5934 -0.3751  1.0977
  112OSM   H10T11635   4.846   0.119   9.748  0.6783  0.6334  1.5151
  112OSM   C11S11636   4.630   0.092   9.790 -0.1067 -0.1761  0.4839
  112OSM   H11S11637   4.630   0.203   9.795 -0.5899 -0.1413 -0.1652
  112OSM   H11T11638   4.575   0.044   9.873 -1.7955  3.4917  1.7117
  112OSM   C12S11639   4.578   0.056   9.654  1.0756 -0.1418  0.6882
  112OSM   H12S11640   4.473   0.090   9.660  1.2439  0.8217 -1.1201
  112OSM   H12T11641   4.587  -0.055   9.650 -0.6769 -0.2720 -0.9060
  112OSM   C13S11642   4.644   0.103   9.528  0.2700  0.0781 -0.4607
  112OSM   H13S11643   4.739   0.048   9.513 -0.9667 -1.4856 -3.2243
  112OSM   H13T11644   4.662   0.212   9.543 -0.3001  0.1707 -0.4249
  112OSM   C14S11645   4.570   0.068   9.406  0.0386  0.5833  0.9351
  112OSM   H14S11646   4.470   0.116   9.409 -0.1454  0.2090  0.8960
  112OSM   H14T11647   4.551  -0.041   9.409 -0.5183  0.6083 -0.5912
  112OSM   C15S11648   4.646   0.118   9.283  0.2394  0.4964 -0.8197
  112OSM   H15S11649   4.679   0.221   9.305  0.1039  0.3208  0.2665
  112OSM   H15T11650   4.583   0.121   9.192 -0.4578  1.7380 -0.3175
  112OSM   C16S11651   4.759   0.022   9.235 -0.2775 -0.2078 -0.1117
  112OSM   H16S11652   4.716  -0.077   9.208  0.5842 -0.4101 -0.7970
  112OSM   H16T11653   4.833   0.002   9.315 -0.5215 -1.5967 -0.2139
  112OSM   C17S11654   4.835   0.092   9.119  0.0758 -0.3089  0.3816
  112OSM   H17S11655   4.916   0.018   9.099 -1.0991 -1.6040  0.2989
  112OSM   H17T11656   4.880   0.188   9.153 -2.3199  1.7276 -1.7629
  112OSM   C18S11657   4.761   0.110   8.988 -0.4970 -0.2580 -0.5871
  112OSM   H18S11658   4.691   0.029   8.960 -3.2629  1.2731  1.4520
  112OSM   H18T11659   4.845   0.116   8.916  0.0797 -3.9601 -0.3999
  112OSM   H18U11660   4.710   0.208   8.994  0.2484  0.1707 -1.0735
  112OSM    C1F11661   5.188   0.262  10.503  0.1422  0.1725 -0.0268
  112OSM     OF11662   5.289   0.197  10.523  0.4914  0.2081 -0.3995
  112OSM    C2F11663   5.193   0.391  10.417 -0.5394 -0.2860 -0.7043
  112OSM    H2F11664   5.289   0.444  10.434 -0.9803  0.4664 -0.4971
  112OSM    H2G11665   5.124   0.460  10.471  1.3693 -0.4321  2.1819
  112OSM    C3F11666   5.164   0.357  10.270  0.1881  0.4257 -0.2370
  112OSM    H3F11667   5.062   0.313  10.269 -0.1856  1.2713 -0.7800
  112OSM    H3G11668   5.250   0.294  10.237 -0.3076 -0.8838  0.8929
  112OSM    C4F11669   5.174   0.474  10.171  0.3166 -0.2468  0.1862
  112OSM    H4F11670   5.282   0.493  10.154 -0.1767  1.5931 -1.2485
  112OSM    H4G11671   5.114   0.561  10.203  1.3278  0.0396  1.3836
  112OSM    C5F11672   5.120   0.438  10.031 -0.0416  0.1561  1.0228
  112OSM    H5F11673   5.020   0.394  10.050  0.8519 -1.4085  2.3649
  112OSM    H5G11674   5.185   0.356   9.992 -0.1339  0.3569  0.4358
  112OSM    C6F11675   5.106   0.548   9.924  0.3009  0.1275 -0.5614
  112OSM    H6F11676   5.201   0.588   9.882  0.5185 -0.1091 -0.2931
  112OSM    H6G11677   5.066   0.644   9.962  0.6432 -0.2604  0.8078
  112OSM    C7F11678   5.014   0.495   9.809  0.0215 -0.2404 -0.2138
  112OSM    H7F11679   4.977   0.581   9.749 -1.8899 -2.4452 -2.4122
  112OSM    H7G11680   4.931   0.435   9.851  0.3590 -1.2027 -0.8744
  112OSM    C8F11681   5.095   0.417   9.703  0.2240  0.1080  0.5736
  112OSM    H8F11682   5.149   0.335   9.754 -0.4049 -0.1351  0.8638
  112OSM    H8G11683   5.172   0.483   9.658 -0.2591  0.3741  0.1130
  112OSM    C9F11684   4.995   0.349   9.611 -0.8225  0.4054  0.0957
  112OSM    H9F11685   4.967   0.250   9.648  0.8221 -0.5297 -1.0487
  112OSM   C10F11686   4.967   0.393   9.488 -0.2585 -0.2418  0.7544
  112OSM   H10F11687   4.891   0.342   9.427  0.7264 -1.1561  0.2505
  112OSM   C11F11688   5.020   0.521   9.427  0.6790  0.0228  0.6003
  112OSM   H11F11689   5.114   0.493   9.374 -0.2396  0.9756 -1.6416
  112OSM   H11G11690   5.051   0.595   9.504  0.1253 -1.0994  1.9478
  112OSM   C12F11691   4.919   0.572   9.318 -0.3173 -0.8838 -0.5093
  112OSM   H12F11692   4.951   0.675   9.289 -1.9990 -0.8547 -2.4071
  112OSM   H12G11693   4.816   0.577   9.358 -0.2688  1.1305 -0.5293
  112OSM   C13F11694   4.936   0.506   9.181 -0.2330 -0.2393 -0.3811
  112OSM   H13F11695   4.906   0.399   9.186 -0.3573 -0.1879  0.0224
  112OSM   H13G11696   5.045   0.506   9.160  0.0100  1.8445  0.6464
  112OSM   C14F11697   4.873   0.574   9.059  0.7438  0.0114 -0.2150
  112OSM   H14F11698   4.903   0.681   9.056 -0.7834  0.5253  1.3834
  112OSM   H14G11699   4.762   0.577   9.056  0.7741  1.1261 -2.8469
  112OSM   C15F11700   4.919   0.506   8.924 -0.1611 -0.1011 -0.1356
  112OSM   H15F11701   4.869   0.409   8.900  0.2901 -1.1045  2.5749
  112OSM   H15G11702   5.029   0.489   8.920  0.2245  2.2874 -2.6423
  112OSM   C16F11703   4.888   0.593   8.802  0.2739  0.0917  0.3391
  112OSM   H16F11704   4.927   0.539   8.713 -0.2876 -0.2595  0.3045
  112OSM   H16G11705   4.940   0.691   8.799 -0.6804  0.6241  0.6863
  112OSM   C17F11706   4.733   0.615   8.774 -0.2187  1.0647  0.0018
  112OSM   H17F11707   4.681   0.644   8.867 -1.3924  1.5702 -0.7916
  112OSM   H17G11708   4.690   0.513   8.767  0.0425  0.8759  1.0091
  112OSM   C18F11709   4.697   0.718   8.665 -0.3290 -0.1408 -0.4393
  112OSM   H18F11710   4.589   0.705   8.643 -1.1164 -0.8512  3.2349
  112OSM   H18G11711   4.757   0.689   8.576 -2.2086 -1.2637 -1.4029
  112OSM   H18H11712   4.730   0.817   8.703 -0.8802 -0.9674  2.3748
  113OSM      N11713   2.202   3.502  10.997 -0.0413 -0.3791 -0.5667
  113OSM    C1511714   2.132   3.629  10.959  0.3261 -0.5253  0.0735
  113OSM   H15A11715   2.183   3.657  10.867 -0.2524 -1.2375 -0.4816
  113OSM   H15B11716   2.147   3.696  11.041  2.0958 -0.3110 -0.3916
  113OSM   H15C11717   2.026   3.610  10.948  0.4164 -1.8022  1.2583
  113OSM    C1411718   2.130   3.467  11.133  0.2921  0.5834  0.2813
  113OSM   H14A11719   2.159   3.370  11.171 -2.5569 -0.1174  0.9769
  113OSM   H14B11720   2.023   3.481  11.130  0.0561 -1.1922 -0.9684
  113OSM   H14C11721   2.156   3.537  11.211 -3.2159  2.0930  0.2987
  113OSM    C1311722   2.165   3.395  10.905 -0.2416  0.8528  1.0394
  113OSM   H13A11723   2.203   3.299  10.937 -1.3250 -0.6260 -1.7717
  113OSM   H13B11724   2.197   3.408  10.803  1.3391 -1.2596  1.2025
  113OSM   H13C11725   2.058   3.382  10.905 -0.3002  1.0951 -0.8475
  113OSM    C1211726   2.342   3.539  11.018  0.5752  0.5041  0.1142
  113OSM   H12A11727   2.392   3.454  11.062 -0.8784 -0.0471  0.7760
  113OSM   H12B11728   2.357   3.619  11.089  0.1908  0.7691 -0.1029
  113OSM    C1111729   2.420   3.591  10.897 -0.1047 -1.1304  0.1840
  113OSM   H11A11730   2.415   3.504  10.828 -1.1963 -2.0891  1.4076
  113OSM   H11B11731   2.526   3.598  10.929 -0.0028 -2.0873  0.1022
  113OSM      P11732   2.423   3.848  10.924  0.2373  0.3700  0.0634
  113OSM    O1311733   2.352   3.964  10.861  0.2228  0.0824 -0.5219
  113OSM    O1411734   2.410   3.837  11.072  0.2175  0.1691  0.5453
  113OSM    O1111735   2.581   3.855  10.880  0.1101 -0.5973 -0.2469
  113OSM    O1211736   2.371   3.716  10.849  0.8398  0.1139 -0.8129
  113OSM    C1S11737   2.625   3.817  10.753  0.2062 -0.1830 -0.2047
  113OSM    H1S11738   2.570   3.730  10.712 -0.7268  0.7261 -0.9315
  113OSM    H1T11739   2.724   3.772  10.778 -0.3054 -0.4910  1.3827
  113OSM     NF11740   2.714   3.886  10.532 -0.4695  0.0453  0.3205
  113OSM    HNF11741   2.808   3.918  10.527  0.0215 -1.2469  0.8348
  113OSM    C2S11742   2.642   3.931  10.653 -0.0459 -0.3641  0.1949
  113OSM    H2S11743   2.542   3.970  10.627  0.4814  0.0183 -1.3898
  113OSM    C3S11744   2.708   4.053  10.727  0.0236 -0.7501  0.5059
  113OSM    H3S11745   2.796   4.011  10.779  1.4828 -0.0530 -1.3022
  113OSM     O311746   2.629   4.123  10.825  0.6190  0.0527  0.0837
  113OSM    HO311747   2.556   4.063  10.842  0.0864 -0.1620 -2.5398
  113OSM    C4S11748   2.749   4.159  10.615 -0.7304  0.0608  0.3705
  113OSM    H4S11749   2.858   4.154  10.605 -0.7988 -0.5380 -0.1243
  113OSM    C5S11750   2.669   4.246  10.546 -0.2693  0.7386 -0.2172
  113OSM    H5S11751   2.562   4.247  10.573 -0.0984 -0.9286  0.6817
  113OSM    C6S11752   2.702   4.353  10.449 -0.3310 -0.3531  1.0592
  113OSM    H6S11753   2.798   4.327  10.400  0.4640 -2.6359  3.5891
  113OSM    H6T11754   2.725   4.456  10.484  2.0789  0.2245 -1.8052
  113OSM    C7S11755   2.592   4.359  10.349 -0.2448  0.3081  0.0554
  113OSM    H7S11756   2.609   4.456  10.297  0.6456  0.2728  0.2609
  113OSM    H7T11757   2.489   4.368  10.390 -0.7073 -0.1868 -0.9616
  113OSM    C8S11758   2.586   4.238  10.258 -0.0431 -0.5075 -0.5093
  113OSM    H8S11759   2.482   4.222  10.222 -0.2245 -0.5206  0.0175
  113OSM    H8T11760   2.613   4.140  10.304  1.3014 -0.8873 -2.0311
  113OSM    C9S11761   2.664   4.261  10.126  0.1567  0.0491 -0.4775
  113OSM    H9S11762   2.771   4.242  10.146  0.4159  0.2967 -1.5621
  113OSM    H9T11763   2.655   4.366  10.090 -0.8963 -0.0977 -0.6914
  113OSM   C10S11764   2.624   4.165  10.014  0.1371  0.1717 -0.4709
  113OSM   H10S11765   2.515   4.177   9.997 -0.2440  0.4541  1.8086
  113OSM   H10T11766   2.643   4.062  10.051  3.7223  1.0242  0.4342
  113OSM   C11S11767   2.703   4.195   9.885 -0.5288  0.0731 -0.3176
  113OSM   H11S11768   2.809   4.222   9.906 -0.8296  0.9117  0.1594
  113OSM   H11T11769   2.658   4.296   9.874 -0.2841  0.4064  1.4424
  113OSM   C12S11770   2.672   4.106   9.768  0.5108  0.5296  0.2268
  113OSM   H12S11771   2.565   4.105   9.738  0.1442 -1.7357  1.4453
  113OSM   H12T11772   2.707   4.004   9.794  0.4362  0.7235  1.1064
  113OSM   C13S11773   2.749   4.159   9.647 -0.3572  0.4315  0.7341
  113OSM   H13S11774   2.854   4.123   9.657 -1.0224 -2.3853 -1.2272
  113OSM   H13T11775   2.746   4.270   9.644  2.4312  0.5468 -1.1019
  113OSM   C14S11776   2.700   4.092   9.517  0.0956 -0.2457  0.3948
  113OSM   H14S11777   2.622   4.150   9.462  1.0702 -0.8613 -1.7383
  113OSM   H14T11778   2.662   3.992   9.549 -0.1638 -0.8496 -1.6387
  113OSM   C15S11779   2.820   4.099   9.409  0.5582 -0.8937 -1.1742
  113OSM   H15S11780   2.914   4.056   9.449  0.0208  0.3589  1.7430
  113OSM   H15T11781   2.834   4.204   9.375 -4.3001  1.5939  2.9875
  113OSM   C16S11782   2.784   4.022   9.280 -0.4484  0.1195  0.5542
  113OSM   H16S11783   2.864   4.034   9.203 -2.0722  0.1833 -1.2172
  113OSM   H16T11784   2.693   4.059   9.229  0.1048  0.9208  0.1123
  113OSM   C17S11785   2.763   3.868   9.300 -0.1698  0.0430  0.2570
  113OSM   H17S11786   2.677   3.851   9.369 -1.1028 -1.5839 -1.2149
  113OSM   H17T11787   2.848   3.817   9.349 -0.3585 -0.4226  0.1034
  113OSM   C18S11788   2.718   3.790   9.176 -0.2640 -0.2962 -0.2052
  113OSM   H18S11789   2.725   3.682   9.199  3.1952 -0.2319 -0.4428
  113OSM   H18T11790   2.782   3.801   9.086 -0.6851  0.7825 -0.3862
  113OSM   H18U11791   2.609   3.807   9.165 -0.1530  2.8559  2.1197
  113OSM    C1F11792   2.659   3.805  10.441  0.3272  0.0440 -0.0054
  113OSM     OF11793   2.534   3.797  10.432 -0.7354  0.4802  0.0037
  113OSM    C2F11794   2.746   3.727  10.348 -0.5920 -0.3839 -1.0733
  113OSM    H2F11795   2.707   3.623  10.354 -0.4257 -0.4432 -1.0017
  113OSM    H2G11796   2.854   3.733  10.373 -0.5222 -1.5901 -1.0443
  113OSM    C3F11797   2.737   3.769  10.202 -0.1624  0.0147  0.9910
  113OSM    H3F11798   2.783   3.867  10.177  0.0902 -0.7012 -1.6601
  113OSM    H3G11799   2.627   3.777  10.189 -0.4931  0.7313  3.7713
  113OSM    C4F11800   2.806   3.666  10.105 -0.0821  0.9363 -0.2901
  113OSM    H4F11801   2.749   3.571  10.105  1.2523  0.0890 -1.3347
  113OSM    H4G11802   2.914   3.646  10.122 -0.4978  0.0503  1.4535
  113OSM    C5F11803   2.793   3.712   9.963 -0.3955 -0.6570  0.0466
  113OSM    H5F11804   2.838   3.812   9.942  2.2596 -1.5089  1.3249
  113OSM    H5G11805   2.686   3.728   9.935 -0.9000 -0.6471  1.8880
  113OSM    C6F11806   2.846   3.608   9.860 -0.8778 -0.3992  0.0940
  113OSM    H6F11807   2.783   3.517   9.870  0.0141 -1.0591 -0.1233
  113OSM    H6G11808   2.951   3.597   9.896 -0.6428  2.8225  0.7001
  113OSM    C7F11809   2.842   3.674   9.716  0.7958 -0.2638 -0.1544
  113OSM    H7F11810   2.918   3.752   9.697  0.8892 -0.5928 -1.1594
  113OSM    H7G11811   2.745   3.729   9.716  1.1892  0.4372  0.3139
  113OSM    C8F11812   2.861   3.578   9.593  0.4164 -0.2809 -0.5001
  113OSM    H8F11813   2.859   3.642   9.502 -0.5873  1.5180  0.7227
  113OSM    H8G11814   2.770   3.519   9.570  0.0042 -0.1170  0.6304
  113OSM    C9F11815   2.986   3.492   9.588 -0.8184  0.2868  0.0936
  113OSM    H9F11816   3.003   3.442   9.684  0.1472 -3.1977 -1.7374
  113OSM   C10F11817   3.073   3.478   9.485 -0.0570 -0.5765 -0.7290
  113OSM   H10F11818   3.158   3.410   9.503  2.5712  2.3783 -1.2356
  113OSM   C11F11819   3.068   3.530   9.345  0.2388 -0.2769 -0.0774
  113OSM   H11F11820   3.165   3.575   9.314 -0.8918  1.7806 -0.7812
  113OSM   H11G11821   2.986   3.604   9.339  0.1686 -0.4695 -2.6220
  113OSM   C12F11822   3.044   3.430   9.232 -0.1716  0.7688  0.4287
  113OSM   H12F11823   2.940   3.390   9.233  0.4257 -0.9591  2.1385
  113OSM   H12G11824   3.108   3.339   9.246 -0.7176  0.2618 -0.3474
  113OSM   C13F11825   3.062   3.490   9.096  0.3115 -0.0891 -0.0408
  113OSM   H13F11826   3.168   3.526   9.097  0.6075 -0.8753  2.1534
  113OSM   H13G11827   2.989   3.573   9.090 -0.9547 -1.2354 -1.0887
  113OSM   C14F11828   3.050   3.382   8.986  0.1283  0.4050  0.9226
  113OSM   H14F11829   2.943   3.352   8.991 -0.4280  2.0921 -0.1263
  113OSM   H14G11830   3.113   3.294   9.013 -1.8428 -0.8531  1.6817
  113OSM   C15F11831   3.084   3.441   8.846 -0.4475 -0.4362  0.0700
  113OSM   H15F11832   3.022   3.532   8.832  0.8834  0.8759  2.0888
  113OSM   H15G11833   3.048   3.372   8.767 -0.0900  1.5970 -1.9446
  113OSM   C16F11834   3.227   3.471   8.815 -0.5255  0.4583  0.5154
  113OSM   H16F11835   3.285   3.377   8.806 -1.7787 -0.3227  0.2826
  113OSM   H16G11836   3.271   3.539   8.891 -2.0828  0.8500  1.1108
  113OSM   C17F11837   3.244   3.547   8.688  0.4541 -0.8644 -0.7090
  113OSM   H17F11838   3.353   3.569   8.686  0.2272  0.4592  0.1051
  113OSM   H17G11839   3.179   3.637   8.695 -0.6268 -1.6552 -0.1903
  113OSM   C18F11840   3.221   3.474   8.555 -0.2767  0.6014 -0.3672
  113OSM   H18F11841   3.118   3.433   8.548 -0.2726  0.5517 -0.1552
  113OSM   H18G11842   3.291   3.387   8.550 -0.7410  0.2569 -0.9908
  113OSM   H18H11843   3.251   3.530   8.464  0.3240  2.6559  1.0348
  114OSM      N11844   5.276   6.146  11.218  0.0536  0.2572 -0.0728
  114OSM    C1511845   5.361   6.206  11.110 -0.0409 -0.2277  0.2625
  114OSM   H15A11846   5.424   6.129  11.067  1.2789  1.0809 -0.2406
  114OSM   H15B11847   5.419   6.292  11.139 -1.4447  0.5697  0.8069
  114OSM   H15C11848   5.293   6.245  11.036  0.6194  0.6956  0.1261
  114OSM    C1411849   5.204   6.025  11.158 -0.6326 -1.1212  0.4093
  114OSM   H14A11850   5.283   5.969  11.110  1.5345  2.1361 -0.0856
  114OSM   H14B11851   5.139   6.079  11.090 -0.0140  2.6285  2.5555
  114OSM   H14C11852   5.155   5.966  11.234 -2.1169 -0.5267 -0.0405
  114OSM    C1311853   5.366   6.105  11.332 -0.3883 -0.3839 -0.0058
  114OSM   H13A11854   5.426   6.186  11.370  0.0873 -1.1433  0.9136
  114OSM   H13B11855   5.436   6.031  11.294 -1.3177 -1.8682  1.0654
  114OSM   H13C11856   5.321   6.059  11.418  0.3498  0.9121  1.1000
  114OSM    C1211857   5.173   6.245  11.269 -0.2575  0.5178  0.2665
  114OSM   H12A11858   5.235   6.329  11.297 -0.9230  0.9077  0.5870
  114OSM   H12B11859   5.117   6.202  11.351  2.0238 -1.5123  0.8722
  114OSM    C1111860   5.072   6.277  11.152 -0.1220  0.0878 -0.0584
  114OSM   H11A11861   5.119   6.300  11.055 -0.4011 -2.3647 -0.8555
  114OSM   H11B11862   5.018   6.369  11.182 -1.1295 -0.2256 -0.8493
  114OSM      P11863   4.874   6.207  11.018 -0.0892  0.2127 -0.0089
  114OSM    O1311864   4.758   6.113  11.038 -0.7077  0.2993 -0.0510
  114OSM    O1411865   4.849   6.350  10.999 -0.3157 -0.5995 -0.0275
  114OSM    O1111866   4.957   6.150  10.897  0.3669 -0.1521 -0.0244
  114OSM    O1211867   4.980   6.177  11.134  0.1692  0.4438  0.4975
  114OSM    C1S11868   4.892   6.132  10.772  0.1850  0.0446 -0.2432
  114OSM    H1S11869   4.782   6.147  10.776  0.2911  0.5377  1.4816
  114OSM    H1T11870   4.928   6.033  10.736  1.9076  0.6982 -0.3793
  114OSM     NF11871   4.863   6.222  10.540  0.2145  0.2283 -1.1632
  114OSM    HNF11872   4.900   6.174  10.461  0.1050 -2.4834  0.2953
  114OSM    C2S11873   4.945   6.232  10.664 -0.0218 -0.6291 -0.0459
  114OSM    H2S11874   4.932   6.335  10.704  1.9902 -0.7540  1.0472
  114OSM    C3S11875   5.098   6.216  10.642 -0.8912 -0.7112  0.4993
  114OSM    H3S11876   5.105   6.125  10.578 -0.5278 -0.5605  0.3244
  114OSM     O311877   5.178   6.206  10.764 -0.1230  0.0269  0.1833
  114OSM    HO311878   5.106   6.194  10.827 -0.1232 -1.5877 -0.0808
  114OSM    C4S11879   5.145   6.334  10.556 -0.4009  0.4165  0.9664
  114OSM    H4S11880   5.165   6.285  10.459  0.9777 -1.7472  2.2578
  114OSM    C5S11881   5.186   6.463  10.589 -0.6936  0.2872  0.2490
  114OSM    H5S11882   5.177   6.492  10.695 -0.3974 -1.1740  0.6951
  114OSM    C6S11883   5.243   6.564  10.487 -0.7539 -0.2414  0.7260
  114OSM    H6S11884   5.352   6.549  10.469 -0.3737  0.0058  2.6340
  114OSM    H6T11885   5.231   6.669  10.521 -1.1703  0.5497 -1.6640
  114OSM    C7S11886   5.172   6.557  10.354 -0.1135 -0.3156  0.2136
  114OSM    H7S11887   5.077   6.610  10.375 -1.0601 -1.6859 -0.4900
  114OSM    H7T11888   5.159   6.453  10.318 -4.8466  0.3286 -0.5957
  114OSM    C8S11889   5.244   6.642  10.249  0.3248  0.4896 -0.3897
  114OSM    H8S11890   5.352   6.634  10.276  0.0753  0.7836  0.7622
  114OSM    H8T11891   5.223   6.750  10.261  2.6417  1.0665 -1.0677
  114OSM    C9S11892   5.212   6.591  10.106  0.0175 -0.1647 -0.4015
  114OSM    H9S11893   5.104   6.568  10.099  0.3580 -2.0189 -0.1572
  114OSM    H9T11894   5.274   6.501  10.085  0.5486  0.6032 -2.2550
  114OSM   C10S11895   5.259   6.696  10.005  0.0526  0.6486  0.6267
  114OSM   H10S11896   5.370   6.699  10.001  0.0048  1.0251 -1.0123
  114OSM   H10T11897   5.222   6.797  10.034  1.4024  0.7072  2.3518
  114OSM   C11S11898   5.206   6.669   9.866 -0.5142 -0.3006 -0.3534
  114OSM   H11S11899   5.097   6.687   9.863 -0.3161  0.9432 -0.9488
  114OSM   H11T11900   5.215   6.562   9.836  0.9522 -0.6369  1.0950
  114OSM   C12S11901   5.280   6.752   9.755 -0.1384  0.9264 -0.7075
  114OSM   H12S11902   5.386   6.722   9.767 -0.1723  1.4309  1.2424
  114OSM   H12T11903   5.284   6.861   9.777  0.8369  0.8262 -0.3648
  114OSM   C13S11904   5.222   6.735   9.616  0.3150  0.3985 -0.0058
  114OSM   H13S11905   5.113   6.754   9.613  0.1596 -0.5809 -1.5595
  114OSM   H13T11906   5.233   6.627   9.593 -3.4054 -0.1095 -0.0297
  114OSM   C14S11907   5.281   6.834   9.511 -0.3821  0.5049 -0.0534
  114OSM   H14S11908   5.392   6.839   9.505 -0.4527  2.2235 -0.5241
  114OSM   H14T11909   5.262   6.937   9.546  0.1414  0.9833 -1.1263
  114OSM   C15S11910   5.231   6.817   9.367 -0.3044  0.9470 -0.0446
  114OSM   H15S11911   5.120   6.822   9.359 -0.2705  0.1947 -1.1465
  114OSM   H15T11912   5.265   6.719   9.327  1.5692  1.3493  0.5046
  114OSM   C16S11913   5.291   6.930   9.282 -0.1693 -0.6435  0.1290
  114OSM   H16S11914   5.402   6.923   9.280 -0.0974  0.3518  0.2309
  114OSM   H16T11915   5.272   7.026   9.335 -1.3403 -0.1482 -1.1380
  114OSM   C17S11916   5.222   6.933   9.147  0.3849  0.2701 -0.2879
  114OSM   H17S11917   5.115   6.955   9.164  0.3623 -0.3935  0.4765
  114OSM   H17T11918   5.233   6.828   9.111 -0.3079 -0.0273  0.3392
  114OSM   C18S11919   5.293   7.032   9.050  0.4827 -1.1613  0.0494
  114OSM   H18S11920   5.277   7.137   9.082  1.7545 -1.8171  3.1577
  114OSM   H18T11921   5.251   7.009   8.949  1.7358  0.2889 -0.8458
  114OSM   H18U11922   5.403   7.013   9.047  0.6422 -0.3480  0.4421
  114OSM    C1F11923   4.737   6.255  10.521  0.6126  0.0748  0.0217
  114OSM     OF11924   4.678   6.308  10.614  0.1490 -0.3366  0.2924
  114OSM    C2F11925   4.679   6.220  10.390  0.4582 -0.2438  0.3381
  114OSM    H2F11926   4.570   6.223  10.413  0.1402  1.8668 -1.1703
  114OSM    H2G11927   4.698   6.118  10.351 -1.0957  0.1595 -1.6117
  114OSM    C3F11928   4.695   6.329  10.290 -0.5203 -0.0768  0.7805
  114OSM    H3F11929   4.801   6.362  10.279 -0.1913 -1.4101 -0.5565
  114OSM    H3G11930   4.628   6.417  10.291 -0.1228  0.3870 -2.2037
  114OSM    C4F11931   4.670   6.281  10.149 -0.2418  0.3028 -0.0806
  114OSM    H4F11932   4.562   6.256  10.149 -0.1035 -0.4062  1.4742
  114OSM    H4G11933   4.722   6.189  10.114 -0.3668  0.3710 -0.4616
  114OSM    C5F11934   4.705   6.389  10.046  0.6230  0.2364  0.0209
  114OSM    H5F11935   4.805   6.434  10.068  1.6213 -1.9985  0.2668
  114OSM    H5G11936   4.630   6.470  10.061 -2.6825 -2.6270  0.0495
  114OSM    C6F11937   4.710   6.346   9.902  0.2783  0.8226 -0.2991
  114OSM    H6F11938   4.604   6.334   9.871  0.4180  1.9768 -1.2745
  114OSM    H6G11939   4.755   6.244   9.901 -1.3190  0.0633 -2.2659
  114OSM    C7F11940   4.784   6.443   9.806  0.1897 -0.2412  0.2848
  114OSM    H7F11941   4.890   6.440   9.840  1.0854  1.5373 -2.0864
  114OSM    H7G11942   4.757   6.550   9.822  1.7283  0.7423 -2.9799
  114OSM    C8F11943   4.774   6.408   9.664  0.3357  0.0219  0.2443
  114OSM    H8F11944   4.670   6.401   9.625 -0.2451 -0.4148  1.8071
  114OSM    H8G11945   4.816   6.308   9.640  1.8761  1.1009 -1.9525
  114OSM    C9F11946   4.828   6.511   9.569 -0.1363 -0.3085 -0.5922
  114OSM    H9F11947   4.774   6.606   9.562  3.4790  1.9326 -0.9333
  114OSM   C10F11948   4.924   6.495   9.473 -0.1136 -0.6732 -0.2842
  114OSM   H10F11949   4.949   6.588   9.421  0.3930 -2.2928 -3.2255
  114OSM   C11F11950   5.009   6.374   9.441  0.4606  0.7513  0.1298
  114OSM   H11F11951   4.941   6.290   9.418 -1.5050  2.5299 -0.9221
  114OSM   H11G11952   5.071   6.345   9.529  0.6524 -1.5809 -0.7235
  114OSM   C12F11953   5.103   6.388   9.323 -0.1229  0.0645  0.0082
  114OSM   H12F11954   5.126   6.285   9.290  0.8375  0.4917 -0.6966
  114OSM   H12G11955   5.203   6.433   9.343  1.7791 -2.9399 -1.9835
  114OSM   C13F11956   5.042   6.460   9.198 -0.5465 -0.2334  0.2824
  114OSM   H13F11957   5.027   6.565   9.228 -2.7659 -0.8827  1.6677
  114OSM   H13G11958   4.945   6.410   9.175 -1.0469  0.7457  0.2454
  114OSM   C14F11959   5.137   6.452   9.067 -0.9597  0.0136 -0.0737
  114OSM   H14F11960   5.128   6.355   9.013  1.4019 -0.3650  0.0811
  114OSM   H14G11961   5.232   6.460   9.123 -0.1232 -0.1906 -1.4093
  114OSM   C15F11962   5.133   6.566   8.968  0.2842  0.2534  0.1099
  114OSM   H15F11963   5.117   6.662   9.021 -0.7509 -0.3740  0.9596
  114OSM   H15G11964   5.035   6.549   8.917 -0.6201 -1.5029  2.2872
  114OSM   C16F11965   5.253   6.565   8.869 -0.3156  0.2270 -0.5628
  114OSM   H16F11966   5.235   6.643   8.791 -1.9235 -0.4177 -0.8627
  114OSM   H16G11967   5.257   6.468   8.815 -0.1013  1.0471 -2.0889
  114OSM   C17F11968   5.385   6.592   8.935  0.0888 -0.6200 -0.2480
  114OSM   H17F11969   5.405   6.512   9.010  1.0261 -0.4817 -0.3370
  114OSM   H17G11970   5.379   6.686   8.995  1.0517 -1.4898  1.2911
  114OSM   C18F11971   5.498   6.600   8.832 -0.5850 -0.0328 -0.5273
  114OSM   H18F11972   5.478   6.685   8.763 -0.1095  1.9676  1.6758
  114OSM   H18G11973   5.494   6.506   8.773  0.7758 -0.7826  0.5260
  114OSM   H18H11974   5.594   6.604   8.887 -0.3458 -1.9323 -0.7414
  115OSM      N11975   0.610   5.893  11.081 -0.3345 -0.4060  0.9543
  115OSM    C1511976   0.470   5.834  11.096 -0.5402  0.3192  0.6522
  115OSM   H15A11977   0.406   5.876  11.019 -0.0204 -0.3605 -0.1693
  115OSM   H15B11978   0.425   5.852  11.193 -0.2648 -0.7234  0.9784
  115OSM   H15C11979   0.473   5.731  11.064  3.6334  0.4260  0.2575
  115OSM    C1411980   0.694   5.836  11.191  0.5936  0.0370  1.1394
  115OSM   H14A11981   0.635   5.841  11.282  0.2387 -0.6701  0.9513
  115OSM   H14B11982   0.783   5.897  11.200  1.2787 -0.5142 -1.4033
  115OSM   H14C11983   0.722   5.733  11.178 -0.0906 -0.4096  2.8856
  115OSM    C1311984   0.677   5.846  10.954 -0.1765  0.1586  0.5938
  115OSM   H13A11985   0.608   5.868  10.874  0.2705 -3.6693 -1.0699
  115OSM   H13B11986   0.685   5.738  10.951  0.8610  0.2441 -0.3396
  115OSM   H13C11987   0.767   5.895  10.920 -2.0245  1.3044 -3.1441
  115OSM    C1211988   0.604   6.051  11.078  0.7213  0.0402  0.3040
  115OSM   H12A11989   0.703   6.094  11.071 -0.9142  4.1325 -0.4711
  115OSM   H12B11990   0.570   6.083  11.175  2.4188 -0.5897  1.1584
  115OSM    C1111991   0.521   6.117  10.965  0.0090  0.0648 -0.0703
  115OSM   H11A11992   0.586   6.112  10.875 -0.1201  0.6845 -0.2062
  115OSM   H11B11993   0.514   6.224  10.996  1.4789 -0.0510  0.7948
  115OSM      P11994   0.256   6.132  10.918 -0.4339  0.2567 -0.0644
  115OSM    O1311995   0.152   6.025  10.918 -0.2678  0.0632  0.2705
  115OSM    O1411996   0.238   6.239  11.019 -0.1791 -0.2977  0.0288
  115OSM    O1111997   0.257   6.181  10.764  0.4107 -0.1344  0.6974
  115OSM    O1211998   0.392   6.059  10.944 -0.2536  0.3941  0.2833
  115OSM    C1S11999   0.342   6.289  10.724 -0.7136  0.0437  0.1470
  115OSM    H1S12000   0.434   6.300  10.786 -0.0872  1.1616 -0.9631
  115OSM    H1T12001   0.292   6.388  10.721 -1.0794 -0.1434 -0.0134
  115OSM     NF12002   0.498   6.363  10.540 -0.1140  0.7284  1.3680
  115OSM    HNF12003   0.439   6.442  10.525 -0.4143  0.5572  1.6417
  115OSM    C2S12004   0.402   6.259  10.582 -0.7757  0.6759 -0.5309
  115OSM    H2S12005   0.446   6.160  10.607  0.2947  1.3470  0.2920
  115OSM    C3S12006   0.284   6.236  10.477  0.5269  0.1126  0.2196
  115OSM    H3S12007   0.241   6.337  10.459 -1.1861  0.4939  4.9026
  115OSM     O312008   0.185   6.148  10.520 -0.0048 -0.0590 -0.2015
  115OSM    HO312009   0.183   6.161  10.615  0.2713  1.6445 -0.3849
  115OSM    C4S12010   0.343   6.197  10.338 -0.1543 -0.2608 -0.6082
  115OSM    H4S12011   0.342   6.276  10.262 -1.0320 -0.6110 -0.9766
  115OSM    C5S12012   0.399   6.081  10.312 -0.1417 -0.5444  0.3408
  115OSM    H5S12013   0.400   5.997  10.383  1.9563  1.2026  2.5584
  115OSM    C6S12014   0.468   6.032  10.185 -0.3516  0.3781 -0.0893
  115OSM    H6S12015   0.438   5.925  10.184 -2.2360  0.8644  0.9624
  115OSM    H6T12016   0.578   6.039  10.200 -0.4292  0.6815  0.3322
  115OSM    C7S12017   0.432   6.103  10.047 -1.1931  0.1622  0.4765
  115OSM    H7S12018   0.477   6.205  10.038 -0.7878 -0.2160 -3.4974
  115OSM    H7T12019   0.323   6.115  10.059 -0.8986  1.5444  2.2447
  115OSM    C8S12020   0.475   6.021   9.920 -0.1183 -0.3673 -0.1451
  115OSM    H8S12021   0.423   5.923   9.909  2.4602 -1.6600 -1.8520
  115OSM    H8T12022   0.584   6.018   9.944 -0.1885  1.0805  0.4598
  115OSM    C9S12023   0.460   6.102   9.790  0.4874 -0.3935 -0.3565
  115OSM    H9S12024   0.519   6.196   9.795  0.1682 -0.1954 -0.2554
  115OSM    H9T12025   0.354   6.126   9.768  0.8265  0.5231 -1.0568
  115OSM   C10S12026   0.501   6.021   9.664 -0.4359 -0.2388  0.9826
  115OSM   H10S12027   0.439   5.932   9.642 -0.9102 -0.3334  2.5870
  115OSM   H10T12028   0.608   5.992   9.668 -0.0768  0.8567  0.0049
  115OSM   C11S12029   0.474   6.110   9.536  0.3625  0.0243  0.5401
  115OSM   H11S12030   0.501   6.212   9.569  0.2987 -0.3022  1.6487
  115OSM   H11T12031   0.366   6.099   9.511  0.8971 -0.1946 -1.9601
  115OSM   C12S12032   0.551   6.057   9.414 -0.2983  0.0686  0.2398
  115OSM   H12S12033   0.519   5.951   9.403  0.5574 -0.4155  2.0723
  115OSM   H12T12034   0.661   6.061   9.428 -0.2345 -0.8183  0.0150
  115OSM   C13S12035   0.510   6.139   9.283 -0.6241  0.1360  0.3749
  115OSM   H13S12036   0.549   6.243   9.287  2.0233 -0.7684 -0.2292
  115OSM   H13T12037   0.400   6.154   9.276 -0.6276 -0.1298 -0.2190
  115OSM   C14S12038   0.567   6.081   9.153  0.6046 -0.0916 -0.0913
  115OSM   H14S12039   0.518   5.983   9.137 -0.6894  0.3168  1.0881
  115OSM   H14T12040   0.676   6.066   9.169  0.4585 -3.5011 -1.4102
  115OSM   C15S12041   0.540   6.172   9.038  1.0098 -1.2571  0.1258
  115OSM   H15S12042   0.580   6.275   9.054 -1.0262  0.5530 -4.4825
  115OSM   H15T12043   0.433   6.194   9.021  1.7807  1.1752 -2.4941
  115OSM   C16S12044   0.606   6.111   8.913  0.6791 -0.3570 -0.0686
  115OSM   H16S12045   0.572   6.005   8.915  0.4975 -0.3120 -0.6752
  115OSM   H16T12046   0.713   6.111   8.942  0.9361  1.4964 -0.8628
  115OSM   C17S12047   0.582   6.176   8.777  0.1419 -0.1261 -0.5988
  115OSM   H17S12048   0.476   6.205   8.765  0.0252  1.1828  2.5154
  115OSM   H17T12049   0.586   6.099   8.698  2.0294 -0.4618 -0.2218
  115OSM   C18S12050   0.681   6.283   8.735 -0.5616  0.2534 -0.0691
  115OSM   H18S12051   0.783   6.244   8.754 -0.3333  0.2700 -1.2140
  115OSM   H18T12052   0.670   6.378   8.792  1.7209  0.9059 -0.6277
  115OSM   H18U12053   0.668   6.303   8.626 -0.6249  0.8972  0.0533
  115OSM    C1F12054   0.626   6.377  10.573  0.6739  0.8287 -0.8009
  115OSM     OF12055   0.679   6.289  10.636  0.5029  0.1372 -0.0946
  115OSM    C2F12056   0.681   6.510  10.542 -0.3708 -0.3500  0.0041
  115OSM    H2F12057   0.709   6.571  10.631 -1.2034 -0.1829  0.1603
  115OSM    H2G12058   0.606   6.577  10.496  1.7089  1.2199 -1.3013
  115OSM    C3F12059   0.814   6.495  10.463  0.3303 -0.5988 -0.4067
  115OSM    H3F12060   0.882   6.425  10.516  0.2555 -0.0876  0.3672
  115OSM    H3G12061   0.865   6.593  10.463 -2.0437  0.7071 -0.0024
  115OSM    C4F12062   0.785   6.461  10.315 -1.0501 -0.4014  0.6896
  115OSM    H4F12063   0.715   6.538  10.274 -3.2549 -2.1129  1.0319
  115OSM    H4G12064   0.742   6.358  10.307  1.8329 -1.6324 -0.3034
  115OSM    C5F12065   0.924   6.467  10.241 -0.1598 -0.1085 -0.1496
  115OSM    H5F12066   0.992   6.389  10.281 -0.1093  0.8332  1.7562
  115OSM    H5G12067   0.969   6.566  10.267  1.6646 -0.8425 -0.4189
  115OSM    C6F12068   0.917   6.424  10.089  0.4137  0.4499 -0.2153
  115OSM    H6F12069   0.875   6.322  10.095 -3.0160  1.4450 -3.4600
  115OSM    H6G12070   1.011   6.433  10.031 -1.5012  0.9620 -3.4995
  115OSM    C7F12071   0.815   6.512  10.019  0.2111  0.1254 -0.4194
  115OSM    H7F12072   0.852   6.617  10.023 -0.0721  0.2246 -0.4257
  115OSM    H7G12073   0.717   6.508  10.071 -0.2758 -0.3704 -1.3599
  115OSM    C8F12074   0.802   6.484   9.877  0.0287  0.8461  0.1294
  115OSM    H8F12075   0.711   6.537   9.841  0.0476 -0.2240 -1.6405
  115OSM    H8G12076   0.774   6.376   9.881  1.0880  0.5749  0.5561
  115OSM    C9F12077   0.925   6.517   9.784  0.9299 -0.7264  0.2700
  115OSM    H9F12078   1.014   6.563   9.830  1.3365 -0.1580 -1.0438
  115OSM   C10F12079   0.921   6.494   9.651  0.0029 -0.1869  0.1185
  115OSM   H10F12080   1.017   6.510   9.599  1.2366 -1.8960  1.7176
  115OSM   C11F12081   0.812   6.442   9.562 -0.2096 -0.6746  0.3285
  115OSM   H11F12082   0.726   6.402   9.619 -1.4631  1.6595  0.1646
  115OSM   H11G12083   0.853   6.353   9.508  2.6429  0.4436  0.4649
  115OSM   C12F12084   0.749   6.532   9.449  0.6132 -0.7309  0.3682
  115OSM   H12F12085   0.652   6.488   9.419  1.3774 -1.5365 -1.0274
  115OSM   H12G12086   0.807   6.528   9.354 -3.1764 -0.0324 -2.1646
  115OSM   C13F12087   0.733   6.674   9.477 -0.3609  0.0462  0.6064
  115OSM   H13F12088   0.724   6.737   9.386  0.5960  2.0868  1.8364
  115OSM   H13G12089   0.828   6.703   9.527  0.6464  0.7855 -1.5865
  115OSM   C14F12090   0.620   6.698   9.582 -0.1104  0.3261  1.0156
  115OSM   H14F12091   0.616   6.608   9.647 -0.1162 -1.6667 -1.5817
  115OSM   H14G12092   0.521   6.694   9.534  0.1886  0.6929  0.3594
  115OSM   C15F12093   0.650   6.821   9.668 -0.4519 -0.6570 -1.0644
  115OSM   H15F12094   0.645   6.917   9.613  0.0956 -1.0125 -1.7555
  115OSM   H15G12095   0.755   6.816   9.706 -1.2230  0.9565  1.5867
  115OSM   C16F12096   0.557   6.830   9.789 -0.1927 -0.7046  0.2594
  115OSM   H16F12097   0.554   6.734   9.844  0.1474  0.9419  3.4002
  115OSM   H16G12098   0.454   6.850   9.751  0.2942  0.7760 -0.3765
  115OSM   C17F12099   0.586   6.947   9.882  0.3326  0.2088 -0.2665
  115OSM   H17F12100   0.591   7.041   9.824  1.3652 -1.1928 -2.5953
  115OSM   H17G12101   0.692   6.938   9.917  1.3780  3.1190 -2.2806
  115OSM   C18F12102   0.491   6.964   9.997  0.7221 -0.2698  0.0178
  115OSM   H18F12103   0.505   7.069  10.030  0.8049  0.1455 -1.2910
  115OSM   H18G12104   0.501   6.887  10.077  0.6905  1.7036  2.0345
  115OSM   H18H12105   0.382   6.970   9.972  0.3825  1.3303  1.7011
  116OSM      N12106   4.437   4.076  11.036  0.9081  0.3342  0.4497
  116OSM    C1512107   4.477   4.080  11.179  0.1737 -0.1050  0.0200
  116OSM   H15A12108   4.557   4.153  11.189  0.6672 -0.1945 -2.5283
  116OSM   H15B12109   4.518   3.986  11.213 -0.8132 -0.0257  1.5455
  116OSM   H15C12110   4.396   4.099  11.247 -0.6821 -0.9084 -0.7477
  116OSM    C1412111   4.425   4.208  10.970 -0.2025 -0.0425  0.4563
  116OSM   H14A12112   4.520   4.259  10.964  0.8533 -2.1089 -2.4539
  116OSM   H14B12113   4.367   4.282  11.024 -2.9850 -0.6168 -1.5109
  116OSM   H14C12114   4.385   4.200  10.870  0.0139  3.3951 -0.0278
  116OSM    C1312115   4.537   3.989  10.965  0.4375 -1.0410  0.1058
  116OSM   H13A12116   4.559   3.904  11.027 -2.3704 -2.1451 -0.2566
  116OSM   H13B12117   4.626   4.048  10.949 -1.2216  1.4981 -0.3972
  116OSM   H13C12118   4.489   3.955  10.875  0.3760  0.2065 -0.3599
  116OSM    C1212119   4.303   4.015  11.023  0.2049 -0.0077 -0.2105
  116OSM   H12A12120   4.313   3.908  11.029  1.8109  0.1873  1.9629
  116OSM   H12B12121   4.262   4.034  10.925  0.4001 -1.3451 -0.5652
  116OSM    C1112122   4.190   4.055  11.117 -0.1108 -0.7939 -0.2730
  116OSM   H11A12123   4.138   4.143  11.073  2.1663  0.8411  0.1319
  116OSM   H11B12124   4.222   4.097  11.215 -2.1308  1.8223 -0.6106
  116OSM      P12125   4.000   3.895  11.026 -0.0819 -0.2122 -0.1212
  116OSM    O1312126   3.924   3.773  11.067  0.0932 -0.0303  0.0366
  116OSM    O1412127   3.917   4.015  11.001  0.2883  0.5914 -0.4797
  116OSM    O1112128   4.106   3.858  10.906 -0.1948  0.2285  0.0069
  116OSM    O1212129   4.099   3.940  11.140  0.7601  0.2503  0.2610
  116OSM    C1S12130   4.062   3.823  10.775  0.7528 -0.3290 -0.1443
  116OSM    H1S12131   4.059   3.921  10.722 -0.5239  0.4427  1.2803
  116OSM    H1T12132   3.960   3.779  10.775  0.8694 -0.7029 -2.2274
  116OSM     NF12133   4.112   3.721  10.561 -0.0352  0.0149 -0.9250
  116OSM    HNF12134   4.050   3.644  10.549  0.5786 -0.4227 -1.3204
  116OSM    C2S12135   4.158   3.735  10.700 -0.5422 -0.0828  0.2185
  116OSM    H2S12136   4.257   3.785  10.698 -0.8148  0.4534 -0.3020
  116OSM    C3S12137   4.185   3.601  10.781  0.5905 -0.6745 -1.0996
  116OSM    H3S12138   4.084   3.557  10.791 -0.0908  1.3037  2.5175
  116OSM     O312139   4.216   3.620  10.920  0.0043  0.0522 -0.1757
  116OSM    HO312140   4.183   3.710  10.924  0.0567  0.0455  0.6189
  116OSM    C4S12141   4.289   3.527  10.711 -0.9368  0.3673 -0.1806
  116OSM    H4S12142   4.246   3.463  10.633  0.6372  1.3212 -1.9217
  116OSM    C5S12143   4.422   3.525  10.739 -0.0838  0.2332 -0.3418
  116OSM    H5S12144   4.456   3.587  10.823 -1.5145 -0.7746  1.0604
  116OSM    C6S12145   4.524   3.435  10.673  0.1250 -0.2361 -0.5006
  116OSM    H6S12146   4.558   3.348  10.732  0.8753 -0.0761 -0.6851
  116OSM    H6T12147   4.617   3.494  10.656  0.7226 -0.0461  2.7929
  116OSM    C7S12148   4.490   3.371  10.535  0.0678  0.2308  0.6172
  116OSM    H7S12149   4.470   3.457  10.467 -1.0778  0.2543  0.9480
  116OSM    H7T12150   4.396   3.312  10.543 -1.5079  2.4986 -0.0254
  116OSM    C8S12151   4.601   3.282  10.478  0.4656  0.6851 -0.1623
  116OSM    H8S12152   4.642   3.214  10.555 -1.3492 -0.1602  0.1110
  116OSM    H8T12153   4.683   3.355  10.462 -0.0211  1.2664 -0.0656
  116OSM    C9S12154   4.574   3.218  10.340  0.2878 -0.4682  0.2079
  116OSM    H9S12155   4.488   3.150  10.352  0.5150 -1.0659 -1.3155
  116OSM    H9T12156   4.663   3.160  10.306  0.6824 -0.2301  0.8065
  116OSM   C10S12157   4.548   3.326  10.233  0.6726  0.3382  0.3322
  116OSM   H10S12158   4.601   3.421  10.254  1.1530 -0.0161  0.7663
  116OSM   H10T12159   4.437   3.334  10.225  0.8050  0.6337 -1.6026
  116OSM   C11S12160   4.597   3.264  10.095  0.2356 -0.1760 -0.7563
  116OSM   H11S12161   4.542   3.168  10.090 -1.9952  1.0045 -0.3607
  116OSM   H11T12162   4.706   3.244  10.100  0.0371 -0.9293  1.4171
  116OSM   C12S12163   4.594   3.349   9.970 -0.1418 -0.2682 -0.2109
  116OSM   H12S12164   4.632   3.449  10.000 -2.4576  1.0105 -1.1921
  116OSM   H12T12165   4.491   3.365   9.931 -0.0272  1.4468  0.1175
  116OSM   C13S12166   4.660   3.290   9.844 -0.0989 -0.3254 -0.4793
  116OSM   H13S12167   4.632   3.182   9.850 -3.3363  0.4017 -0.6892
  116OSM   H13T12168   4.770   3.304   9.853 -0.1470  0.5614 -1.1593
  116OSM   C14S12169   4.604   3.355   9.716 -0.2167  0.1619  0.0805
  116OSM   H14S12170   4.620   3.464   9.703 -1.0825  0.5153  1.6979
  116OSM   H14T12171   4.493   3.348   9.715 -0.2106 -0.4255  1.5621
  116OSM   C15S12172   4.642   3.275   9.584 -0.0873 -0.0253 -0.5211
  116OSM   H15S12173   4.609   3.170   9.600  1.9733 -0.7237 -0.5735
  116OSM   H15T12174   4.753   3.281   9.583  0.0389 -1.8264 -0.5628
  116OSM   C16S12175   4.586   3.338   9.458 -0.2027  0.5549  0.2215
  116OSM   H16S12176   4.619   3.445   9.455  0.4611  0.4457  2.0417
  116OSM   H16T12177   4.477   3.344   9.477 -0.2310  1.2590 -0.1110
  116OSM   C17S12178   4.627   3.261   9.332 -0.4351 -0.1409  0.2948
  116OSM   H17S12179   4.596   3.155   9.344  1.0085 -0.5447  0.5934
  116OSM   H17T12180   4.738   3.260   9.328 -0.4484 -2.2206 -0.4465
  116OSM   C18S12181   4.586   3.318   9.193 -0.1875 -0.0984 -0.3795
  116OSM   H18S12182   4.632   3.418   9.179 -2.3024  1.0712  0.6537
  116OSM   H18T12183   4.476   3.334   9.200 -0.1471  1.1008 -2.0691
  116OSM   H18U12184   4.605   3.250   9.107 -2.4881 -0.4407 -0.6837
  116OSM    C1F12185   4.154   3.809  10.469  0.5840  0.2778  0.4828
  116OSM     OF12186   4.226   3.904  10.499 -0.0719  0.0935  0.1613
  116OSM    C2F12187   4.102   3.785  10.330 -0.1436  0.3448 -0.5689
  116OSM    H2F12188   3.994   3.811  10.319 -0.5152 -1.9534 -4.0533
  116OSM    H2G12189   4.106   3.675  10.315 -0.0849  0.0384  1.4475
  116OSM    C3F12190   4.179   3.874  10.231 -0.6200 -0.0604  0.1295
  116OSM    H3F12191   4.281   3.832  10.233  0.1075  1.6463  1.2917
  116OSM    H3G12192   4.174   3.980  10.265  0.1393 -0.0235  0.1427
  116OSM    C4F12193   4.124   3.853  10.086 -0.0948  0.5521  0.1564
  116OSM    H4F12194   4.083   3.952  10.056  1.0459  1.0663  0.2574
  116OSM    H4G12195   4.041   3.782  10.066  0.7012 -0.5147  0.5510
  116OSM    C5F12196   4.241   3.820   9.996 -0.2268  0.6236 -0.0227
  116OSM    H5F12197   4.284   3.721  10.020 -0.3157  0.5131 -0.3175
  116OSM    H5G12198   4.322   3.896  10.009  1.6634 -1.2222 -0.4917
  116OSM    C6F12199   4.197   3.821   9.843 -0.2040 -0.0929  0.3165
  116OSM    H6F12200   4.140   3.913   9.818  0.2356  0.6651  1.9441
  116OSM    H6G12201   4.130   3.737   9.816  0.8019 -0.3238 -1.6277
  116OSM    C7F12202   4.312   3.792   9.747 -0.3491  0.0540 -0.1330
  116OSM    H7F12203   4.380   3.720   9.798  0.6680  1.4199  0.5084
  116OSM    H7G12204   4.374   3.883   9.733  0.2401 -0.3873 -0.4888
  116OSM    C8F12205   4.268   3.729   9.613  0.2577 -1.0746  0.1161
  116OSM    H8F12206   4.224   3.808   9.548 -0.7914  0.3276  2.4077
  116OSM    H8G12207   4.192   3.656   9.646 -0.2972 -0.5056  0.1134
  116OSM    C9F12208   4.382   3.664   9.552 -0.2293 -0.5708  0.0296
  116OSM    H9F12209   4.423   3.588   9.621 -0.0052 -0.0946  0.4345
  116OSM   C10F12210   4.424   3.672   9.425  0.3257  0.2325 -0.3102
  116OSM   H10F12211   4.505   3.604   9.395  0.6351  0.6133 -0.3435
  116OSM   C11F12212   4.367   3.751   9.321  0.5033 -0.7555 -0.2730
  116OSM   H11F12213   4.447   3.808   9.268  0.6176 -0.8787 -0.2318
  116OSM   H11G12214   4.292   3.824   9.358  0.9375 -0.9113  0.9654
  116OSM   C12F12215   4.301   3.662   9.212  0.4125 -0.6292  0.3646
  116OSM   H12F12216   4.217   3.610   9.262  0.6245 -0.7585  0.5848
  116OSM   H12G12217   4.374   3.593   9.165  0.6643  0.9990 -1.8099
  116OSM   C13F12218   4.248   3.739   9.104  0.2039 -0.2331  0.7714
  116OSM   H13F12219   4.173   3.813   9.138 -1.4076 -1.9312  1.0449
  116OSM   H13G12220   4.184   3.670   9.045 -2.7985  0.9953  2.4310
  116OSM   C14F12221   4.355   3.800   9.007  0.3106  0.2609  0.3136
  116OSM   H14F12222   4.447   3.831   9.061  1.3379 -0.8913 -0.6885
  116OSM   H14G12223   4.315   3.885   8.948 -0.8061 -0.0111  0.6518
  116OSM   C15F12224   4.397   3.702   8.896  0.0382  0.4580 -0.7374
  116OSM   H15F12225   4.316   3.638   8.856 -0.7719 -0.3607  1.9899
  116OSM   H15G12226   4.466   3.627   8.941  0.4556  0.9627 -0.5225
  116OSM   C16F12227   4.475   3.760   8.781 -0.4084  0.1492  0.3195
  116OSM   H16F12228   4.568   3.809   8.819  0.5464 -1.4609  0.1637
  116OSM   H16G12229   4.420   3.834   8.719 -0.8790 -0.5737 -0.1326
  116OSM   C17F12230   4.518   3.646   8.681  0.0655  0.1829 -0.1737
  116OSM   H17F12231   4.424   3.590   8.659  0.7120 -0.7223 -0.6592
  116OSM   H17G12232   4.592   3.574   8.723 -1.5657 -0.0171  2.6097
  116OSM   C18F12233   4.571   3.706   8.547 -0.5235  0.4453  0.0065
  116OSM   H18F12234   4.504   3.787   8.512 -0.5543 -0.6815 -2.7463
  116OSM   H18G12235   4.583   3.620   8.479  0.2182 -1.5321  2.4813
  116OSM   H18H12236   4.674   3.746   8.552  0.2586 -1.4846  0.0537
  117OSM      N12237   2.921   3.022  11.038  0.1210  0.2276 -0.0242
  117OSM    C1512238   2.905   2.905  10.951 -0.1987 -0.3820 -0.5535
  117OSM   H15A12239   2.995   2.905  10.890  1.5630 -0.2623  1.9135
  117OSM   H15B12240   2.818   2.923  10.890 -0.4049  2.2171  0.3906
  117OSM   H15C12241   2.906   2.813  11.007 -0.9049  0.5787  1.0935
  117OSM    C1412242   2.821   3.036  11.145 -0.3441  0.5130  0.2024
  117OSM   H14A12243   2.824   3.117  11.217  2.7242 -0.4257  1.2888
  117OSM   H14B12244   2.819   2.947  11.206  3.4750 -0.4789 -0.8401
  117OSM   H14C12245   2.725   3.061  11.103  0.2721  1.3806 -0.7448
  117OSM    C1312246   3.060   3.011  11.099 -0.6390  0.5247  0.2219
  117OSM   H13A12247   3.055   2.939  11.179 -0.4119  1.8779  1.5100
  117OSM   H13B12248   3.091   3.100  11.153 -0.6305  1.2896 -0.9947
  117OSM   H13C12249   3.131   2.985  11.023 -0.3162  1.0580  0.3291
  117OSM    C1212250   2.895   3.142  10.952 -0.2272 -0.4799 -0.5539
  117OSM   H12A12251   2.975   3.153  10.881 -0.6914 -0.3622 -1.0691
  117OSM   H12B12252   2.904   3.235  11.005 -2.8578 -0.5302  0.1118
  117OSM    C1112253   2.764   3.141  10.862 -0.4326  0.0515 -0.2373
  117OSM   H11A12254   2.781   3.070  10.779  0.2812  0.5613 -0.5389
  117OSM   H11B12255   2.759   3.241  10.814  3.6871  1.0333  0.9598
  117OSM      P12256   2.528   3.215  10.974  0.1858  0.2833  0.1830
  117OSM    O1312257   2.430   3.134  11.045 -0.1920  0.0631 -0.4500
  117OSM    O1412258   2.585   3.333  11.045 -0.3296 -0.0837  0.6233
  117OSM    O1112259   2.464   3.262  10.840  0.0819 -0.9195  0.0995
  117OSM    O1212260   2.644   3.116  10.934  0.5507  0.1233  0.2002
  117OSM    C1S12261   2.402   3.171  10.753 -1.0378  0.5563 -0.2456
  117OSM    H1S12262   2.307   3.126  10.792  0.2521 -2.0927  0.0915
  117OSM    H1T12263   2.470   3.086  10.730 -0.2310  1.3709 -0.9277
  117OSM     NF12264   2.304   3.133  10.527 -0.0696  0.0294  0.6074
  117OSM    HNF12265   2.357   3.073  10.468  0.6899  0.2095  1.0919
  117OSM    C2S12266   2.374   3.229  10.609  0.3664  0.1699 -0.6524
  117OSM    H2S12267   2.310   3.318  10.624  2.1488  1.1607  1.8265
  117OSM    C3S12268   2.513   3.290  10.557  0.9704  0.8124 -0.1417
  117OSM    H3S12269   2.586   3.206  10.552  0.4607  0.4218 -1.6237
  117OSM     O312270   2.550   3.401  10.638 -0.3933  0.1091 -0.3273
  117OSM    HO312271   2.505   3.391  10.722  2.0478  0.6459  1.1463
  117OSM    C4S12272   2.506   3.328  10.409  0.3629 -0.0577  0.2561
  117OSM    H4S12273   2.524   3.239  10.346  1.8589 -0.2130  0.8774
  117OSM    C5S12274   2.486   3.447  10.356  0.2628 -0.2855 -0.1536
  117OSM    H5S12275   2.475   3.533  10.424 -4.7846  2.4922 -3.7418
  117OSM    C6S12276   2.480   3.491  10.213 -0.7937 -0.4363  0.1021
  117OSM    H6S12277   2.567   3.554  10.185  0.5340 -2.3532 -0.3079
  117OSM    H6T12278   2.388   3.552  10.202  0.3214  1.0668 -1.4964
  117OSM    C7S12279   2.483   3.371  10.114  0.1003  0.4591  0.4299
  117OSM    H7S12280   2.391   3.310  10.125  0.8714 -0.6420  0.9151
  117OSM    H7T12281   2.574   3.309  10.127 -0.0925 -1.0505 -3.8915
  117OSM    C8S12282   2.494   3.426   9.972  0.3568 -0.6004  0.3905
  117OSM    H8S12283   2.589   3.481   9.954 -0.3253 -0.1598 -2.1482
  117OSM    H8T12284   2.412   3.497   9.948 -0.1229 -2.0898 -2.9025
  117OSM    C9S12285   2.473   3.302   9.887 -0.1162 -0.6348  0.2033
  117OSM    H9S12286   2.386   3.241   9.920 -0.4258 -0.7333 -0.7588
  117OSM    H9T12287   2.568   3.246   9.899  0.9020  0.6184 -1.5367
  117OSM   C10S12288   2.454   3.345   9.738 -0.3258 -0.1910 -0.2617
  117OSM   H10S12289   2.546   3.393   9.698 -1.4181  2.2944 -0.0085
  117OSM   H10T12290   2.372   3.417   9.716 -0.3829 -0.2361 -0.1963
  117OSM   C11S12291   2.425   3.217   9.657  0.0650 -0.3511  0.2460
  117OSM   H11S12292   2.326   3.180   9.692 -0.5714 -0.3676 -1.4459
  117OSM   H11T12293   2.505   3.140   9.659  0.0615 -0.3447  2.2861
  117OSM   C12S12294   2.400   3.239   9.507 -0.5737  0.0174 -0.2665
  117OSM   H12S12295   2.324   3.319   9.499 -2.1956 -1.5351 -0.8242
  117OSM   H12T12296   2.358   3.152   9.453  0.6374 -0.9324  0.2640
  117OSM   C13S12297   2.522   3.292   9.418 -0.5114  0.4190  0.1076
  117OSM   H13S12298   2.600   3.214   9.433 -1.0198  0.0751  1.0755
  117OSM   H13T12299   2.559   3.388   9.459  3.4663  0.2067 -2.4054
  117OSM   C14S12300   2.484   3.301   9.272 -0.2138 -0.5494 -0.2247
  117OSM   H14S12301   2.390   3.361   9.281 -0.0455  0.3136 -3.2752
  117OSM   H14T12302   2.459   3.199   9.237  1.9668  0.2515 -4.9063
  117OSM   C15S12303   2.579   3.356   9.175  0.1980 -0.3463  0.2393
  117OSM   H15S12304   2.679   3.308   9.188 -0.8721 -2.4048  1.2548
  117OSM   H15T12305   2.593   3.461   9.209  1.9675 -0.9254  1.4584
  117OSM   C16S12306   2.545   3.346   9.026  0.6583 -1.2199 -0.8487
  117OSM   H16S12307   2.447   3.397   9.013  0.3500 -1.2555  1.0728
  117OSM   H16T12308   2.516   3.242   8.999 -1.2678 -0.8693 -0.2751
  117OSM   C17S12309   2.646   3.405   8.932  0.3340  1.0743  0.9406
  117OSM   H17S12310   2.730   3.334   8.917  0.2940  1.0768  0.6874
  117OSM   H17T12311   2.679   3.499   8.979  0.4469  0.8207  1.3666
  117OSM   C18S12312   2.567   3.439   8.804 -0.8755 -0.1209  0.2265
  117OSM   H18S12313   2.521   3.345   8.768  1.0288  0.1112 -3.2086
  117OSM   H18T12314   2.647   3.476   8.736 -1.1025  0.0216  0.0382
  117OSM   H18U12315   2.493   3.517   8.831 -0.8199 -0.7926  2.6269
  117OSM    C1F12316   2.176   3.108  10.534  0.8619 -0.6456 -0.4465
  117OSM     OF12317   2.102   3.162  10.621 -0.1651 -0.6834  0.5591
  117OSM    C2F12318   2.126   2.986  10.465 -0.3205 -0.5754 -0.0731
  117OSM    H2F12319   2.047   2.952  10.535 -1.2663  0.1564 -0.7541
  117OSM    H2G12320   2.209   2.914  10.451  3.1408  2.9724  0.4938
  117OSM    C3F12321   2.052   3.021  10.330  0.4896  0.3041 -0.0660
  117OSM    H3F12322   1.952   3.060  10.355  0.8252  0.1495  1.6398
  117OSM    H3G12323   2.023   2.925  10.283 -3.5672  1.9435 -1.2637
  117OSM    C4F12324   2.124   3.113  10.227 -0.3157  0.0026 -0.2066
  117OSM    H4F12325   2.228   3.075  10.223  0.0168  0.3051  3.1527
  117OSM    H4G12326   2.134   3.216  10.268  0.1065 -0.4711  0.9102
  117OSM    C5F12327   2.050   3.108  10.091 -0.3183  0.0615 -0.7963
  117OSM    H5F12328   1.951   3.159  10.096 -0.0614  0.7684 -2.3171
  117OSM    H5G12329   2.036   3.001  10.065 -0.9894 -0.0126 -0.1425
  117OSM    C6F12330   2.127   3.182   9.979  0.3706  0.0031 -0.4818
  117OSM    H6F12331   2.226   3.136   9.958  1.4866  3.1218 -2.9240
  117OSM    H6G12332   2.144   3.290   9.999 -0.6289  0.8106 -3.5274
  117OSM    C7F12333   2.059   3.188   9.841 -0.1871 -0.1352 -0.5199
  117OSM    H7F12334   2.137   3.236   9.778  0.7466  0.3825  0.9610
  117OSM    H7G12335   1.967   3.249   9.845  1.3030  2.2072  1.2687
  117OSM    C8F12336   2.005   3.055   9.779 -0.3931  0.3756 -0.3472
  117OSM    H8F12337   1.950   3.064   9.683  1.6168  0.6704 -1.5211
  117OSM    H8G12338   1.935   3.019   9.858 -0.9295 -1.4972 -1.5846
  117OSM    C9F12339   2.107   2.951   9.757 -0.5202 -0.3909  0.2547
  117OSM    H9F12340   2.213   2.972   9.781 -0.2797  0.9232 -1.7271
  117OSM   C10F12341   2.076   2.835   9.705 -0.1910  0.2837 -0.0034
  117OSM   H10F12342   2.162   2.768   9.690  1.2916  2.1391 -0.0988
  117OSM   C11F12343   1.939   2.782   9.657 -0.4292 -0.7686  0.2222
  117OSM   H11F12344   1.856   2.836   9.709 -2.2516 -3.2994  0.1136
  117OSM   H11G12345   1.925   2.674   9.680 -2.5378 -0.6872 -0.4212
  117OSM   C12F12346   1.928   2.794   9.505  1.0036 -0.6054 -0.0082
  117OSM   H12F12347   2.016   2.746   9.457 -0.1635 -2.3488 -0.5162
  117OSM   H12G12348   1.935   2.900   9.472  0.2372 -0.1980  1.0773
  117OSM   C13F12349   1.798   2.736   9.449 -0.4361  0.1875 -0.4021
  117OSM   H13F12350   1.717   2.797   9.495 -0.5933  1.4758 -2.2853
  117OSM   H13G12351   1.793   2.630   9.482  0.0231 -0.0510 -1.0846
  117OSM   C14F12352   1.781   2.754   9.297  0.2559  0.8748  0.2543
  117OSM   H14F12353   1.865   2.697   9.252 -0.9710 -0.3593 -0.5436
  117OSM   H14G12354   1.786   2.863   9.275  0.6009  0.5121 -1.6835
  117OSM   C15F12355   1.647   2.702   9.239 -0.0508  0.3538 -0.3086
  117OSM   H15F12356   1.566   2.764   9.283  1.7571  1.8562  1.0554
  117OSM   H15G12357   1.634   2.599   9.280 -2.9585  0.6496 -0.2718
  117OSM   C16F12358   1.637   2.696   9.085  0.8069 -0.1871  0.0429
  117OSM   H16F12359   1.723   2.641   9.042  0.8181 -0.5978  0.5991
  117OSM   H16G12360   1.635   2.801   9.048 -1.6680 -0.7218 -1.6043
  117OSM   C17F12361   1.505   2.628   9.044 -0.0755  0.4263  0.4810
  117OSM   H17F12362   1.457   2.681   8.958  0.9885  0.4672 -0.0990
  117OSM   H17G12363   1.433   2.643   9.127  1.9653 -0.9013  2.5911
  117OSM   C18F12364   1.515   2.473   9.016  0.0575 -0.8238 -0.4537
  117OSM   H18F12365   1.411   2.441   8.991 -0.1305  0.4982 -1.4907
  117OSM   H18G12366   1.558   2.422   9.105  1.0198  1.1982  0.3116
  117OSM   H18H12367   1.580   2.457   8.927  1.1235  1.1816 -0.1055
  118OSM      N12368   2.003   4.415  11.087 -0.4681  0.5113 -0.2363
  118OSM    C1512369   2.086   4.512  11.020  0.1313 -0.1178 -0.5356
  118OSM   H15A12370   2.128   4.485  10.924 -1.5442 -2.2846 -0.7320
  118OSM   H15B12371   2.171   4.536  11.082 -0.7891 -0.4186  0.8750
  118OSM   H15C12372   2.040   4.608  11.001  1.1708  0.3991 -0.4779
  118OSM    C1412373   2.079   4.279  11.090  0.3222  0.0391  0.0943
  118OSM   H14A12374   2.133   4.268  10.997 -0.4751  0.3903 -0.4330
  118OSM   H14B12375   2.009   4.200  11.113 -0.3811  0.6441  0.0676
  118OSM   H14C12376   2.154   4.291  11.167 -0.9530 -0.4876  1.4679
  118OSM    C1312377   1.977   4.472  11.231 -0.4537 -0.8072 -0.4547
  118OSM   H13A12378   2.071   4.471  11.284 -1.0631  0.7210  0.7220
  118OSM   H13B12379   1.904   4.409  11.280 -0.0426  0.6414  2.1892
  118OSM   H13C12380   1.937   4.572  11.234  0.0564 -0.5955  2.6323
  118OSM    C1212381   1.882   4.394  11.013  1.4451  0.4479 -0.0064
  118OSM   H12A12382   1.808   4.335  11.066  1.4909  1.7588  1.5802
  118OSM   H12B12383   1.902   4.339  10.923 -0.2068  1.3617 -0.9873
  118OSM    C1112384   1.802   4.521  10.968  0.1099 -0.1693  0.0578
  118OSM   H11A12385   1.709   4.484  10.920  1.4920 -3.1256 -0.6007
  118OSM   H11B12386   1.857   4.581  10.893 -0.4807  0.6534  0.2748
  118OSM      P12387   1.729   4.743  11.070 -0.6741  0.2363 -0.2288
  118OSM    O1312388   1.629   4.778  11.172 -0.5354 -0.1368  0.5292
  118OSM    O1412389   1.855   4.823  11.063 -0.0548  0.2398 -0.1623
  118OSM    O1112390   1.656   4.749  10.929 -0.1451  0.3998  0.1551
  118OSM    O1212391   1.764   4.589  11.086  0.0720  0.3918 -0.4992
  118OSM    C1S12392   1.722   4.839  10.836  0.0968  0.1559 -0.3282
  118OSM    H1S12393   1.823   4.801  10.809  0.0223 -1.0870  0.9943
  118OSM    H1T12394   1.742   4.934  10.890  1.8766 -1.2469  1.6796
  118OSM     NF12395   1.715   4.945  10.609  0.5775 -0.2922 -0.2164
  118OSM    HNF12396   1.694   5.042  10.600  2.1139  0.0457 -0.3674
  118OSM    C2S12397   1.649   4.860  10.700 -0.7537 -0.1790 -0.4743
  118OSM    H2S12398   1.643   4.754  10.670  0.5257 -1.7997  4.1752
  118OSM    C3S12399   1.507   4.903  10.717  0.0766 -0.9156  0.7480
  118OSM    H3S12400   1.500   5.003  10.764 -0.3876 -0.7779  0.3973
  118OSM     O312401   1.435   4.826  10.810  0.0371  0.3989 -0.4907
  118OSM    HO312402   1.506   4.801  10.870 -0.5451 -0.0463  0.0175
  118OSM    C4S12403   1.429   4.895  10.584 -0.3434 -0.4175  0.6259
  118OSM    H4S12404   1.399   4.796  10.547 -1.8171  0.6225 -1.1016
  118OSM    C5S12405   1.424   4.999  10.500 -0.4365 -0.5392  0.8028
  118OSM    H5S12406   1.474   5.094  10.523  1.7039 -1.5722  0.6057
  118OSM    C6S12407   1.358   5.000  10.365 -0.4026  0.3913  0.7867
  118OSM    H6S12408   1.301   5.094  10.348  0.9147  1.6004  2.5819
  118OSM    H6T12409   1.284   4.918  10.362 -0.2829  0.1998  2.0923
  118OSM    C7S12410   1.455   4.991  10.252  0.5125  0.6563 -0.7826
  118OSM    H7S12411   1.525   4.905  10.260  0.5738  0.6620 -1.2788
  118OSM    H7T12412   1.520   5.081  10.258  0.7207  0.4220  1.3829
  118OSM    C8S12413   1.398   4.995  10.113  0.3167  0.3259  0.6414
  118OSM    H8S12414   1.330   5.082  10.102 -0.2128 -0.2912 -1.1629
  118OSM    H8T12415   1.344   4.900  10.100  0.1817  0.5344 -0.3868
  118OSM    C9S12416   1.505   5.008  10.004 -0.0459 -0.7654 -0.4358
  118OSM    H9S12417   1.556   4.910   9.991 -3.4653 -2.4554 -2.7560
  118OSM    H9T12418   1.588   5.075  10.033 -0.0427 -0.7801 -0.4119
  118OSM   C10S12419   1.446   5.067   9.872 -0.0769 -0.3810  0.0821
  118OSM   H10S12420   1.412   5.171   9.893 -1.4792 -0.7602 -0.1717
  118OSM   H10T12421   1.362   4.997   9.852  1.0332 -0.8939 -3.4746
  118OSM   C11S12422   1.533   5.078   9.740 -0.2290  0.0050 -0.4721
  118OSM   H11S12423   1.595   5.170   9.743  1.3064 -1.0183  0.8955
  118OSM   H11T12424   1.464   5.092   9.654 -0.1457 -1.7824 -0.8755
  118OSM   C12S12425   1.620   4.963   9.701 -0.0128  0.6404 -0.1615
  118OSM   H12S12426   1.582   4.859   9.714  0.8832  0.0948 -1.6280
  118OSM   H12T12427   1.703   4.970   9.773 -0.7924 -0.4398  0.8864
  118OSM   C13S12428   1.667   4.957   9.552  0.1606 -0.4213  0.0546
  118OSM   H13S12429   1.574   4.975   9.494  0.3426  0.3311 -0.0154
  118OSM   H13T12430   1.707   4.855   9.532  1.2164 -0.5206  2.3900
  118OSM   C14S12431   1.788   5.045   9.518  0.0476  0.6060 -0.1557
  118OSM   H14S12432   1.871   5.018   9.587  0.4440  0.1757 -0.7785
  118OSM   H14T12433   1.758   5.149   9.542 -1.0596  0.5263 -1.1018
  118OSM   C15S12434   1.849   5.030   9.370 -0.2806  0.3770 -0.0413
  118OSM   H15S12435   1.901   4.932   9.365 -0.4414  0.3346 -1.3576
  118OSM   H15T12436   1.926   5.108   9.355  1.8413 -1.5961 -0.0267
  118OSM   C16S12437   1.747   5.037   9.253  0.0125 -0.5782 -0.2237
  118OSM   H16S12438   1.697   5.135   9.269  0.9800 -0.0277 -0.4824
  118OSM   H16T12439   1.671   4.958   9.271 -0.5908 -0.0080 -0.2371
  118OSM   C17S12440   1.809   5.029   9.116 -0.3781 -0.0578 -0.3956
  118OSM   H17S12441   1.903   5.089   9.108 -1.4716  1.7769 -0.0385
  118OSM   H17T12442   1.739   5.073   9.042  0.0369  3.0228  0.9028
  118OSM   C18S12443   1.847   4.883   9.072  0.1829 -0.6654  0.5138
  118OSM   H18S12444   1.754   4.825   9.052  0.8902 -1.0801 -1.8190
  118OSM   H18T12445   1.911   4.828   9.145  1.5476 -0.7908 -0.7312
  118OSM   H18U12446   1.902   4.886   8.976 -1.3035  0.0228 -0.3423
  118OSM    C1F12447   1.833   4.906  10.558 -0.3153  0.4403 -0.7601
  118OSM     OF12448   1.861   4.790  10.575 -0.1789 -0.3798  0.0776
  118OSM    C2F12449   1.923   5.009  10.496 -0.0166  0.9011  1.0054
  118OSM    H2F12450   2.011   5.020  10.563  1.8654  1.1430 -1.3582
  118OSM    H2G12451   1.879   5.111  10.492 -0.8490  0.5284 -0.0682
  118OSM    C3F12452   1.965   4.955  10.356 -0.1906  0.4839 -0.4181
  118OSM    H3F12453   1.880   4.902  10.307 -0.5967 -0.2769  1.0492
  118OSM    H3G12454   2.048   4.882  10.364 -0.0612  0.8109  1.7412
  118OSM    C4F12455   2.005   5.062  10.256 -0.0210 -0.1519 -0.2745
  118OSM    H4F12456   2.114   5.053  10.237 -0.0268 -0.3424 -0.2170
  118OSM    H4G12457   1.997   5.158  10.311  0.9858  0.3904 -1.0394
  118OSM    C5F12458   1.929   5.053  10.122  0.1828  0.3215 -0.4278
  118OSM    H5F12459   1.973   5.122  10.048  0.2106  0.9307  0.1534
  118OSM    H5G12460   1.820   5.071  10.130  0.1695  0.6966 -1.3625
  118OSM    C6F12461   1.952   4.918  10.064  0.1546 -0.7193  0.0487
  118OSM    H6F12462   1.946   4.836  10.139  0.4855 -0.5033  0.3122
  118OSM    H6G12463   2.060   4.919  10.040  0.0071  0.7998 -0.6727
  118OSM    C7F12464   1.890   4.876   9.935  0.2488 -0.1967  0.1291
  118OSM    H7F12465   1.940   4.939   9.858 -3.3419  3.5764  0.5367
  118OSM    H7G12466   1.784   4.909   9.938  0.1194 -0.4758 -0.9687
  118OSM    C8F12467   1.904   4.734   9.891 -0.0108 -0.4476  0.4189
  118OSM    H8F12468   1.842   4.725   9.799 -2.3447 -0.5819  1.9144
  118OSM    H8G12469   1.845   4.681   9.970 -3.7253 -1.0616 -2.4534
  118OSM    C9F12470   2.040   4.680   9.879 -0.1786  0.1537  0.6212
  118OSM    H9F12471   2.075   4.637   9.975 -0.4537 -2.7050 -0.4587
  118OSM   C10F12472   2.112   4.660   9.773  0.3976  0.2261 -0.8495
  118OSM   H10F12473   2.199   4.594   9.781 -0.2319 -0.5226  0.0469
  118OSM   C11F12474   2.073   4.699   9.633  0.2165  0.7089  0.2670
  118OSM   H11F12475   2.170   4.692   9.580 -1.0247 -1.2556 -1.8824
  118OSM   H11G12476   2.020   4.797   9.634 -0.3221  0.4268  1.2141
  118OSM   C12F12477   1.979   4.597   9.563  0.4178 -0.0511  0.5812
  118OSM   H12F12478   1.895   4.595   9.636 -0.3708 -0.4904 -0.3144
  118OSM   H12G12479   2.013   4.492   9.551 -2.4169 -0.7841 -2.1946
  118OSM   C13F12480   1.928   4.644   9.428 -1.0922 -0.4197 -0.7725
  118OSM   H13F12481   2.019   4.680   9.375 -0.5301 -0.1558  0.3471
  118OSM   H13G12482   1.863   4.729   9.457  0.6693  0.1317  1.9205
  118OSM   C14F12483   1.852   4.536   9.367  0.1150 -0.4298  0.5240
  118OSM   H14F12484   1.772   4.493   9.431 -2.6622  1.2067 -1.6073
  118OSM   H14G12485   1.907   4.444   9.337  0.4186  0.3476 -1.4521
  118OSM   C15F12486   1.796   4.583   9.231 -0.3384  0.0893 -0.1537
  118OSM   H15F12487   1.875   4.600   9.155 -1.1016 -1.2252 -1.2936
  118OSM   H15G12488   1.740   4.679   9.244  2.3222  1.7587 -0.3535
  118OSM   C16F12489   1.702   4.480   9.175 -0.8888 -0.4847 -0.7394
  118OSM   H16F12490   1.648   4.428   9.257  0.9069 -0.4229  0.5302
  118OSM   H16G12491   1.769   4.398   9.141  1.0531  1.4158 -1.7142
  118OSM   C17F12492   1.607   4.536   9.069  0.4863 -0.2136  0.6242
  118OSM   H17F12493   1.657   4.595   8.990 -2.2076  0.9809 -0.3180
  118OSM   H17G12494   1.537   4.610   9.113 -0.8032  0.0129 -1.6312
  118OSM   C18F12495   1.520   4.436   9.005  0.7253  0.5035 -0.1835
  118OSM   H18F12496   1.565   4.370   8.928 -1.3200 -0.7029 -0.4222
  118OSM   H18G12497   1.431   4.483   8.956 -0.1789 -0.7394  0.2333
  118OSM   H18H12498   1.472   4.370   9.080 -1.9244  1.9036 -0.5134
  119OSM      N12499   2.198   5.158  11.235 -0.9500  0.4974 -0.1033
  119OSM    C1512500   2.206   5.032  11.156 -0.5341 -0.1868  0.5243
  119OSM   H15A12501   2.306   4.990  11.148 -1.1643 -1.6904  0.3498
  119OSM   H15B12502   2.168   5.036  11.056 -1.3356  1.4106  0.8674
  119OSM   H15C12503   2.163   4.957  11.221 -2.6569 -0.5589 -1.2213
  119OSM    C1412504   2.061   5.211  11.236 -0.6349 -0.3610 -0.3339
  119OSM   H14A12505   1.994   5.155  11.299 -0.2134 -1.0247 -0.4700
  119OSM   H14B12506   2.017   5.209  11.138  0.5411 -1.0014 -0.8732
  119OSM   H14C12507   2.058   5.315  11.268 -1.2013 -0.3857 -0.3127
  119OSM    C1312508   2.245   5.129  11.380  0.2392 -0.3546  0.1546
  119OSM   H13A12509   2.235   5.224  11.430  0.3360  1.2376 -2.6149
  119OSM   H13B12510   2.350   5.109  11.391  0.3629  1.0964  2.0370
  119OSM   H13C12511   2.176   5.061  11.427  0.3138  0.0831  0.9132
  119OSM    C1212512   2.280   5.268  11.173 -0.0330 -0.0228  0.0240
  119OSM   H12A12513   2.386   5.250  11.164  0.2101  2.0793 -2.6687
  119OSM   H12B12514   2.282   5.351  11.242 -1.1448 -0.5299  0.6943
  119OSM    C1112515   2.238   5.306  11.027  0.6039 -0.5966  0.0125
  119OSM   H11A12516   2.133   5.342  11.024  1.2889  1.5108 -3.7089
  119OSM   H11B12517   2.240   5.222  10.954 -1.2172 -0.0631 -0.7076
  119OSM      P12518   2.464   5.372  10.918  0.0623 -0.1206  0.4842
  119OSM    O1312519   2.554   5.488  10.907  0.5511 -0.3946 -0.4212
  119OSM    O1412520   2.530   5.261  10.996 -0.0521  0.5053  0.5171
  119OSM    O1112521   2.440   5.332  10.770  0.0666  0.2231  0.2469
  119OSM    O1212522   2.324   5.416  10.971  0.9336 -0.1115  0.0319
  119OSM    C1S12523   2.542   5.336  10.664 -0.2929  0.2132 -0.2612
  119OSM    H1S12524   2.645   5.349  10.702 -1.1556  1.0246  1.9391
  119OSM    H1T12525   2.522   5.420  10.593  0.8756  1.2965  0.6603
  119OSM     NF12526   2.663   5.208  10.489  0.1100  0.2245 -0.1439
  119OSM    HNF12527   2.655   5.208  10.389 -1.7715 -2.3262 -0.0856
  119OSM    C2S12528   2.548   5.209  10.573  0.4322 -0.5345 -0.3794
  119OSM    H2S12529   2.546   5.119  10.638 -0.4869  0.4845  1.0694
  119OSM    C3S12530   2.406   5.206  10.491 -0.1807  1.1396 -0.8909
  119OSM    H3S12531   2.410   5.299  10.431 -1.0122  1.1122 -0.9899
  119OSM     O312532   2.289   5.203  10.574  0.1430  0.4136  0.4673
  119OSM    HO312533   2.320   5.228  10.661 -1.5036  0.9055  0.9480
  119OSM    C4S12534   2.407   5.089  10.388  0.4230  0.1775 -0.4469
  119OSM    H4S12535   2.460   5.116  10.296 -3.2837  2.4244 -2.1344
  119OSM    C5S12536   2.346   4.970  10.404 -0.2801 -0.6352 -0.2993
  119OSM    H5S12537   2.293   4.949  10.498 -0.7949  0.3045 -0.3707
  119OSM    C6S12538   2.344   4.862  10.294  0.2970 -0.0299 -0.0338
  119OSM    H6S12539   2.238   4.836  10.272 -0.0992  1.7827 -0.3765
  119OSM    H6T12540   2.386   4.767  10.334 -0.2420  0.1428  0.9858
  119OSM    C7S12541   2.411   4.884  10.164  0.4723  0.1505  0.6882
  119OSM    H7S12542   2.519   4.902  10.181  0.6526 -0.7001  0.4859
  119OSM    H7T12543   2.357   4.969  10.118 -0.1694 -0.3214  0.5551
  119OSM    C8S12544   2.394   4.765  10.072 -0.4416  0.5394  0.1221
  119OSM    H8S12545   2.285   4.751  10.057 -0.0513  0.2239 -3.3908
  119OSM    H8T12546   2.436   4.671  10.114 -0.2504 -0.1520 -1.5054
  119OSM    C9S12547   2.455   4.782   9.932 -0.1592 -0.2369  0.0738
  119OSM    H9S12548   2.548   4.839   9.952 -0.6383  0.1219  1.3503
  119OSM    H9T12549   2.382   4.845   9.877 -1.5092 -0.7181  1.2585
  119OSM   C10S12550   2.481   4.650   9.865 -0.0889  0.1874 -0.3855
  119OSM   H10S12551   2.378   4.609   9.866  0.2098 -0.5688  0.2874
  119OSM   H10T12552   2.553   4.591   9.927 -1.9991 -0.7399  1.0526
  119OSM   C11S12553   2.521   4.668   9.718 -0.0199  0.3753  0.6933
  119OSM   H11S12554   2.605   4.741   9.707 -1.6265  2.1085 -0.6814
  119OSM   H11T12555   2.440   4.723   9.667  1.5121  2.7833  0.6763
  119OSM   C12S12556   2.553   4.541   9.639  0.4609  0.3993 -0.1597
  119OSM   H12S12557   2.497   4.447   9.661 -0.8294  0.2704 -3.4239
  119OSM   H12T12558   2.662   4.533   9.656  0.4949  1.1664 -0.0053
  119OSM   C13S12559   2.542   4.561   9.488 -0.2896  0.5460  0.3062
  119OSM   H13S12560   2.607   4.647   9.460  0.8407 -0.0918  0.8651
  119OSM   H13T12561   2.438   4.588   9.463 -0.0478  2.3029  1.0580
  119OSM   C14S12562   2.582   4.434   9.408 -0.3502 -0.4509 -0.5578
  119OSM   H14S12563   2.504   4.358   9.429 -3.3314  2.3307 -0.6695
  119OSM   H14T12564   2.672   4.396   9.461 -2.2389 -1.4963  2.1233
  119OSM   C15S12565   2.596   4.459   9.259  0.1758 -1.0427  1.1325
  119OSM   H15S12566   2.689   4.519   9.260 -0.6643  0.3105  2.3442
  119OSM   H15T12567   2.504   4.509   9.222  1.0503 -0.5229 -0.4621
  119OSM   C16S12568   2.612   4.333   9.180  0.1065 -1.1350 -0.0678
  119OSM   H16S12569   2.536   4.260   9.217  0.3154 -2.3222 -1.8697
  119OSM   H16T12570   2.708   4.279   9.191 -0.1776 -1.5463  0.4776
  119OSM   C17S12571   2.589   4.367   9.032 -0.0979  0.2327  0.2226
  119OSM   H17S12572   2.657   4.452   9.007  0.8854  0.1179  2.2787
  119OSM   H17T12573   2.489   4.415   9.033 -1.2176 -2.0026  0.6600
  119OSM   C18S12574   2.580   4.248   8.929 -0.1945 -0.2463  0.0366
  119OSM   H18S12575   2.667   4.179   8.926  1.2016  1.4565 -0.1360
  119OSM   H18T12576   2.545   4.277   8.828 -0.6032  1.0761  0.5391
  119OSM   H18U12577   2.506   4.175   8.969 -1.3985  0.2048 -1.2899
  119OSM    C1F12578   2.790   5.201  10.525 -0.3090 -0.5695  0.4476
  119OSM     OF12579   2.832   5.229  10.635 -0.1993  0.0779  0.8491
  119OSM    C2F12580   2.884   5.169  10.407  0.2560  0.4203  0.2193
  119OSM    H2F12581   2.965   5.102  10.444 -1.3022 -1.4881  0.3168
  119OSM    H2G12582   2.927   5.261  10.362 -1.7508  1.6498  0.6831
  119OSM    C3F12583   2.823   5.076  10.299  0.3050  0.2176 -0.1113
  119OSM    H3F12584   2.733   5.120  10.250  1.0693  1.7553 -0.1810
  119OSM    H3G12585   2.785   4.982  10.344  0.0965  1.1024  1.6320
  119OSM    C4F12586   2.917   5.034  10.190  0.2752 -0.4790  0.9240
  119OSM    H4F12587   2.993   4.968  10.235 -1.7602 -3.2723  0.5151
  119OSM    H4G12588   2.956   5.128  10.146 -1.5619 -1.3269 -2.9844
  119OSM    C5F12589   2.846   4.955  10.084 -0.2586 -0.0338  0.1831
  119OSM    H5F12590   2.736   4.963  10.094 -0.4714 -0.6788 -1.3384
  119OSM    H5G12591   2.872   4.847  10.084 -0.3135 -0.0468  0.4222
  119OSM    C6F12592   2.888   5.008   9.951 -0.6061 -0.0329  0.0562
  119OSM    H6F12593   2.998   4.990   9.942 -0.4917 -0.0535  1.3454
  119OSM    H6G12594   2.874   5.118   9.945 -1.1974 -0.0773  0.5415
  119OSM    C7F12595   2.805   4.950   9.839 -0.2045  0.1938 -0.2432
  119OSM    H7F12596   2.700   4.979   9.859 -0.2659 -1.2479  1.8727
  119OSM    H7G12597   2.813   4.840   9.857 -0.4297  0.1336 -0.5115
  119OSM    C8F12598   2.847   4.999   9.696 -0.4761  0.2099  0.5844
  119OSM    H8F12599   2.860   5.108   9.708 -1.5193  0.3391  0.6692
  119OSM    H8G12600   2.761   4.996   9.625  0.9181 -3.2446 -1.2016
  119OSM    C9F12601   2.970   4.939   9.631 -0.5874 -0.0173 -0.3168
  119OSM    H9F12602   3.044   4.915   9.708 -1.7825 -2.3882  0.1860
  119OSM   C10F12603   2.988   4.913   9.506 -0.0989  0.4245  0.1662
  119OSM   H10F12604   3.086   4.871   9.480 -0.0792  0.4041  0.2696
  119OSM   C11F12605   2.901   4.934   9.382 -0.1114 -0.0100  0.2050
  119OSM   H11F12606   2.916   5.039   9.347 -0.9870  0.7619  2.0245
  119OSM   H11G12607   2.796   4.918   9.416 -0.3099 -3.2347 -1.5784
  119OSM   C12F12608   2.921   4.826   9.266 -0.0172 -0.1399  0.4343
  119OSM   H12F12609   2.905   4.723   9.303 -0.1791 -1.6327 -3.3205
  119OSM   H12G12610   3.029   4.830   9.240  0.2752  2.9936  1.6375
  119OSM   C13F12611   2.826   4.830   9.148 -0.5682 -0.6376  0.1927
  119OSM   H13F12612   2.803   4.935   9.119 -1.6213 -0.0743  2.7684
  119OSM   H13G12613   2.724   4.790   9.168 -0.7747 -0.1658  0.1009
  119OSM   C14F12614   2.877   4.755   9.025 -0.5204  0.3760  0.0978
  119OSM   H14F12615   2.921   4.655   9.046 -0.1156  0.4853 -0.2218
  119OSM   H14G12616   2.965   4.807   8.982 -0.1817  0.0679  0.4063
  119OSM   C15F12617   2.773   4.747   8.913 -0.8058  0.1335  0.5781
  119OSM   H15F12618   2.684   4.692   8.949 -1.9177  1.5552  0.1095
  119OSM   H15G12619   2.819   4.703   8.822 -0.1932  0.4264  0.7406
  119OSM   C16F12620   2.717   4.879   8.868 -0.0100  0.1930  0.2357
  119OSM   H16F12621   2.805   4.945   8.855  1.0150 -1.2660 -0.5069
  119OSM   H16G12622   2.647   4.925   8.942  1.0924  0.5002  1.1057
  119OSM   C17F12623   2.645   4.861   8.727  0.4551 -0.5028  0.1820
  119OSM   H17F12624   2.562   4.786   8.730 -0.4881  0.5359  0.6233
  119OSM   H17G12625   2.711   4.823   8.646  1.7503  0.9489  0.5182
  119OSM   C18F12626   2.596   4.998   8.691 -0.5581 -0.6506  0.6199
  119OSM   H18F12627   2.569   5.062   8.778 -0.9093 -0.4271  0.3510
  119OSM   H18G12628   2.500   4.992   8.634 -0.7529  1.5643  0.6255
  119OSM   H18H12629   2.678   5.052   8.640 -0.9345 -0.0133  0.6776
  120OSM      N12630   2.983   0.503  10.781 -0.1678 -0.1068 -0.0527
  120OSM    C1512631   3.082   0.423  10.853  0.1571  0.1247 -0.4055
  120OSM   H15A12632   3.127   0.354  10.782 -1.4920 -1.7966  0.3136
  120OSM   H15B12633   3.037   0.367  10.934  1.8008  1.8927  1.8412
  120OSM   H15C12634   3.149   0.492  10.900  0.3437 -0.6834  0.5386
  120OSM    C1412635   2.886   0.399  10.731  0.5054 -0.0681 -0.1322
  120OSM   H14A12636   2.802   0.447  10.683  1.1431  0.7886 -0.4147
  120OSM   H14B12637   2.840   0.341  10.809 -0.6605  0.8661 -0.1030
  120OSM   H14C12638   2.931   0.337  10.655  0.9782  0.3508 -0.1998
  120OSM    C1312639   2.902   0.598  10.868  0.1730  0.4828 -0.1610
  120OSM   H13A12640   2.821   0.645  10.813 -1.7001 -0.6545  1.4772
  120OSM   H13B12641   2.955   0.677  10.919 -0.1037 -0.3187  1.4164
  120OSM   H13C12642   2.861   0.532  10.943 -0.0851 -0.4490 -1.0904
  120OSM    C1212643   3.050   0.585  10.671  0.2561  0.6612 -0.6406
  120OSM   H12A12644   3.093   0.514  10.602 -0.6499 -0.4569 -0.0862
  120OSM   H12B12645   3.126   0.654  10.704  0.8613 -0.3832  0.2185
  120OSM    C1112646   2.955   0.660  10.573  0.1667 -0.3984 -0.2685
  120OSM   H11A12647   2.876   0.592  10.534 -0.9865  0.7996 -0.1203
  120OSM   H11B12648   3.012   0.686  10.482  0.6558 -0.6562 -0.0439
  120OSM      P12649   2.968   0.916  10.643  0.0707 -0.3611  0.1933
  120OSM    O1312650   2.870   1.023  10.684  0.4887  0.0424  0.1374
  120OSM    O1412651   3.091   0.888  10.726  0.5563  0.1628  0.7289
  120OSM    O1112652   3.014   0.939  10.491 -0.4799  0.7755  0.1057
  120OSM    O1212653   2.890   0.780  10.628  1.2161  0.0148  0.0202
  120OSM    C1S12654   3.152   0.979  10.471 -0.2743 -0.7994 -0.3154
  120OSM    H1S12655   3.228   0.910  10.515  3.5126  2.4026 -1.2846
  120OSM    H1T12656   3.171   1.074  10.525 -0.2540 -2.2426  2.3993
  120OSM     NF12657   3.325   0.990  10.300 -0.6062 -0.2420  0.7034
  120OSM    HNF12658   3.377   1.073  10.312 -0.0162 -0.5367  0.1830
  120OSM    C2S12659   3.180   1.005  10.319 -0.3862 -0.3097  0.7627
  120OSM    H2S12660   3.124   0.926  10.266  1.3052 -0.0855 -1.5261
  120OSM    C3S12661   3.116   1.143  10.282 -0.9976  0.1113 -0.3864
  120OSM    H3S12662   3.171   1.224  10.334 -0.6203 -0.0802 -0.4808
  120OSM     O312663   2.980   1.159  10.318  0.0819 -0.6511 -0.1360
  120OSM    HO312664   2.960   1.080  10.369 -2.5392  1.0810  1.7905
  120OSM    C4S12665   3.123   1.168  10.134 -0.2515 -0.2732 -0.6021
  120OSM    H4S12666   3.055   1.113  10.068 -0.3085  0.3896 -1.1104
  120OSM    C5S12667   3.200   1.265  10.078 -0.3914 -1.0296  0.1110
  120OSM    H5S12668   3.252   1.331  10.150  0.2037 -3.0510  1.6188
  120OSM    C6S12669   3.212   1.299   9.933  0.2316  0.1941  0.2458
  120OSM    H6S12670   3.319   1.304   9.901  0.2363  2.5540  0.4640
  120OSM    H6T12671   3.180   1.402   9.906  1.0220  0.4078  0.0981
  120OSM    C7S12672   3.146   1.196   9.838 -0.5411  0.4755 -0.0671
  120OSM    H7S12673   3.178   1.092   9.861  1.7780  1.5094  1.7556
  120OSM    H7T12674   3.186   1.217   9.736 -1.0397 -1.2547 -0.6594
  120OSM    C8S12675   2.992   1.204   9.813  0.3799 -0.3214 -0.2818
  120OSM    H8S12676   2.988   1.308   9.774 -0.0385 -0.2411 -0.0292
  120OSM    H8T12677   2.945   1.198   9.914  1.0080 -1.0118 -0.0276
  120OSM    C9S12678   2.929   1.099   9.718  0.3709 -0.5800  0.3384
  120OSM    H9S12679   2.819   1.092   9.727  0.4165 -0.0344  1.4941
  120OSM    H9T12680   2.968   0.999   9.748 -1.4444 -1.3118  0.3830
  120OSM   C10S12681   2.968   1.114   9.570 -0.1574  0.3599 -0.6478
  120OSM   H10S12682   3.078   1.099   9.574  0.0804  2.1301  1.5888
  120OSM   H10T12683   2.943   1.216   9.533 -0.1408  0.1151 -1.3424
  120OSM   C11S12684   2.896   1.015   9.478  0.8275 -0.1022  0.1392
  120OSM   H11S12685   2.785   1.020   9.485  0.7667 -1.1881  0.1367
  120OSM   H11T12686   2.916   0.906   9.488  2.1053  0.0187 -0.8583
  120OSM   C12S12687   2.913   1.045   9.327 -0.9495 -0.6639  0.2651
  120OSM   H12S12688   3.016   1.013   9.302 -1.3651 -1.0056 -1.0832
  120OSM   H12T12689   2.895   1.150   9.296 -1.7615 -0.5441  1.1031
  120OSM   C13S12690   2.825   0.955   9.241 -0.4122 -0.1738 -0.3990
  120OSM   H13S12691   2.731   0.943   9.297 -0.0595 -0.6519  0.0978
  120OSM   H13T12692   2.862   0.853   9.217 -1.0648 -0.5626  0.2215
  120OSM   C14S12693   2.788   1.023   9.106  0.6915  0.4698 -0.5341
  120OSM   H14S12694   2.885   1.030   9.051  0.5357 -0.9974 -1.0539
  120OSM   H14T12695   2.750   1.125   9.127 -1.1026 -0.1399 -0.6678
  120OSM   C15S12696   2.679   0.952   9.028  0.1692  0.2934  0.0257
  120OSM   H15S12697   2.605   0.905   9.095  0.1321 -0.2167 -0.3664
  120OSM   H15T12698   2.717   0.876   8.957 -0.0910 -1.6941  1.9140
  120OSM   C16S12699   2.602   1.054   8.944 -1.1028 -1.0947 -0.5613
  120OSM   H16S12700   2.677   1.116   8.889  0.6778 -3.5313 -1.0623
  120OSM   H16T12701   2.549   1.129   9.005  0.0695 -0.4176 -0.3346
  120OSM   C17S12702   2.514   0.995   8.839 -0.6799 -0.8853 -0.5707
  120OSM   H17S12703   2.441   0.926   8.887 -0.8885  0.8202  1.7075
  120OSM   H17T12704   2.576   0.937   8.766 -0.9343 -0.0052 -1.5115
  120OSM   C18S12705   2.450   1.106   8.751 -0.1004  0.3412 -0.3237
  120OSM   H18S12706   2.532   1.146   8.688  0.9623 -0.0532  0.7823
  120OSM   H18T12707   2.425   1.182   8.828 -1.1866 -0.5059  0.1863
  120OSM   H18U12708   2.361   1.078   8.690  0.3685 -2.4420  0.1678
  120OSM    C1F12709   3.385   0.869  10.311 -0.3017  0.4156 -0.7344
  120OSM     OF12710   3.328   0.770  10.361 -0.3654  0.1451 -0.2320
  120OSM    C2F12711   3.524   0.863  10.262 -0.0266  0.5050  0.0635
  120OSM    H2F12712   3.590   0.848  10.350 -1.7579 -0.8495  1.2027
  120OSM    H2G12713   3.548   0.959  10.211 -3.7616  1.0207 -1.0683
  120OSM    C3F12714   3.532   0.755  10.148  0.3336  0.1893  0.1725
  120OSM    H3F12715   3.502   0.659  10.195  3.0621 -0.4419  0.8030
  120OSM    H3G12716   3.635   0.729  10.117  0.1176 -1.2299  0.5521
  120OSM    C4F12717   3.449   0.777  10.026  0.4140 -1.5330 -0.0615
  120OSM    H4F12718   3.348   0.816  10.050  0.6362  2.2312 -3.9864
  120OSM    H4G12719   3.444   0.690   9.957 -1.0672 -0.9614 -0.7154
  120OSM    C5F12720   3.495   0.896   9.944 -0.0452 -0.3716  0.1458
  120OSM    H5F12721   3.596   0.882   9.898 -1.5467 -0.1191 -3.6365
  120OSM    H5G12722   3.504   0.982  10.013  2.5932 -0.2792 -0.2211
  120OSM    C6F12723   3.396   0.919   9.827  0.2805  0.0467  0.0248
  120OSM    H6F12724   3.292   0.921   9.865  0.6280 -0.0561  1.0214
  120OSM    H6G12725   3.401   0.831   9.760  1.0181  2.0523 -2.7394
  120OSM    C7F12726   3.445   1.038   9.742  0.2032  0.1228 -0.1156
  120OSM    H7F12727   3.555   1.036   9.731  0.1622  1.9905 -1.1863
  120OSM    H7G12728   3.424   1.130   9.801 -1.5003 -0.2610 -0.0706
  120OSM    C8F12729   3.379   1.061   9.607  0.0743 -0.1950 -0.8844
  120OSM    H8F12730   3.270   1.045   9.620  0.1464 -0.2552 -0.3623
  120OSM    H8G12731   3.417   0.987   9.533 -0.7535  2.7107 -4.5186
  120OSM    C9F12732   3.411   1.195   9.550  0.0830  0.7067  0.1342
  120OSM    H9F12733   3.492   1.251   9.599 -0.5998  0.8700  1.1305
  120OSM   C10F12734   3.370   1.241   9.436  0.7259 -0.0312 -0.0056
  120OSM   H10F12735   3.402   1.339   9.398 -1.1248  0.9143  0.7224
  120OSM   C11F12736   3.271   1.161   9.347 -0.0471 -0.3198  0.1384
  120OSM   H11F12737   3.192   1.234   9.318  2.7161  1.6480 -3.1008
  120OSM   H11G12738   3.238   1.070   9.403  1.0936  0.4414  2.1764
  120OSM   C12F12739   3.346   1.118   9.226  0.2683  0.0111  0.1592
  120OSM   H12F12740   3.416   1.037   9.258 -0.6180  0.0041  2.2862
  120OSM   H12G12741   3.409   1.197   9.181  0.6534 -0.7116 -0.6080
  120OSM   C13F12742   3.265   1.071   9.109 -0.1730 -0.4576 -0.4338
  120OSM   H13F12743   3.191   0.996   9.141 -1.1071 -0.4021 -2.3328
  120OSM   H13G12744   3.342   1.031   9.039  0.0549 -1.3227  0.2914
  120OSM   C14F12745   3.188   1.189   9.033 -0.5660 -0.1813 -0.1559
  120OSM   H14F12746   3.144   1.263   9.104  0.4819 -0.1847  0.5164
  120OSM   H14G12747   3.096   1.148   8.987 -0.5314  0.3680 -0.7295
  120OSM   C15F12748   3.247   1.263   8.908 -0.3827 -0.7102  0.5708
  120OSM   H15F12749   3.315   1.345   8.939  0.1457 -0.2722 -1.5723
  120OSM   H15G12750   3.166   1.304   8.844 -1.0994 -0.0737  1.8377
  120OSM   C16F12751   3.336   1.174   8.815 -0.1596 -0.0796 -0.0893
  120OSM   H16F12752   3.280   1.080   8.797 -0.8684  0.5096 -1.0356
  120OSM   H16G12753   3.422   1.133   8.873  1.6318 -0.0420 -2.5877
  120OSM   C17F12754   3.366   1.232   8.686 -0.4872  0.2582  0.5286
  120OSM   H17F12755   3.422   1.323   8.717  1.0994 -0.5344  0.1316
  120OSM   H17G12756   3.287   1.275   8.621 -0.2355 -0.3858 -0.2225
  120OSM   C18F12757   3.451   1.141   8.597  0.2456 -0.1543 -0.3664
  120OSM   H18F12758   3.482   1.190   8.503  1.7125 -1.6199 -0.6980
  120OSM   H18G12759   3.398   1.049   8.561  0.7944  0.1310 -1.9873
  120OSM   H18H12760   3.544   1.094   8.635  1.1938 -3.5498 -5.8244
  121OSM      N12761   1.463   3.784  10.737  0.1502 -0.1028 -0.4563
  121OSM    C1512762   1.474   3.886  10.625 -0.2589 -0.2929 -0.4470
  121OSM   H15A12763   1.434   3.982  10.655  2.8986  1.1186 -0.3481
  121OSM   H15B12764   1.410   3.856  10.543  1.1561 -1.8036 -1.0642
  121OSM   H15C12765   1.571   3.892  10.577 -0.7251 -0.2768 -1.4018
  121OSM    C1412766   1.334   3.806  10.809 -0.2744 -0.2054 -0.4980
  121OSM   H14A12767   1.305   3.731  10.882 -3.1009 -0.0341 -1.3156
  121OSM   H14B12768   1.259   3.810  10.731  1.0509 -0.2842 -1.8194
  121OSM   H14C12769   1.340   3.905  10.852  0.6936 -0.2952 -0.4135
  121OSM    C1312770   1.465   3.650  10.657  0.4543 -0.3535 -0.2430
  121OSM   H13A12771   1.442   3.568  10.723 -2.1026  0.8839  0.5229
  121OSM   H13B12772   1.560   3.635  10.607  0.7212  0.5228 -0.0202
  121OSM   H13C12773   1.388   3.653  10.581 -0.8143  2.3992  1.0218
  121OSM    C1212774   1.587   3.799  10.831  1.1442  0.2447 -0.0912
  121OSM   H12A12775   1.602   3.903  10.857  1.0550  0.6895 -1.7241
  121OSM   H12B12776   1.672   3.766  10.774  0.5007  0.0455 -0.9684
  121OSM    C1112777   1.578   3.708  10.958  0.4083  0.5619  0.3703
  121OSM   H11A12778   1.476   3.717  11.001  0.1468  2.6335 -0.5405
  121OSM   H11B12779   1.639   3.748  11.041  0.0576 -0.1850  1.0032
  121OSM      P12780   1.755   3.527  10.909 -0.2130 -0.0328 -0.0784
  121OSM    O1312781   1.824   3.556  11.040  0.0343  0.1911 -0.2566
  121OSM    O1412782   1.747   3.382  10.859  0.1220 -0.4879 -0.2784
  121OSM    O1112783   1.799   3.617  10.791 -0.3151 -0.2380 -0.8181
  121OSM    O1212784   1.607   3.571  10.926 -0.5346 -0.3908 -0.1127
  121OSM    C1S12785   1.893   3.571  10.692  0.8594  0.0561  0.0708
  121OSM    H1S12786   1.842   3.506  10.619  1.7060 -0.5537  0.0046
  121OSM    H1T12787   1.981   3.515  10.731  0.3101 -1.7650 -1.1586
  121OSM     NF12788   2.037   3.648  10.514  0.6542 -0.4335  0.2157
  121OSM    HNF12789   2.130   3.682  10.526  1.0254 -1.3077 -0.0715
  121OSM    C2S12790   1.938   3.690  10.604 -0.3602 -0.3147  0.3770
  121OSM    H2S12791   1.852   3.727  10.543 -0.5959  0.4880  1.1720
  121OSM    C3S12792   1.989   3.814  10.680 -0.7565 -0.8339 -0.0484
  121OSM    H3S12793   2.084   3.785  10.729 -0.9323  0.4188  1.1256
  121OSM     O312794   1.894   3.869  10.780  0.3374 -0.7692 -0.3553
  121OSM    HO312795   1.854   3.785  10.804  0.9343 -1.0363 -0.2554
  121OSM    C4S12796   2.015   3.926  10.584  0.0085  0.0667 -0.3460
  121OSM    H4S12797   1.929   3.944  10.517 -1.3036 -2.6066  0.4684
  121OSM    C5S12798   2.127   3.991  10.587  0.1427 -1.2462 -0.2166
  121OSM    H5S12799   2.198   3.968  10.668 -0.2153  0.8097  0.7569
  121OSM    C6S12800   2.162   4.115  10.509  0.4111  0.2506 -0.8475
  121OSM    H6S12801   2.199   4.197  10.574  2.1383 -0.9432 -0.2760
  121OSM    H6T12802   2.079   4.156  10.446  0.7706  1.1352 -0.7625
  121OSM    C7S12803   2.271   4.082  10.404  0.3649 -0.6252 -1.0663
  121OSM    H7S12804   2.362   4.043  10.454  0.3427 -1.9788 -2.0095
  121OSM    H7T12805   2.290   4.179  10.352 -2.8032 -1.1352 -3.4843
  121OSM    C8S12806   2.226   3.999  10.284 -0.0122  0.5818 -0.0607
  121OSM    H8S12807   2.134   4.047  10.244 -1.3020 -1.8442 -0.2630
  121OSM    H8T12808   2.206   3.899  10.328  2.7199 -0.0858 -0.1662
  121OSM    C9S12809   2.338   3.981  10.178  0.5604 -0.2274  0.0233
  121OSM    H9S12810   2.433   3.959  10.230  0.9476 -1.9650 -1.3279
  121OSM    H9T12811   2.351   4.073  10.115 -0.1614 -0.8256 -1.0379
  121OSM   C10S12812   2.309   3.864  10.084  0.1175 -0.6640 -0.6965
  121OSM   H10S12813   2.205   3.877  10.047  0.4924 -1.6664 -2.1809
  121OSM   H10T12814   2.321   3.767  10.136  1.7494 -0.5943 -0.8789
  121OSM   C11S12815   2.400   3.848   9.961  1.2253  0.5943 -0.8031
  121OSM   H11S12816   2.486   3.787   9.997  0.5830  0.5821  0.7750
  121OSM   H11T12817   2.446   3.947   9.944  2.7560  0.2113  0.7895
  121OSM   C12S12818   2.324   3.784   9.846 -0.0939 -1.1606 -0.3704
  121OSM   H12S12819   2.229   3.839   9.829  1.3241  2.3340  1.7822
  121OSM   H12T12820   2.287   3.682   9.872 -1.4256 -0.3238  1.2409
  121OSM   C13S12821   2.414   3.775   9.724 -0.0058 -0.4181 -0.1982
  121OSM   H13S12822   2.503   3.713   9.748  0.0273  0.3392  1.8159
  121OSM   H13T12823   2.443   3.881   9.710 -1.5699  0.2016  0.9340
  121OSM   C14S12824   2.335   3.723   9.607  0.3888  0.5165  0.3636
  121OSM   H14S12825   2.237   3.776   9.607  0.7225  1.3759 -3.0544
  121OSM   H14T12826   2.308   3.618   9.630 -0.6707  1.2677  2.9263
  121OSM   C15S12827   2.403   3.725   9.463 -0.6714 -0.2636 -0.3793
  121OSM   H15S12828   2.500   3.671   9.465 -0.1605  0.6400 -0.1696
  121OSM   H15T12829   2.433   3.831   9.449  0.1867 -0.2504  1.2607
  121OSM   C16S12830   2.313   3.668   9.353 -0.2565  0.5309 -0.2727
  121OSM   H16S12831   2.208   3.701   9.364 -1.0230 -1.5758 -0.7863
  121OSM   H16T12832   2.298   3.561   9.378 -2.3620  0.6829 -0.6754
  121OSM   C17S12833   2.353   3.690   9.205  0.7231  0.8124 -0.1282
  121OSM   H17S12834   2.290   3.617   9.150  1.8256 -2.7247  2.9256
  121OSM   H17T12835   2.453   3.649   9.182 -1.1453 -2.8319 -2.7441
  121OSM   C18S12836   2.341   3.833   9.158  0.7472 -0.2335  0.0858
  121OSM   H18S12837   2.414   3.894   9.215 -0.0453  0.2655  0.5865
  121OSM   H18T12838   2.239   3.864   9.187  0.5363 -2.0326  1.5054
  121OSM   H18U12839   2.361   3.844   9.050  1.2152  0.5554  0.2453
  121OSM    C1F12840   2.007   3.574  10.405  0.2911  0.2346 -0.0302
  121OSM     OF12841   1.896   3.528  10.389 -0.1833 -0.4801  0.1469
  121OSM    C2F12842   2.118   3.556  10.301 -0.3436  0.3406 -0.2561
  121OSM    H2F12843   2.176   3.473  10.348 -3.3607 -0.7293  1.9074
  121OSM    H2G12844   2.175   3.650  10.284  2.1210 -0.6871  1.6178
  121OSM    C3F12845   2.068   3.511  10.158  0.6694 -0.5107  0.2987
  121OSM    H3F12846   1.992   3.431  10.174 -0.1322  0.2590  0.4507
  121OSM    H3G12847   2.150   3.465  10.099  1.1034 -0.6519  1.0025
  121OSM    C4F12848   1.988   3.621  10.084  0.0913 -0.1388 -0.1242
  121OSM    H4F12849   2.052   3.700  10.040 -0.0435  0.2954  0.4336
  121OSM    H4G12850   1.917   3.666  10.157 -1.2446  0.9456 -2.0081
  121OSM    C5F12851   1.911   3.560   9.972  0.3494 -0.6148 -0.2448
  121OSM    H5F12852   1.819   3.618   9.949  2.1125  1.3310 -3.2256
  121OSM    H5G12853   1.887   3.456   9.999  1.3772 -1.0526 -0.9476
  121OSM    C6F12854   1.995   3.561   9.844  0.3683  0.1321 -0.3202
  121OSM    H6F12855   2.081   3.490   9.851 -0.1158 -0.9053 -3.2645
  121OSM    H6G12856   2.042   3.660   9.825  1.1216 -0.0773  0.3959
  121OSM    C7F12857   1.908   3.529   9.724  0.7170  0.0889 -0.8588
  121OSM    H7F12858   1.826   3.604   9.729  1.2892  0.6842 -0.0862
  121OSM    H7G12859   1.864   3.428   9.738 -0.0738  0.5249 -0.1039
  121OSM    C8F12860   1.983   3.532   9.597 -0.5681 -0.2886  0.0644
  121OSM    H8F12861   2.060   3.452   9.597 -1.2022 -0.9103 -1.0185
  121OSM    H8G12862   2.037   3.629   9.590  1.1329 -1.0815  1.4240
  121OSM    C9F12863   1.898   3.503   9.481 -0.1978  0.4330 -0.4744
  121OSM    H9F12864   1.815   3.573   9.463 -0.6179 -0.1872 -0.9611
  121OSM   C10F12865   1.907   3.399   9.400 -0.0029 -0.5160  0.0530
  121OSM   H10F12866   1.826   3.399   9.326 -0.8256  0.6751  0.9111
  121OSM   C11F12867   1.997   3.281   9.401 -0.9963 -0.3300  0.2744
  121OSM   H11F12868   1.928   3.194   9.392  1.7899 -2.6088 -0.2862
  121OSM   H11G12869   2.060   3.264   9.490  2.0862 -1.6758 -1.9720
  121OSM   C12F12870   2.087   3.283   9.279 -0.6712 -0.1000  0.1442
  121OSM   H12F12871   2.160   3.201   9.266 -1.2876 -0.3966 -1.7164
  121OSM   H12G12872   2.152   3.374   9.275 -2.1194  1.1148  2.2386
  121OSM   C13F12873   2.012   3.290   9.141  0.2904 -0.2851 -0.1140
  121OSM   H13F12874   1.924   3.354   9.166  0.1964  0.2823 -1.7531
  121OSM   H13G12875   1.961   3.201   9.097 -1.4169  1.5448 -2.1345
  121OSM   C14F12876   2.070   3.369   9.026  0.3498  0.2696 -1.1417
  121OSM   H14F12877   2.178   3.344   9.024  0.2383 -1.4176  3.2057
  121OSM   H14G12878   2.056   3.478   9.039  0.5671  0.1877 -0.1577
  121OSM   C15F12879   2.011   3.340   8.886 -0.4245 -0.1664  0.1973
  121OSM   H15F12880   1.901   3.351   8.887 -0.3371  0.8553 -0.1948
  121OSM   H15G12881   2.035   3.234   8.863  1.3376 -0.2075  1.9482
  121OSM   C16F12882   2.074   3.436   8.776 -0.0279  0.3961 -0.2084
  121OSM   H16F12883   2.180   3.415   8.751 -0.3239 -1.2076 -0.2182
  121OSM   H16G12884   2.069   3.539   8.819 -0.0143  0.3686 -0.1409
  121OSM   C17F12885   1.994   3.434   8.645  0.5294  0.7792  0.3897
  121OSM   H17F12886   2.025   3.513   8.575  0.8581  0.0498 -0.3004
  121OSM   H17G12887   1.884   3.429   8.664  0.6471  0.6921  1.0970
  121OSM   C18F12888   2.008   3.297   8.570 -0.1792 -0.5578  0.1834
  121OSM   H18F12889   1.952   3.306   8.475  1.2250 -0.7241 -0.6840
  121OSM   H18G12890   1.969   3.202   8.612  0.1587 -1.3249 -1.1909
  121OSM   H18H12891   2.115   3.269   8.556  0.0325  0.8832 -1.3858
  122OSM      N12892   3.173   1.446  11.219  0.2765 -0.5295  0.8461
  122OSM    C1512893   3.291   1.370  11.260 -0.2672  0.1309  0.9054
  122OSM   H15A12894   3.269   1.265  11.248 -1.6721  0.6040 -1.0559
  122OSM   H15B12895   3.317   1.392  11.363 -2.0112  1.3374  1.1407
  122OSM   H15C12896   3.384   1.398  11.214 -0.0270  0.8121  1.7707
  122OSM    C1412897   3.058   1.379  11.291 -0.1570 -0.6539 -0.0444
  122OSM   H14A12898   3.074   1.372  11.397 -1.3061  1.9073  0.3974
  122OSM   H14B12899   3.048   1.278  11.256 -1.3713 -0.3780 -0.5538
  122OSM   H14C12900   2.965   1.435  11.283 -0.1658 -0.3594  1.6526
  122OSM    C1312901   3.192   1.584  11.267 -0.0147 -0.4853  0.1012
  122OSM   H13A12902   3.104   1.646  11.268 -0.0381 -0.5222  0.5247
  122OSM   H13B12903   3.262   1.638  11.205 -0.7227 -0.3833 -0.6195
  122OSM   H13C12904   3.237   1.590  11.365 -0.0353  0.3096  0.0606
  122OSM    C1212905   3.140   1.444  11.066 -0.6417 -0.5784  0.1781
  122OSM   H12A12906   3.046   1.492  11.047 -0.4920 -0.4593 -0.2703
  122OSM   H12B12907   3.125   1.343  11.030  0.7799 -0.2197 -1.5640
  122OSM    C1112908   3.243   1.511  10.975  0.3020  0.0740  0.3228
  122OSM   H11A12909   3.260   1.617  11.004 -0.4754  0.0571  0.8850
  122OSM   H11B12910   3.186   1.514  10.880  0.0932  0.1794  0.4501
  122OSM      P12911   3.399   1.343  10.841 -0.1355 -0.3130 -0.0095
  122OSM    O1312912   3.541   1.297  10.851 -0.5922  0.0111  0.5243
  122OSM    O1412913   3.293   1.239  10.819 -0.2366 -0.1116 -0.4417
  122OSM    O1112914   3.392   1.447  10.722  0.4616 -0.0719 -0.1376
  122OSM    O1212915   3.369   1.438  10.969  0.1857  0.3836  1.2243
  122OSM    C1S12916   3.466   1.417  10.601 -0.3072 -0.1537  0.1208
  122OSM    H1S12917   3.510   1.315  10.600 -1.2681 -0.5759 -0.5371
  122OSM    H1T12918   3.547   1.489  10.576 -1.1220  0.7266 -0.0569
  122OSM     NF12919   3.475   1.421  10.360 -0.4321  0.0752  0.4537
  122OSM    HNF12920   3.493   1.500  10.303  1.7928  0.5515  1.7006
  122OSM    C2S12921   3.379   1.434  10.470  0.8976 -0.0793  0.2166
  122OSM    H2S12922   3.301   1.355  10.470  0.6134  0.1949  0.9462
  122OSM    C3S12923   3.292   1.560  10.469  0.3300  0.1429 -0.4464
  122OSM    H3S12924   3.356   1.650  10.471  0.7786 -0.1856  0.2395
  122OSM     O312925   3.215   1.589  10.586 -0.0963  0.1193  0.2471
  122OSM    HO312926   3.276   1.545  10.646 -0.0363 -0.4109 -0.1902
  122OSM    C4S12927   3.198   1.564  10.351 -0.4629 -0.1375  0.7985
  122OSM    H4S12928   3.149   1.469  10.323 -2.3916  0.3112  2.4277
  122OSM    C5S12929   3.184   1.674  10.280  1.0921 -0.1200 -0.5388
  122OSM    H5S12930   3.226   1.769  10.318 -3.4914  1.9835 -0.0044
  122OSM    C6S12931   3.104   1.680  10.156  0.3495  0.1285  0.3925
  122OSM    H6S12932   3.028   1.761  10.156 -0.2211 -0.3871  1.1695
  122OSM    H6T12933   3.046   1.587  10.138 -1.0371  1.2071 -0.9742
  122OSM    C7S12934   3.210   1.680  10.042 -0.3851  0.3269  0.6316
  122OSM    H7S12935   3.265   1.584  10.047 -0.4833  0.1911 -0.6050
  122OSM    H7T12936   3.280   1.766  10.047  0.1235 -0.0002 -0.6366
  122OSM    C8S12937   3.154   1.674   9.892 -0.5942  0.1030 -0.0180
  122OSM    H8S12938   3.093   1.766   9.879 -0.0603  0.4432 -0.1529
  122OSM    H8T12939   3.089   1.586   9.875 -0.9671  0.8031 -2.5819
  122OSM    C9S12940   3.265   1.686   9.783 -0.4982  0.1877  0.2802
  122OSM    H9S12941   3.346   1.613   9.804 -0.0157  0.4928 -0.5070
  122OSM    H9T12942   3.310   1.787   9.795 -0.1574  0.1348 -0.5424
  122OSM   C10S12943   3.215   1.669   9.639  0.0282  0.7395 -0.1753
  122OSM   H10S12944   3.142   1.744   9.603 -0.6978 -0.0810 -0.4461
  122OSM   H10T12945   3.162   1.574   9.614  3.1384 -0.5607 -2.5235
  122OSM   C11S12946   3.335   1.670   9.544  0.0839 -0.0281  0.0646
  122OSM   H11S12947   3.400   1.584   9.571 -1.7916 -1.0833  1.3716
  122OSM   H11T12948   3.397   1.761   9.562  1.3081 -0.7573 -0.3485
  122OSM   C12S12949   3.306   1.688   9.392 -0.0191  0.2412  0.7392
  122OSM   H12S12950   3.410   1.674   9.355 -0.3613  0.9645 -0.5534
  122OSM   H12T12951   3.276   1.788   9.354  0.7543  1.0747  2.2262
  122OSM   C13S12952   3.220   1.575   9.331  0.0671  0.4086  0.2914
  122OSM   H13S12953   3.134   1.564   9.399  0.3665 -0.9581  0.4760
  122OSM   H13T12954   3.274   1.478   9.337  0.5948  0.7163  0.5885
  122OSM   C14S12955   3.173   1.594   9.195 -0.2993 -0.0224  1.3049
  122OSM   H14S12956   3.107   1.683   9.186 -1.1229 -0.6809  0.5218
  122OSM   H14T12957   3.117   1.506   9.157  2.1380 -1.2574  0.3041
  122OSM   C15S12958   3.292   1.613   9.089 -0.2775  0.3710  0.1923
  122OSM   H15S12959   3.332   1.512   9.063 -1.8883 -0.1036 -0.5687
  122OSM   H15T12960   3.380   1.675   9.117  0.0802  0.3941 -0.9319
  122OSM   C16S12961   3.242   1.661   8.954 -0.2249  0.1247  0.1473
  122OSM   H16S12962   3.203   1.764   8.967 -2.2673 -0.5861 -0.0852
  122OSM   H16T12963   3.151   1.598   8.945  0.2548 -0.7274  1.0697
  122OSM   C17S12964   3.339   1.653   8.834 -0.0454  0.1061  0.9046
  122OSM   H17S12965   3.368   1.547   8.819 -0.2373 -0.0431  1.5504
  122OSM   H17T12966   3.435   1.702   8.861 -1.0074  2.2019  0.7145
  122OSM   C18S12967   3.278   1.710   8.707 -0.4126  0.2954 -0.2587
  122OSM   H18S12968   3.187   1.654   8.675 -0.8244 -0.1270  1.5610
  122OSM   H18T12969   3.354   1.701   8.626  0.5003  0.7809  0.5314
  122OSM   H18U12970   3.263   1.820   8.722 -1.5272 -0.0123  1.0929
  122OSM    C1F12971   3.536   1.306  10.330 -0.1223 -0.5086  0.9453
  122OSM     OF12972   3.502   1.201  10.378  0.7691 -0.1001  0.4465
  122OSM    C2F12973   3.627   1.309  10.205 -0.2140  0.3330 -0.3223
  122OSM    H2F12974   3.576   1.249  10.127 -0.5459  0.2395 -0.0339
  122OSM    H2G12975   3.726   1.265  10.231 -0.0412  0.8616 -0.0677
  122OSM    C3F12976   3.653   1.451  10.146  0.5763  0.7852  0.6958
  122OSM    H3F12977   3.702   1.513  10.224  0.9183  0.8479  0.4323
  122OSM    H3G12978   3.557   1.505  10.129 -0.5232 -0.7290  1.7290
  122OSM    C4F12979   3.729   1.444  10.018  0.5270 -0.1864  0.2601
  122OSM    H4F12980   3.806   1.364  10.015 -1.2963 -2.0527  0.7008
  122OSM    H4G12981   3.789   1.537  10.008  0.3383 -0.1318 -0.4180
  122OSM    C5F12982   3.647   1.445   9.886 -0.6768  0.0080 -0.7953
  122OSM    H5F12983   3.576   1.531   9.894  0.3612  0.8041  0.2381
  122OSM    H5G12984   3.589   1.351   9.889 -1.3483  0.3378 -2.5580
  122OSM    C6F12985   3.734   1.463   9.757 -0.6434  0.1383 -1.3537
  122OSM    H6F12986   3.777   1.364   9.729  1.4968  0.1692  1.3858
  122OSM    H6G12987   3.811   1.535   9.790 -0.8564  0.3123 -1.2395
  122OSM    C7F12988   3.668   1.540   9.644  0.6587 -0.2635 -0.1109
  122OSM    H7F12989   3.638   1.641   9.679  1.1956 -1.0719  2.9537
  122OSM    H7G12990   3.581   1.483   9.605  0.1525  1.1906 -1.1905
  122OSM    C8F12991   3.763   1.573   9.525 -0.0667 -0.3313 -1.0399
  122OSM    H8F12992   3.820   1.479   9.508  0.9199 -0.0405  0.4605
  122OSM    H8G12993   3.848   1.634   9.562 -0.8044 -0.6275  1.3066
  122OSM    C9F12994   3.694   1.627   9.398 -0.1632  0.1672  0.0577
  122OSM    H9F12995   3.651   1.728   9.399 -0.4579  0.0399  1.2462
  122OSM   C10F12996   3.682   1.562   9.284  0.0398  0.8785  0.0506
  122OSM   H10F12997   3.608   1.596   9.209 -0.0036  0.4888 -0.0850
  122OSM   C11F12998   3.717   1.419   9.259 -0.1636  0.3699  0.1006
  122OSM   H11F12999   3.724   1.354   9.348  1.4957 -3.1967 -2.4156
  122OSM   H11G13000   3.819   1.400   9.219 -0.0507 -1.9844  1.3761
  122OSM   C12F13001   3.610   1.342   9.166  0.9214 -0.0433 -0.0266
  122OSM   H12F13002   3.510   1.372   9.204  0.2424 -0.7192 -1.2190
  122OSM   H12G13003   3.627   1.234   9.189 -0.3317 -0.3109 -0.2732
  122OSM   C13F13004   3.602   1.372   9.020 -0.2066 -0.4542  0.5370
  122OSM   H13F13005   3.605   1.481   8.999 -0.5265 -0.4062  0.7303
  122OSM   H13G13006   3.515   1.333   8.962  0.5081 -0.3238 -0.6528
  122OSM   C14F13007   3.734   1.305   8.959 -0.5317  0.3260 -0.7973
  122OSM   H14F13008   3.736   1.198   8.989 -1.8310  0.8905  1.5113
  122OSM   H14G13009   3.825   1.352   9.001  0.6159 -1.6983 -0.8939
  122OSM   C15F13010   3.738   1.302   8.807  0.6121 -0.2744 -0.4430
  122OSM   H15F13011   3.749   1.406   8.769  0.6879 -0.2917 -0.4700
  122OSM   H15G13012   3.643   1.262   8.768  0.3857 -0.7607  0.5804
  122OSM   C16F13013   3.846   1.212   8.752  0.2092  0.0059 -0.1143
  122OSM   H16F13014   3.812   1.108   8.776  1.2079 -0.4383 -0.5831
  122OSM   H16G13015   3.944   1.242   8.795 -0.5854  2.1116  0.3495
  122OSM   C17F13016   3.852   1.216   8.598  0.1769  0.0816  0.2258
  122OSM   H17F13017   3.839   1.323   8.571 -1.3493  0.2262  1.4332
  122OSM   H17G13018   3.760   1.170   8.557  1.2067 -3.3723  1.5051
  122OSM   C18F13019   3.980   1.163   8.533 -0.3433  0.6219  0.4261
  122OSM   H18F13020   3.962   1.132   8.428  0.4278 -0.4311  0.5803
  122OSM   H18G13021   4.014   1.071   8.585 -2.4246 -0.9259 -0.8029
  122OSM   H18H13022   4.064   1.235   8.522 -0.7320  1.2479  1.4461
  123OSM      N13023   0.823   1.810   5.696  0.5635  0.7308 -0.5880
  123OSM    C1513024   0.845   1.679   5.620 -0.1439  0.8214  0.2527
  123OSM   H15A13025   0.771   1.606   5.651  0.4302  0.6260  1.2296
  123OSM   H15B13026   0.940   1.638   5.651 -1.7822 -1.1904  3.1783
  123OSM   H15C13027   0.846   1.686   5.512  0.1756 -1.7587  0.0192
  123OSM    C1413028   0.910   1.917   5.647 -0.5494 -0.1719 -0.0594
  123OSM   H14A13029   0.908   1.997   5.719 -2.2386 -1.1582  1.0310
  123OSM   H14B13030   0.881   1.953   5.549 -2.1015  1.3124  0.8951
  123OSM   H14C13031   1.013   1.886   5.635 -0.5938 -1.3260  2.0981
  123OSM    C1313032   0.688   1.851   5.670  0.3114 -0.6792 -0.3666
  123OSM   H13A13033   0.673   1.869   5.564  0.6807 -1.5112 -0.5642
  123OSM   H13B13034   0.663   1.938   5.729  0.5828  0.3727 -1.7368
  123OSM   H13C13035   0.609   1.780   5.688  0.6620 -0.8839  0.4118
  123OSM    C1213036   0.847   1.796   5.847 -0.5219 -0.3337  0.1380
  123OSM   H12A13037   0.954   1.790   5.855 -0.3581  0.4807 -1.2223
  123OSM   H12B13038   0.792   1.711   5.885 -2.0959  0.3363 -0.5292
  123OSM    C1113039   0.797   1.918   5.936  0.4343  0.2974  0.3149
  123OSM   H11A13040   0.856   1.995   5.881  1.2256 -0.8389 -0.4679
  123OSM   H11B13041   0.833   1.913   6.041 -2.0064  0.6434  1.2382
  123OSM      P13042   0.561   1.837   6.017  0.1730 -0.1090  0.3584
  123OSM    O1313043   0.418   1.881   6.011 -0.1133  0.1614 -0.6426
  123OSM    O1413044   0.592   1.700   5.986 -0.3503  0.0560 -0.2009
  123OSM    O1113045   0.625   1.882   6.154  0.2730 -0.0972 -0.2348
  123OSM    O1213046   0.651   1.939   5.929  0.0245  0.1664 -0.3117
  123OSM    C1S13047   0.553   1.848   6.277 -0.2432  0.6022 -0.4560
  123OSM    H1S13048   0.519   1.742   6.276  0.2662  0.4273  0.0913
  123OSM    H1T13049   0.460   1.909   6.283 -0.6397 -0.0319  0.0354
  123OSM     NF13050   0.575   1.809   6.517 -0.8817 -0.1768 -0.1661
  123OSM    HNF13051   0.529   1.872   6.578  1.0452  0.3646  0.8160
  123OSM    C2S13052   0.643   1.870   6.398  0.4469  0.0957  0.9108
  123OSM    H2S13053   0.730   1.801   6.384  0.1469 -0.5856  2.2627
  123OSM    C3S13054   0.693   2.017   6.407 -0.8944 -0.2316  0.1490
  123OSM    H3S13055   0.596   2.070   6.404 -1.5265 -1.2955  0.9542
  123OSM     O313056   0.773   2.067   6.298 -0.5625 -0.4881  0.3948
  123OSM    HO313057   0.771   1.992   6.239 -2.2267 -1.8496  2.0689
  123OSM    C4S13058   0.768   2.042   6.536 -0.6417 -0.2680 -0.8124
  123OSM    H4S13059   0.703   2.065   6.621 -0.2889 -1.5530 -0.1617
  123OSM    C5S13060   0.901   2.042   6.551 -0.3130 -0.3339 -0.1636
  123OSM    H5S13061   0.967   2.018   6.466 -1.2484 -0.9361 -0.7416
  123OSM    C6S13062   0.969   2.069   6.683  0.0474  0.2095 -0.0418
  123OSM    H6S13063   1.036   2.157   6.679  0.2946  0.0756  1.0232
  123OSM    H6T13064   1.032   1.980   6.699  1.3195  1.2369  0.8803
  123OSM    C7S13065   0.889   2.086   6.809 -0.3804 -0.2134  0.3565
  123OSM    H7S13066   0.842   1.988   6.833  2.5774 -2.0369 -0.7794
  123OSM    H7T13067   0.810   2.162   6.795 -0.8117 -0.8736 -0.9549
  123OSM    C8S13068   0.968   2.125   6.938 -0.2037 -0.4703 -0.1681
  123OSM    H8S13069   1.010   2.227   6.924  2.0261 -1.5639 -2.3114
  123OSM    H8T13070   1.068   2.075   6.937  0.5857  1.0367 -0.8341
  123OSM    C9S13071   0.899   2.095   7.070 -0.1913 -0.8691  0.5142
  123OSM    H9S13072   0.898   1.983   7.070  0.8882 -0.9242 -1.5826
  123OSM    H9T13073   0.791   2.120   7.076 -0.4727 -2.0156  0.5478
  123OSM   C10S13074   0.967   2.151   7.196 -0.5464 -0.0702 -0.1682
  123OSM   H10S13075   0.958   2.262   7.195  0.3834  0.0183 -1.4490
  123OSM   H10T13076   1.073   2.117   7.191 -0.0012  1.4928 -0.0057
  123OSM   C11S13077   0.922   2.106   7.336 -0.5543 -0.3822  0.5680
  123OSM   H11S13078   0.893   2.001   7.314 -0.5691  0.2457 -2.9324
  123OSM   H11T13079   0.835   2.159   7.382  0.0097 -0.0377  1.2652
  123OSM   C12S13080   1.041   2.093   7.440 -0.2528 -0.6931  0.3493
  123OSM   H12S13081   1.097   2.189   7.448 -0.8004 -0.5255  3.7972
  123OSM   H12T13082   1.109   2.012   7.409  0.2605  0.1609 -0.8290
  123OSM   C13S13083   0.993   2.067   7.583 -0.0630 -0.1567 -0.1644
  123OSM   H13S13084   1.077   2.053   7.655 -0.3012  1.3552  0.4547
  123OSM   H13T13085   0.929   1.978   7.600 -2.4848  1.7420  1.3402
  123OSM   C14S13086   0.902   2.181   7.642  0.3189  0.9992  0.2662
  123OSM   H14S13087   0.801   2.179   7.595  0.3844 -0.9570  0.1504
  123OSM   H14T13088   0.952   2.275   7.611  1.9192  1.0092  2.6064
  123OSM   C15S13089   0.888   2.170   7.800 -0.3666  0.3197 -0.1837
  123OSM   H15S13090   0.846   2.069   7.819 -1.7275  0.5319 -1.8318
  123OSM   H15T13091   0.809   2.243   7.827 -2.9994 -2.2766 -0.2991
  123OSM   C16S13092   1.024   2.184   7.879  0.1881 -0.4899 -0.3348
  123OSM   H16S13093   1.088   2.252   7.819 -1.2553  0.1243 -1.2385
  123OSM   H16T13094   1.070   2.085   7.901 -0.1302 -0.2956  1.2753
  123OSM   C17S13095   1.005   2.244   8.018 -1.3254 -0.6073 -0.7970
  123OSM   H17S13096   0.944   2.165   8.067 -3.0661  1.0403 -0.1998
  123OSM   H17T13097   0.954   2.343   8.020 -0.4619 -0.1639  0.4292
  123OSM   C18S13098   1.148   2.256   8.082 -0.0718  0.0544  0.1744
  123OSM   H18S13099   1.227   2.278   8.006 -0.8316 -0.1259 -0.6752
  123OSM   H18T13100   1.184   2.154   8.107 -1.6753 -0.5326  0.1891
  123OSM   H18U13101   1.151   2.328   8.166 -0.7201 -0.1904  0.4080
  123OSM    C1F13102   0.557   1.677   6.524  0.4926 -0.4822  0.3813
  123OSM     OF13103   0.632   1.606   6.462  0.2321 -0.4598  0.5762
  123OSM    C2F13104   0.430   1.626   6.579  0.0166  0.2639 -0.1901
  123OSM    H2F13105   0.355   1.615   6.497  0.5205  0.3906 -0.6681
  123OSM    H2G13106   0.378   1.692   6.652  1.7731  0.2076  1.1619
  123OSM    C3F13107   0.458   1.486   6.643  0.1103 -0.6931  0.4399
  123OSM    H3F13108   0.536   1.476   6.722 -1.0052 -1.5405  1.4675
  123OSM    H3G13109   0.487   1.413   6.564 -0.7988 -0.0346 -0.5207
  123OSM    C4F13110   0.325   1.423   6.693 -1.5962 -0.2928  0.1943
  123OSM    H4F13111   0.353   1.315   6.692  1.2113  0.3558  0.2396
  123OSM    H4G13112   0.242   1.443   6.622 -2.0943  0.2605  0.9145
  123OSM    C5F13113   0.289   1.471   6.831  0.1646  0.2175  0.2294
  123OSM    H5F13114   0.179   1.478   6.849  0.0831  2.0511 -0.7999
  123OSM    H5G13115   0.329   1.569   6.862 -0.1876 -0.5219  3.4008
  123OSM    C6F13116   0.343   1.374   6.937 -0.0777  0.5614 -0.3700
  123OSM    H6F13117   0.453   1.364   6.930 -0.1212 -0.2358  0.0244
  123OSM    H6G13118   0.301   1.273   6.917 -0.6722  0.9710 -1.2959
  123OSM    C7F13119   0.301   1.401   7.084 -0.3774  0.8890  0.2836
  123OSM    H7F13120   0.190   1.407   7.083 -0.8046 -3.3275 -2.1374
  123OSM    H7G13121   0.337   1.502   7.114 -0.9965  0.7897  1.4265
  123OSM    C8F13122   0.349   1.296   7.182 -0.0542  0.1538 -0.6019
  123OSM    H8F13123   0.324   1.194   7.147  0.9773 -0.6353  0.8718
  123OSM    H8G13124   0.289   1.324   7.272  0.3675  0.3134 -0.3660
  123OSM    C9F13125   0.499   1.302   7.207  0.1809  0.5154 -0.7451
  123OSM    H9F13126   0.559   1.240   7.139 -0.4073  1.4086 -2.1112
  123OSM   C10F13127   0.566   1.377   7.297  0.9282  0.2806 -0.0920
  123OSM   H10F13128   0.675   1.368   7.310  0.9844  1.5624  0.4565
  123OSM   C11F13129   0.503   1.474   7.399 -0.2066 -0.4329  0.0110
  123OSM   H11F13130   0.392   1.474   7.392 -0.2670  2.9348 -1.2293
  123OSM   H11G13131   0.518   1.582   7.379 -2.1632 -0.2009 -0.4924
  123OSM   C12F13132   0.544   1.448   7.549  0.2518  0.5451 -0.2076
  123OSM   H12F13133   0.543   1.543   7.608 -0.2087  1.4829 -1.6761
  123OSM   H12G13134   0.647   1.409   7.537 -0.4843 -1.1042 -1.5003
  123OSM   C13F13135   0.445   1.343   7.616  0.5173 -0.4218  0.1839
  123OSM   H13F13136   0.443   1.262   7.539 -0.6569 -0.8722  0.6589
  123OSM   H13G13137   0.338   1.374   7.627  0.1131 -2.4339  3.1564
  123OSM   C14F13138   0.488   1.299   7.752  0.3191  0.1791 -0.1401
  123OSM   H14F13139   0.598   1.280   7.746  0.5328  0.7101  1.4731
  123OSM   H14G13140   0.437   1.209   7.792 -2.3743  1.6625 -0.0050
  123OSM   C15F13141   0.466   1.399   7.867 -0.6535 -0.4618  0.1981
  123OSM   H15F13142   0.360   1.429   7.880 -0.5867 -0.1376  0.0208
  123OSM   H15G13143   0.525   1.492   7.850 -2.5840  0.5771 -1.2388
  123OSM   C16F13144   0.506   1.335   7.999 -0.2788 -0.0781 -0.3754
  123OSM   H16F13145   0.605   1.288   7.987 -1.4218 -2.8814  0.4841
  123OSM   H16G13146   0.430   1.258   8.024 -1.9786  1.6167  0.0309
  123OSM   C17F13147   0.498   1.443   8.115 -0.4446  0.3109 -0.2278
  123OSM   H17F13148   0.544   1.540   8.089 -1.7176  0.7929 -0.7516
  123OSM   H17G13149   0.569   1.411   8.194 -1.8444  0.1566  1.0345
  123OSM   C18F13150   0.362   1.476   8.183  0.3230 -0.0922 -0.1061
  123OSM   H18F13151   0.299   1.387   8.208 -0.2164  0.7054  1.4635
  123OSM   H18G13152   0.302   1.544   8.119  1.3530 -0.1489 -1.1710
  123OSM   H18H13153   0.372   1.549   8.265 -0.3968  0.6327 -0.6425
  124OSM      N13154   2.216   0.246   6.152 -0.3964  0.3596  0.2562
  124OSM    C1513155   2.135   0.120   6.154  0.1414  0.3290  0.3888
  124OSM   H15A13156   2.188   0.030   6.183 -1.5455 -1.1693 -0.9299
  124OSM   H15B13157   2.091   0.113   6.056 -0.8632  0.4078  0.8186
  124OSM   H15C13158   2.050   0.126   6.221 -0.0254 -0.6322  0.2800
  124OSM    C1413159   2.320   0.251   6.047 -0.5612 -0.3543 -0.3231
  124OSM   H14A13160   2.378   0.343   6.048  0.5200 -1.0183  0.0084
  124OSM   H14B13161   2.278   0.246   5.947 -0.1342 -0.8616 -0.4829
  124OSM   H14C13162   2.388   0.170   6.068 -0.4208 -0.3280 -0.6610
  124OSM    C1313163   2.126   0.364   6.143  0.3414  0.0993 -0.0708
  124OSM   H13A13164   2.065   0.367   6.053 -0.2088 -0.8768  0.2533
  124OSM   H13B13165   2.181   0.456   6.130  3.8305 -1.9726 -1.2418
  124OSM   H13C13166   2.057   0.353   6.225 -2.6204 -1.0978 -2.5223
  124OSM    C1213167   2.286   0.261   6.288  0.0304  0.1677  1.3815
  124OSM   H12A13168   2.216   0.251   6.369 -1.0485  0.2530  0.4971
  124OSM   H12B13169   2.328   0.361   6.288  0.5944 -0.0630  0.5344
  124OSM    C1113170   2.400   0.154   6.310  0.3026 -0.0265 -0.5774
  124OSM   H11A13171   2.360   0.055   6.279  0.3643 -0.0507 -0.5801
  124OSM   H11B13172   2.422   0.144   6.419  1.6059  0.2798 -0.7981
  124OSM      P13173   2.600   0.323   6.263 -0.3263  0.1294 -0.2187
  124OSM    O1313174   2.738   0.294   6.222  0.3438  0.2543  0.2591
  124OSM    O1413175   2.527   0.437   6.192 -0.4031 -0.1160 -0.5747
  124OSM    O1113176   2.597   0.346   6.421  0.2498 -0.0388 -0.0392
  124OSM    O1213177   2.520   0.188   6.244 -0.3669 -0.2756  0.6609
  124OSM    C1S13178   2.665   0.264   6.514 -0.0005  0.1678 -1.2101
  124OSM    H1S13179   2.775   0.281   6.510 -0.1611  1.9795  0.6227
  124OSM    H1T13180   2.640   0.157   6.501  1.8450 -0.6978  1.6226
  124OSM     NF13181   2.706   0.204   6.740  0.4574 -0.2053 -0.3590
  124OSM    HNF13182   2.666   0.122   6.780  1.3341 -0.7441 -0.5615
  124OSM    C2S13183   2.620   0.289   6.660  0.2737 -0.5231 -0.9802
  124OSM    H2S13184   2.656   0.392   6.680  0.4867 -0.7541 -0.1260
  124OSM    C3S13185   2.468   0.271   6.683  0.7186 -0.0376 -0.1758
  124OSM    H3S13186   2.443   0.162   6.678  0.9681 -0.0840 -0.4304
  124OSM     O313187   2.387   0.347   6.595  0.3440 -0.5186 -0.1691
  124OSM    HO313188   2.443   0.359   6.517 -1.2904  2.7673 -1.0205
  124OSM    C4S13189   2.432   0.315   6.825  0.0437 -0.0493  0.0019
  124OSM    H4S13190   2.478   0.246   6.897 -0.3419  1.4735  1.7744
  124OSM    C5S13191   2.378   0.425   6.874  0.1861  0.0939  0.6581
  124OSM    H5S13192   2.358   0.510   6.807 -1.0282 -0.6835 -0.0112
  124OSM    C6S13193   2.368   0.452   7.016 -0.1733 -0.2706 -0.3133
  124OSM    H6S13194   2.271   0.418   7.058 -1.4034  2.8366 -0.3481
  124OSM    H6T13195   2.381   0.561   7.032  0.1553 -0.5127  1.2067
  124OSM    C7S13196   2.478   0.381   7.106 -0.1590  0.4430  0.4113
  124OSM    H7S13197   2.579   0.407   7.067 -0.2242 -1.3076 -1.0607
  124OSM    H7T13198   2.457   0.273   7.093 -1.0649  0.5790  0.7120
  124OSM    C8S13199   2.469   0.413   7.259  0.1546  0.0707  0.2854
  124OSM    H8S13200   2.483   0.519   7.288  0.4730  0.5457 -1.4702
  124OSM    H8T13201   2.548   0.350   7.305 -1.8530 -2.0208  1.0129
  124OSM    C9S13202   2.341   0.369   7.329  0.6378  0.1034  0.0938
  124OSM    H9S13203   2.322   0.264   7.296  0.9975  0.2757 -0.6747
  124OSM    H9T13204   2.260   0.429   7.282  0.2313 -1.3384 -1.1472
  124OSM   C10S13205   2.347   0.388   7.483  0.9436 -0.2338 -0.2330
  124OSM   H10S13206   2.439   0.348   7.529  1.7921 -0.6836 -2.2191
  124OSM   H10T13207   2.265   0.328   7.527 -0.1966  1.0963 -0.4582
  124OSM   C11S13208   2.314   0.542   7.511 -0.3961 -0.0662 -0.1616
  124OSM   H11S13209   2.225   0.583   7.460 -0.3268  0.5656  0.2173
  124OSM   H11T13210   2.403   0.590   7.466 -0.7843 -1.9097 -3.1732
  124OSM   C12S13211   2.321   0.578   7.661  0.5135 -0.1615 -0.4398
  124OSM   H12S13212   2.405   0.516   7.700  0.5614  0.4640  0.4902
  124OSM   H12T13213   2.222   0.544   7.700  0.9479 -2.2485 -1.0140
  124OSM   C13S13214   2.357   0.724   7.684 -0.0603 -0.6170 -0.0497
  124OSM   H13S13215   2.288   0.794   7.632 -0.2059 -0.5833  0.1841
  124OSM   H13T13216   2.464   0.736   7.657  0.2641  0.6900  1.6687
  124OSM   C14S13217   2.371   0.767   7.833 -0.2660 -0.2049 -0.1234
  124OSM   H14S13218   2.442   0.699   7.886 -0.7765 -1.9942 -1.6207
  124OSM   H14T13219   2.270   0.758   7.878  1.0204  0.1301  3.0841
  124OSM   C15S13220   2.405   0.918   7.844 -0.3884  0.0571 -0.0587
  124OSM   H15S13221   2.332   0.986   7.796  0.0236  1.2870  1.0122
  124OSM   H15T13222   2.504   0.944   7.799 -1.4710  1.0430 -1.9867
  124OSM   C16S13223   2.394   0.970   7.992 -0.2243  0.9961  0.1880
  124OSM   H16S13224   2.462   0.905   8.052 -3.4354 -2.2662  0.6419
  124OSM   H16T13225   2.293   0.943   8.029  1.0040 -0.7950  2.5286
  124OSM   C17S13226   2.436   1.120   8.017 -0.0386  0.1065 -0.1188
  124OSM   H17S13227   2.364   1.192   7.972 -1.5726 -1.9557 -1.1289
  124OSM   H17T13228   2.530   1.142   7.962  0.0740 -0.6337 -0.2367
  124OSM   C18S13229   2.453   1.153   8.169 -0.2302 -0.3436  0.7852
  124OSM   H18S13230   2.540   1.094   8.207 -1.4753 -1.4353  2.0481
  124OSM   H18T13231   2.364   1.134   8.232 -0.3026  1.3664  1.2564
  124OSM   H18U13232   2.482   1.259   8.182  0.5165 -0.4702  0.2315
  124OSM    C1F13233   2.838   0.224   6.761  0.2886 -0.3323 -0.4525
  124OSM     OF13234   2.893   0.331   6.738 -0.3175 -0.0272  0.2830
  124OSM    C2F13235   2.909   0.104   6.826  0.3104  0.5184 -0.5740
  124OSM    H2F13236   2.982   0.062   6.754 -1.3245 -1.1518 -1.3256
  124OSM    H2G13237   2.826   0.037   6.857 -0.0219  1.5051  0.7741
  124OSM    C3F13238   2.975   0.149   6.957  0.0806 -0.1558 -0.3571
  124OSM    H3F13239   3.032   0.244   6.945  0.3676 -0.6074 -3.3176
  124OSM    H3G13240   3.040   0.063   6.981 -1.2957 -1.4877 -1.2717
  124OSM    C4F13241   2.882   0.137   7.073  0.0819 -0.2213 -0.3626
  124OSM    H4F13242   2.863   0.031   7.100  0.7277  0.0865  1.3844
  124OSM    H4G13243   2.784   0.189   7.071 -0.7415 -1.7039  0.4497
  124OSM    C5F13244   2.958   0.200   7.193  0.3224 -0.2756 -0.2183
  124OSM    H5F13245   3.004   0.297   7.163  1.7454 -1.4176 -1.9126
  124OSM    H5G13246   3.042   0.131   7.212 -0.5668 -1.8524 -1.6591
  124OSM    C6F13247   2.872   0.199   7.321 -0.3916  0.1182  0.1460
  124OSM    H6F13248   2.862   0.096   7.363 -1.0709 -0.0614 -0.4304
  124OSM    H6G13249   2.777   0.249   7.292  0.7225  1.6812 -0.9598
  124OSM    C7F13250   2.939   0.295   7.424 -0.3974 -0.0270 -0.3718
  124OSM    H7F13251   2.927   0.399   7.386  0.5724  0.7200  1.2779
  124OSM    H7G13252   3.046   0.265   7.431 -0.7703 -1.3773 -0.1383
  124OSM    C8F13253   2.881   0.290   7.568  0.5256  0.4184  0.3741
  124OSM    H8F13254   2.952   0.345   7.632  2.3986 -1.5298  0.0710
  124OSM    H8G13255   2.879   0.181   7.593  0.0136  0.0337 -1.1993
  124OSM    C9F13256   2.741   0.336   7.580 -0.5606  0.2399  0.8936
  124OSM    H9F13257   2.664   0.270   7.537 -0.4445  1.7090 -1.8499
  124OSM   C10F13258   2.700   0.444   7.638  0.8464 -0.2786  0.2052
  124OSM   H10F13259   2.591   0.458   7.629  0.9347 -0.3084 -1.0244
  124OSM   C11F13260   2.778   0.545   7.718 -0.6007 -0.0290 -0.4857
  124OSM   H11F13261   2.762   0.648   7.679  3.1073  0.7092 -0.4689
  124OSM   H11G13262   2.887   0.523   7.718 -0.7426 -0.7536  0.3335
  124OSM   C12F13263   2.741   0.543   7.861 -0.4277  0.0729 -0.6603
  124OSM   H12F13264   2.774   0.445   7.902 -1.5150  0.0380  0.1742
  124OSM   H12G13265   2.632   0.542   7.879 -0.0474  0.1851  2.3218
  124OSM   C13F13266   2.802   0.658   7.956  0.0748 -0.4651 -0.2125
  124OSM   H13F13267   2.758   0.757   7.933 -1.3106 -0.4680  2.2084
  124OSM   H13G13268   2.911   0.676   7.941  0.0537 -0.8104 -0.8448
  124OSM   C14F13269   2.761   0.632   8.102  0.8569 -0.5734 -0.2419
  124OSM   H14F13270   2.820   0.549   8.146 -1.1003 -1.8219  0.0928
  124OSM   H14G13271   2.652   0.617   8.112  0.5935  1.2818  0.1475
  124OSM   C15F13272   2.804   0.756   8.189  0.2153  0.0119  0.1790
  124OSM   H15F13273   2.757   0.844   8.140 -1.1494  0.0498  1.4951
  124OSM   H15G13274   2.915   0.769   8.184  0.0272  1.7699 -0.1257
  124OSM   C16F13275   2.760   0.729   8.329  0.0166 -0.4033 -0.3489
  124OSM   H16F13276   2.840   0.755   8.401 -2.2007  0.2042  2.0637
  124OSM   H16G13277   2.737   0.621   8.337 -0.1252 -0.5322 -2.1110
  124OSM   C17F13278   2.644   0.812   8.382 -0.6340  0.0744 -0.5039
  124OSM   H17F13279   2.610   0.758   8.473 -0.4089  0.1636 -0.3672
  124OSM   H17G13280   2.564   0.808   8.305 -1.0381  1.7676 -0.2134
  124OSM   C18F13281   2.688   0.952   8.414  0.1027  0.5915 -0.3307
  124OSM   H18F13282   2.786   0.976   8.368 -0.2655 -0.5177 -1.7565
  124OSM   H18G13283   2.710   0.951   8.523  0.1368  0.8559 -0.3333
  124OSM   H18H13284   2.608   1.026   8.393  0.5805  1.1747 -0.1180
  125OSM      N13285   3.793   2.387   6.314 -0.0330 -0.4832  0.1296
  125OSM    C1513286   3.817   2.495   6.422  0.1376 -0.6733  0.2599
  125OSM   H15A13287   3.881   2.457   6.500  0.8197 -0.2863 -0.1118
  125OSM   H15B13288   3.720   2.512   6.467  0.1417 -0.6492  0.2594
  125OSM   H15C13289   3.858   2.581   6.372 -1.7483  0.3523  0.3675
  125OSM    C1413290   3.679   2.435   6.224  0.5686  0.5686 -0.1471
  125OSM   H14A13291   3.660   2.373   6.138  1.7775  1.1694 -0.8574
  125OSM   H14B13292   3.684   2.533   6.180  3.1208  0.0240 -1.2602
  125OSM   H14C13293   3.593   2.422   6.288  0.0773 -1.1146 -1.0980
  125OSM    C1313294   3.921   2.382   6.238 -0.7516 -0.3316 -0.0639
  125OSM   H13A13295   3.940   2.457   6.163  3.2208 -0.6974  0.3686
  125OSM   H13B13296   3.943   2.284   6.200  1.2949  0.7878 -2.0477
  125OSM   H13C13297   4.003   2.396   6.308  0.5305  0.7921 -1.7148
  125OSM    C1213298   3.768   2.246   6.365 -0.2495 -0.8387 -0.4977
  125OSM   H12A13299   3.849   2.203   6.421  1.0946  0.6213 -1.2713
  125OSM   H12B13300   3.766   2.174   6.285 -2.0324 -0.0311 -1.2375
  125OSM    C1113301   3.650   2.227   6.466 -0.2843 -0.0143  0.4349
  125OSM   H11A13302   3.672   2.287   6.556  2.9043  2.4813 -1.7755
  125OSM   H11B13303   3.655   2.123   6.504  1.1092 -0.2520 -0.3394
  125OSM      P13304   3.420   2.180   6.323  0.1007  0.4272  0.2743
  125OSM    O1313305   3.317   2.279   6.278  0.2028  0.5277 -0.0764
  125OSM    O1413306   3.491   2.110   6.213 -0.6668  0.4856  0.2466
  125OSM    O1113307   3.355   2.079   6.416  0.1338  1.2528 -0.0778
  125OSM    O1213308   3.516   2.262   6.418  0.4724 -0.7060  0.6362
  125OSM    C1S13309   3.377   2.084   6.561  0.0127  0.3306 -0.3571
  125OSM    H1S13310   3.366   2.189   6.597 -1.8474 -0.7410  2.5258
  125OSM    H1T13311   3.479   2.054   6.594  0.5495  1.9826 -0.3908
  125OSM     NF13312   3.278   2.041   6.795  0.0249 -0.3041  0.2477
  125OSM    HNF13313   3.302   1.978   6.869 -0.0519 -0.6057  0.0125
  125OSM    C2S13314   3.274   1.999   6.658 -0.0065 -0.3197  0.7438
  125OSM    H2S13315   3.172   2.018   6.620  0.0566 -1.5320 -0.1278
  125OSM    C3S13316   3.289   1.853   6.636  0.1641  0.5905  0.0002
  125OSM    H3S13317   3.394   1.832   6.666  0.3894  0.1027 -1.0748
  125OSM     O313318   3.279   1.812   6.500  0.4100  0.1556  0.4184
  125OSM    HO313319   3.281   1.897   6.456  2.3463 -1.1802 -2.3850
  125OSM    C4S13320   3.188   1.783   6.723 -0.0370  0.0114 -1.3648
  125OSM    H4S13321   3.186   1.810   6.830 -0.8878 -0.4065 -1.2610
  125OSM    C5S13322   3.103   1.687   6.690 -0.0249  0.2634 -0.1972
  125OSM    H5S13323   3.091   1.649   6.587 -0.4560 -1.7061  0.5430
  125OSM    C6S13324   3.002   1.624   6.785 -0.6178 -0.5087  0.2446
  125OSM    H6S13325   2.983   1.523   6.744  1.5490 -1.1909  0.7529
  125OSM    H6T13326   2.906   1.678   6.775  0.5672  1.8283  0.6579
  125OSM    C7S13327   3.039   1.615   6.933 -0.2805 -0.2269  0.0007
  125OSM    H7S13328   3.085   1.709   6.970 -0.6230  0.7224 -1.8894
  125OSM    H7T13329   3.116   1.538   6.955 -0.4549 -0.7894 -1.2933
  125OSM    C8S13330   2.911   1.592   7.018 -0.3655  0.5371  0.3181
  125OSM    H8S13331   2.859   1.506   6.971  1.2137 -0.0050 -0.5062
  125OSM    H8T13332   2.848   1.684   7.019  0.1755  0.9047  0.5338
  125OSM    C9S13333   2.946   1.593   7.166 -0.2965  0.0098 -0.3851
  125OSM    H9S13334   3.006   1.683   7.190  1.4588 -0.8058 -1.5217
  125OSM    H9T13335   3.003   1.504   7.200  0.0640  0.0782 -0.8080
  125OSM   C10S13336   2.819   1.584   7.251 -0.2456 -0.3302 -0.6054
  125OSM   H10S13337   2.756   1.503   7.209 -0.2971 -0.4842 -0.2417
  125OSM   H10T13338   2.752   1.672   7.246  0.7852  0.5200  0.0856
  125OSM   C11S13339   2.838   1.562   7.406 -0.3264 -0.3742  0.2859
  125OSM   H11S13340   2.871   1.661   7.446 -1.0370 -0.0738  0.1314
  125OSM   H11T13341   2.925   1.495   7.425 -0.2500 -0.1109  0.9124
  125OSM   C12S13342   2.721   1.505   7.483 -0.2790  0.1018  0.5090
  125OSM   H12S13343   2.727   1.396   7.463  1.1288  0.1035  0.8743
  125OSM   H12T13344   2.624   1.544   7.444 -0.1463  0.1139  0.1880
  125OSM   C13S13345   2.741   1.536   7.636  0.0043 -0.5953  0.0228
  125OSM   H13S13346   2.736   1.647   7.632  1.8127 -0.5156 -0.6646
  125OSM   H13T13347   2.837   1.500   7.677  0.6406  1.1836  0.1993
  125OSM   C14S13348   2.631   1.470   7.725 -0.9658  0.3088 -0.2026
  125OSM   H14S13349   2.650   1.361   7.736  1.9612  0.7602 -0.0760
  125OSM   H14T13350   2.534   1.485   7.672 -1.2561  0.5725  0.3941
  125OSM   C15S13351   2.618   1.552   7.858  0.0176  0.2717  0.5671
  125OSM   H15S13352   2.622   1.662   7.841  0.2024  0.1770 -0.0098
  125OSM   H15T13353   2.705   1.520   7.919  0.7746 -1.0755 -1.1456
  125OSM   C16S13354   2.481   1.521   7.922 -0.2564  0.8226  0.7141
  125OSM   H16S13355   2.482   1.410   7.929  1.4221  0.7383 -0.3329
  125OSM   H16T13356   2.389   1.534   7.862  0.2171 -0.3883 -0.2993
  125OSM   C17S13357   2.470   1.580   8.055  0.4810  0.4756  0.0514
  125OSM   H17S13358   2.510   1.683   8.071 -0.6364  0.7632  1.1139
  125OSM   H17T13359   2.520   1.521   8.135  0.0559  2.1883  1.6479
  125OSM   C18S13360   2.324   1.590   8.105 -0.2054 -0.0696  0.2188
  125OSM   H18S13361   2.315   1.610   8.214  0.5037 -0.2432  0.3103
  125OSM   H18T13362   2.273   1.496   8.072  0.7218  0.0093 -1.5660
  125OSM   H18U13363   2.279   1.678   8.055 -1.6585  0.2454  1.9786
  125OSM    C1F13364   3.237   2.163   6.834  0.0955 -0.4357 -0.3021
  125OSM     OF13365   3.178   2.240   6.760 -0.1216 -0.0167  0.6346
  125OSM    C2F13366   3.254   2.202   6.979  0.3849  1.1555  0.2241
  125OSM    H2F13367   3.351   2.170   7.022  0.5690  2.4799  0.8637
  125OSM    H2G13368   3.183   2.135   7.034  2.1155 -0.8098  0.1805
  125OSM    C3F13369   3.221   2.355   7.003  0.2104  0.1320  0.3646
  125OSM    H3F13370   3.119   2.373   6.963 -0.1599 -1.1692  0.6980
  125OSM    H3G13371   3.285   2.432   6.954 -2.0189  2.9744  1.6462
  125OSM    C4F13372   3.206   2.399   7.150 -1.2865  0.3161  0.5355
  125OSM    H4F13373   3.174   2.306   7.202 -2.5769 -0.4046 -1.4382
  125OSM    H4G13374   3.133   2.482   7.152  0.1803  1.7001 -0.6906
  125OSM    C5F13375   3.344   2.451   7.200 -0.2267 -0.6610  0.1745
  125OSM    H5F13376   3.378   2.546   7.153 -0.6797 -1.1482 -1.1875
  125OSM    H5G13377   3.428   2.382   7.178  0.8465  0.6388  0.0571
  125OSM    C6F13378   3.343   2.481   7.353 -0.0444  0.0826 -0.8891
  125OSM    H6F13379   3.442   2.492   7.401  0.2649 -0.8173 -1.2955
  125OSM    H6G13380   3.289   2.404   7.413 -0.8037  1.5493  0.3585
  125OSM    C7F13381   3.263   2.614   7.375  0.1140  0.4308 -0.6010
  125OSM    H7F13382   3.163   2.588   7.334  1.2989 -0.2208 -3.3420
  125OSM    H7G13383   3.299   2.689   7.301 -0.2667  0.1700 -1.0510
  125OSM    C8F13384   3.268   2.672   7.518  0.2684  0.4724 -0.4289
  125OSM    H8F13385   3.360   2.734   7.509  0.3185  0.6905  1.2345
  125OSM    H8G13386   3.279   2.581   7.580 -1.3912 -0.3811 -1.3422
  125OSM    C9F13387   3.144   2.752   7.551  0.1289  0.3877  0.1726
  125OSM    H9F13388   3.124   2.835   7.482  1.1950  1.4197  1.0725
  125OSM   C10F13389   3.061   2.756   7.656 -0.5962  0.3221 -0.9607
  125OSM   H10F13390   2.973   2.821   7.654 -1.3416 -0.6121  0.3760
  125OSM   C11F13391   3.088   2.672   7.780 -0.0520  0.1840  0.0941
  125OSM   H11F13392   3.142   2.733   7.855  1.7044 -0.4862 -0.5435
  125OSM   H11G13393   3.153   2.588   7.745 -0.6042  0.2832 -1.2139
  125OSM   C12F13394   2.963   2.597   7.844  0.2989 -0.0531 -0.1059
  125OSM   H12F13395   3.007   2.543   7.931 -0.8882  0.5876  0.9225
  125OSM   H12G13396   2.925   2.527   7.766  0.6453  1.3087 -1.5447
  125OSM   C13F13397   2.857   2.689   7.905 -0.3705  1.0411  0.2947
  125OSM   H13F13398   2.760   2.640   7.928 -0.6046  0.8881 -0.9523
  125OSM   H13G13399   2.832   2.765   7.828 -2.9858  2.1813  2.0987
  125OSM   C14F13400   2.905   2.746   8.034 -0.9150 -0.4289  0.0474
  125OSM   H14F13401   2.852   2.842   8.054 -0.6165  0.0953 -1.5916
  125OSM   H14G13402   3.011   2.775   8.023 -0.8318 -0.4564  0.7377
  125OSM   C15F13403   2.893   2.656   8.158  0.6556 -0.2689 -0.4814
  125OSM   H15F13404   2.950   2.563   8.139 -1.2962 -1.4797 -0.7026
  125OSM   H15G13405   2.790   2.619   8.176  0.1645  0.4144 -1.7064
  125OSM   C16F13406   2.964   2.719   8.284  0.4781  0.1113  0.3063
  125OSM   H16F13407   3.033   2.799   8.248 -0.7833  1.2871  0.3797
  125OSM   H16G13408   3.012   2.634   8.337  2.3616  0.8326 -0.1572
  125OSM   C17F13409   2.868   2.776   8.386  0.1986 -1.0055 -0.3833
  125OSM   H17F13410   2.926   2.823   8.469  0.1337  1.3831 -1.5933
  125OSM   H17G13411   2.810   2.693   8.430  0.3341 -0.5483  0.6897
  125OSM   C18F13412   2.770   2.883   8.331 -0.5708 -0.4645  0.2502
  125OSM   H18F13413   2.722   2.832   8.245 -0.1362 -0.8375  0.2269
  125OSM   H18G13414   2.843   2.959   8.296 -1.6541  0.2478 -0.5437
  125OSM   H18H13415   2.700   2.918   8.410  0.5826  0.6138  0.8243
  126OSM      N13416   6.659   6.293   6.196 -0.4349  0.6488  0.3832
  126OSM    C1513417   6.571   6.297   6.320  0.0554  0.1614  0.1889
  126OSM   H15A13418   6.629   6.286   6.411  1.3201 -2.5852 -0.8493
  126OSM   H15B13419   6.515   6.205   6.314  1.1265 -0.4764 -0.3305
  126OSM   H15C13420   6.498   6.376   6.315 -0.5014 -0.3864 -0.4567
  126OSM    C1413421   6.580   6.247   6.074  0.1942 -0.1807  0.3020
  126OSM   H14A13422   6.500   6.316   6.052  0.5822  1.1134  2.6005
  126OSM   H14B13423   6.545   6.145   6.073 -0.5590  0.0722 -0.3594
  126OSM   H14C13424   6.635   6.271   5.984  1.8676  1.9151  1.7903
  126OSM    C1313425   6.708   6.434   6.168  0.0978 -0.7124 -0.1589
  126OSM   H13A13426   6.771   6.471   6.247  0.9085 -1.9394 -0.1998
  126OSM   H13B13427   6.631   6.503   6.138 -0.0867 -0.6856  0.3546
  126OSM   H13C13428   6.769   6.444   6.080  2.7712  0.8373  1.7117
  126OSM    C1213429   6.775   6.197   6.205 -1.1314  0.2180 -0.1826
  126OSM   H12A13430   6.845   6.222   6.127 -1.7487  0.0860 -0.7918
  126OSM   H12B13431   6.739   6.096   6.195 -0.8838  0.2236 -1.3632
  126OSM    C1113432   6.859   6.204   6.338 -0.4942  0.7298  0.2044
  126OSM   H11A13433   6.881   6.311   6.359 -0.1429  1.4100 -3.1194
  126OSM   H11B13434   6.955   6.150   6.323 -0.7373  0.9406 -2.7008
  126OSM      P13435   6.787   5.995   6.488 -0.1520 -0.0522  0.5182
  126OSM    O1313436   6.706   5.973   6.613  0.3142  0.5350  0.2774
  126OSM    O1413437   6.739   5.930   6.361 -0.0835  0.0287  0.7237
  126OSM    O1113438   6.924   5.949   6.514  0.2451 -0.5598  0.8560
  126OSM    O1213439   6.790   6.146   6.454 -0.1572  0.1566  0.6296
  126OSM    C1S13440   7.017   6.004   6.609  0.2526 -0.1791  0.1901
  126OSM    H1S13441   7.036   6.112   6.593  1.7183 -0.6412 -1.3821
  126OSM    H1T13442   7.113   5.952   6.589  0.3880  0.2107 -0.1667
  126OSM     NF13443   7.069   6.045   6.851  0.6129  0.2112 -0.2740
  126OSM    HNF13444   7.129   5.987   6.905 -1.6880 -0.4677  1.7439
  126OSM    C2S13445   6.984   5.973   6.760 -0.2780  0.2499 -0.3441
  126OSM    H2S13446   6.885   6.020   6.780 -0.2522  0.5649 -0.9286
  126OSM    C3S13447   6.985   5.820   6.790 -0.5524 -0.0846  0.3731
  126OSM    H3S13448   7.084   5.777   6.766 -0.6621  0.1348 -0.5215
  126OSM     O313449   6.905   5.747   6.700  0.4279  0.1317  0.4607
  126OSM    HO313450   6.848   5.808   6.654  1.5925 -0.1568 -1.5252
  126OSM    C4S13451   6.948   5.791   6.931 -0.0878 -0.0650  0.1804
  126OSM    H4S13452   7.030   5.793   7.004  1.0892 -1.3900 -1.0567
  126OSM    C5S13453   6.819   5.777   6.983 -0.1526  0.1076 -0.4589
  126OSM    H5S13454   6.729   5.775   6.921  0.4002 -0.2069 -1.2713
  126OSM    C6S13455   6.778   5.746   7.128 -0.1885 -0.4103 -0.3863
  126OSM    H6S13456   6.731   5.645   7.133  0.5198 -0.7789 -0.9525
  126OSM    H6T13457   6.707   5.825   7.159 -1.3005 -1.4112 -0.2764
  126OSM    C7S13458   6.898   5.743   7.223  0.4814  0.3692  0.1337
  126OSM    H7S13459   6.940   5.846   7.219  0.1906  0.5105  0.7250
  126OSM    H7T13460   6.967   5.662   7.191 -0.0219  0.1026 -0.3101
  126OSM    C8S13461   6.852   5.712   7.367 -0.0418  0.2885  0.0004
  126OSM    H8S13462   6.816   5.611   7.397  1.9304 -0.0762  1.3815
  126OSM    H8T13463   6.761   5.776   7.369  0.0191  0.3816 -0.2092
  126OSM    C9S13464   6.965   5.752   7.474  0.6159  0.1320 -0.3088
  126OSM    H9S13465   6.977   5.862   7.482 -2.2608  0.6123 -1.2770
  126OSM    H9T13466   7.062   5.705   7.452  1.2891  1.7814 -1.0375
  126OSM   C10S13467   6.928   5.701   7.615  0.0179 -0.5106 -0.3628
  126OSM   H10S13468   6.883   5.599   7.610  0.0063 -0.4698 -1.4511
  126OSM   H10T13469   6.830   5.746   7.642 -1.6469 -2.5978 -2.4351
  126OSM   C11S13470   7.042   5.702   7.711 -0.0974 -1.1455 -0.4172
  126OSM   H11S13471   7.096   5.798   7.700 -2.4134  0.3865  0.8449
  126OSM   H11T13472   7.113   5.619   7.690 -0.5768 -1.5692 -0.3825
  126OSM   C12S13473   7.000   5.696   7.860  0.5481  0.0027  0.1708
  126OSM   H12S13474   6.934   5.609   7.879 -0.5192  0.5543 -0.8809
  126OSM   H12T13475   6.951   5.792   7.887  1.2187  0.3169  0.2869
  126OSM   C13S13476   7.117   5.693   7.955  0.3838  0.4460  0.2754
  126OSM   H13S13477   7.181   5.784   7.956  4.4718 -2.0583 -2.5608
  126OSM   H13T13478   7.179   5.608   7.920  0.5481  0.5197  0.3884
  126OSM   C14S13479   7.070   5.664   8.094  0.5387 -0.2543  0.3237
  126OSM   H14S13480   7.019   5.565   8.089  0.3133 -0.1300  0.0655
  126OSM   H14T13481   7.009   5.753   8.120  1.0939 -0.2042  1.4941
  126OSM   C15S13482   7.182   5.652   8.194  0.3546 -0.1069 -0.0037
  126OSM   H15S13483   7.255   5.732   8.171 -0.2373  0.5917  0.5057
  126OSM   H15T13484   7.228   5.552   8.177 -0.8191 -1.1281  2.2955
  126OSM   C16S13485   7.148   5.650   8.344 -0.2646  0.3647 -0.7694
  126OSM   H16S13486   7.077   5.565   8.356  0.7881 -0.4901 -0.4539
  126OSM   H16T13487   7.094   5.741   8.378 -0.1153 -0.1603  0.9269
  126OSM   C17S13488   7.273   5.626   8.425 -0.3508 -0.5332  0.0842
  126OSM   H17S13489   7.332   5.549   8.371 -0.5535 -0.6955  0.0927
  126OSM   H17T13490   7.248   5.587   8.527  0.9198  0.7037  0.8961
  126OSM   C18S13491   7.352   5.761   8.442  0.3334  0.1645  0.3334
  126OSM   H18S13492   7.438   5.760   8.513 -0.2467  1.7119  1.1038
  126OSM   H18T13493   7.282   5.846   8.451  0.8414  1.0204 -2.7094
  126OSM   H18U13494   7.397   5.779   8.342 -2.7022 -1.9677 -1.5867
  126OSM    C1F13495   7.090   6.177   6.854  0.6860  0.1260  0.8361
  126OSM     OF13496   7.023   6.260   6.791 -0.2177 -0.0262 -0.0477
  126OSM    C2F13497   7.204   6.230   6.938  0.3752  0.1676 -0.1513
  126OSM    H2F13498   7.303   6.249   6.890  1.6929 -2.0675  1.4378
  126OSM    H2G13499   7.216   6.154   7.018 -0.9583 -2.1680 -2.0261
  126OSM    C3F13500   7.152   6.371   6.989 -0.0300 -0.0500 -0.7761
  126OSM    H3F13501   7.045   6.365   7.018  0.0674 -1.0249 -0.5916
  126OSM    H3G13502   7.155   6.451   6.911  0.1067  1.2696  0.5250
  126OSM    C4F13503   7.237   6.426   7.105 -0.6399  0.2081  0.0088
  126OSM    H4F13504   7.335   6.451   7.059 -0.7467 -0.2630 -0.4908
  126OSM    H4G13505   7.250   6.345   7.180  3.2866  0.7277  0.0889
  126OSM    C5F13506   7.165   6.540   7.162 -0.3389  0.2570  0.5737
  126OSM    H5F13507   7.059   6.516   7.183 -1.1893  3.4611  0.4638
  126OSM    H5G13508   7.137   6.627   7.099  1.9781  1.6102  1.2723
  126OSM    C6F13509   7.238   6.581   7.297  0.2525 -0.4144  0.9399
  126OSM    H6F13510   7.198   6.684   7.309 -0.6046 -0.0596 -3.2210
  126OSM    H6G13511   7.348   6.594   7.283  0.2225 -0.2250  0.8787
  126OSM    C7F13512   7.225   6.482   7.416 -0.0201  0.2064 -0.4531
  126OSM    H7F13513   7.255   6.377   7.395  0.9832  0.6858 -1.5483
  126OSM    H7G13514   7.122   6.486   7.458  0.8028  0.4716  1.6805
  126OSM    C8F13515   7.321   6.520   7.535  1.1592  0.3596  0.3310
  126OSM    H8F13516   7.424   6.520   7.495  1.0802 -3.2233 -0.1697
  126OSM    H8G13517   7.319   6.435   7.607 -1.3222 -1.0904 -1.2764
  126OSM    C9F13518   7.291   6.649   7.600 -0.9959 -0.1753  0.2766
  126OSM    H9F13519   7.236   6.724   7.543  0.6914  1.8655  1.2001
  126OSM   C10F13520   7.319   6.693   7.724  0.2316  0.3063 -0.2066
  126OSM   H10F13521   7.295   6.796   7.753  1.1403 -0.4638  3.8220
  126OSM   C11F13522   7.404   6.627   7.830  0.2232  0.2038  0.5622
  126OSM   H11F13523   7.472   6.705   7.872  0.4101 -0.0210  0.6766
  126OSM   H11G13524   7.473   6.551   7.787  0.8645  0.4720  1.0919
  126OSM   C12F13525   7.306   6.562   7.922  0.6120  1.2896 -0.4661
  126OSM   H12F13526   7.267   6.470   7.873  1.3965  0.1141  1.0443
  126OSM   H12G13527   7.226   6.629   7.960 -0.9668 -1.4875  1.4278
  126OSM   C13F13528   7.368   6.507   8.053  0.5079 -0.0678  0.1720
  126OSM   H13F13529   7.468   6.463   8.034  0.7727  0.0898  1.1730
  126OSM   H13G13530   7.306   6.429   8.101 -0.7742 -0.2288 -1.6290
  126OSM   C14F13531   7.396   6.613   8.159  0.5300 -0.7222  1.1919
  126OSM   H14F13532   7.304   6.674   8.174  0.8824  0.5435 -1.3441
  126OSM   H14G13533   7.457   6.693   8.113  0.0929 -0.3243  1.2922
  126OSM   C15F13534   7.465   6.569   8.289  0.9329  0.0202  0.5462
  126OSM   H15F13535   7.568   6.535   8.263  0.1951 -0.5020 -1.9750
  126OSM   H15G13536   7.411   6.480   8.329 -0.7075  0.5345 -0.4379
  126OSM   C16F13537   7.470   6.678   8.389 -1.1040 -0.4581  0.3594
  126OSM   H16F13538   7.509   6.633   8.483  1.2088  0.0735 -0.2702
  126OSM   H16G13539   7.365   6.707   8.409 -1.0406  0.6923 -0.8404
  126OSM   C17F13540   7.550   6.803   8.356  0.6066  0.7051 -0.0017
  126OSM   H17F13541   7.512   6.859   8.268 -3.2772 -1.0667  0.3574
  126OSM   H17G13542   7.653   6.767   8.334  0.0660 -1.3394  0.5400
  126OSM   C18F13543   7.560   6.900   8.477 -0.1605 -0.2115  0.3260
  126OSM   H18F13544   7.467   6.961   8.490  0.6503  1.2352 -0.4066
  126OSM   H18G13545   7.642   6.970   8.449  0.0125 -0.7529 -0.5386
  126OSM   H18H13546   7.579   6.847   8.572 -0.4794  0.7432  0.9405
  127OSM      N13547   1.061   5.168   6.235 -0.2714 -0.2341 -0.1230
  127OSM    C1513548   1.159   5.124   6.133 -0.0851 -0.4505 -0.4136
  127OSM   H15A13549   1.139   5.021   6.107 -2.1646 -0.0740 -0.5333
  127OSM   H15B13550   1.262   5.126   6.164 -0.6783  2.0180  1.7401
  127OSM   H15C13551   1.153   5.177   6.039 -3.1764 -0.7459 -0.5136
  127OSM    C1413552   1.084   5.084   6.353 -0.4461 -0.1544 -0.2729
  127OSM   H14A13553   1.047   4.982   6.346 -1.1503 -0.1533  2.3069
  127OSM   H14B13554   1.021   5.125   6.431 -0.8317 -2.4408  0.7213
  127OSM   H14C13555   1.186   5.084   6.389  0.6915 -0.2783 -3.2795
  127OSM    C1313556   1.094   5.305   6.266  0.1537 -0.6810  0.5477
  127OSM   H13A13557   1.194   5.319   6.303  0.0099  2.1589  0.0860
  127OSM   H13B13558   1.024   5.342   6.340 -0.3702 -0.6585  0.0454
  127OSM   H13C13559   1.079   5.361   6.175 -0.7791 -3.1479 -0.9157
  127OSM    C1213560   0.916   5.148   6.196 -0.5030 -0.4778  0.1766
  127OSM   H12A13561   0.857   5.151   6.286 -1.0321  0.1755 -0.1905
  127OSM   H12B13562   0.907   5.047   6.159 -0.0660 -1.4594  2.5725
  127OSM    C1113563   0.850   5.250   6.098  0.3212  0.0431  0.0544
  127OSM   H11A13564   0.763   5.215   6.038 -0.5087  1.0297  0.6453
  127OSM   H11B13565   0.930   5.277   6.026 -0.6299 -1.0600 -1.4776
  127OSM      P13566   0.660   5.397   6.219 -0.0353 -0.0349  0.0498
  127OSM    O1313567   0.610   5.528   6.165 -0.5253 -0.0344 -0.9371
  127OSM    O1413568   0.578   5.277   6.179 -0.1521  0.2117 -0.2088
  127OSM    O1113569   0.684   5.416   6.374 -0.5143  0.4301  0.1267
  127OSM    O1213570   0.812   5.374   6.168  0.7361  0.3833 -0.3400
  127OSM    C1S13571   0.710   5.307   6.467  0.3978 -0.0016 -0.1730
  127OSM    H1S13572   0.803   5.258   6.434 -0.8624 -0.6027 -3.1499
  127OSM    H1T13573   0.631   5.231   6.451  0.4880 -0.1323  0.0051
  127OSM     NF13574   0.800   5.244   6.688  1.1061 -0.3106 -0.1556
  127OSM    HNF13575   0.740   5.173   6.725  1.5637 -0.8029 -0.3302
  127OSM    C2S13576   0.733   5.348   6.616  0.1525 -0.0511  0.0881
  127OSM    H2S13577   0.803   5.433   6.606 -1.2919  1.3636  1.3767
  127OSM    C3S13578   0.598   5.397   6.671 -0.1720 -0.2265 -0.1949
  127OSM    H3S13579   0.508   5.334   6.652 -0.0313  0.0686 -2.0554
  127OSM     O313580   0.560   5.521   6.615  0.0958  0.0743  0.2101
  127OSM    HO313581   0.607   5.518   6.531  0.5490  0.5114  0.4411
  127OSM    C4S13582   0.616   5.414   6.819  0.1210  0.6516 -0.2444
  127OSM    H4S13583   0.675   5.502   6.846  0.2930  1.2003 -2.2298
  127OSM    C5S13584   0.555   5.343   6.916  0.3915  0.2425  0.4610
  127OSM    H5S13585   0.500   5.252   6.890  0.3176 -0.5599  3.1494
  127OSM    C6S13586   0.579   5.367   7.064 -0.5778  0.2205  0.8252
  127OSM    H6S13587   0.481   5.345   7.111 -1.8213 -1.1641 -2.1436
  127OSM    H6T13588   0.618   5.466   7.094  0.1023 -0.5146  2.4739
  127OSM    C7S13589   0.693   5.270   7.107 -0.1956 -0.8298  0.1281
  127OSM    H7S13590   0.794   5.301   7.072  0.4321 -1.2565  1.5131
  127OSM    H7T13591   0.683   5.167   7.068 -0.0455 -0.6326 -0.4569
  127OSM    C8S13592   0.691   5.273   7.265 -0.9968  0.5533  0.4485
  127OSM    H8S13593   0.590   5.240   7.296  0.1501 -2.4383  1.3549
  127OSM    H8T13594   0.712   5.371   7.311  1.2761  0.1483  0.4274
  127OSM    C9S13595   0.794   5.172   7.327  0.1237 -0.0961  0.0548
  127OSM    H9S13596   0.797   5.183   7.438  1.1280 -0.4087  0.0637
  127OSM    H9T13597   0.897   5.204   7.301 -0.3191  2.0319  0.6962
  127OSM   C10S13598   0.772   5.028   7.293 -0.0978 -0.0582  0.3687
  127OSM   H10S13599   0.763   5.000   7.186  2.5994 -2.2360  0.6134
  127OSM   H10T13600   0.678   4.993   7.341 -0.2387 -0.8887 -0.4944
  127OSM   C11S13601   0.884   4.938   7.356 -0.1327 -0.8718  0.0574
  127OSM   H11S13602   0.979   4.993   7.340 -0.1292 -0.9183 -0.0825
  127OSM   H11T13603   0.879   4.835   7.316  1.0225 -1.2059  0.7637
  127OSM   C12S13604   0.874   4.919   7.506 -0.0353  0.1649 -0.7064
  127OSM   H12S13605   0.783   4.859   7.531 -0.4619  1.9015  2.4850
  127OSM   H12T13606   0.864   5.005   7.575  1.2710 -0.6799  0.6103
  127OSM   C13S13607   1.002   4.841   7.544  0.2837 -0.1495 -0.2885
  127OSM   H13S13608   1.095   4.893   7.511 -0.6504  1.8380  0.0980
  127OSM   H13T13609   1.001   4.749   7.481  0.2575 -1.8845  2.0851
  127OSM   C14S13610   1.016   4.813   7.695 -0.2248  0.5022 -0.2817
  127OSM   H14S13611   0.916   4.779   7.729  0.7785 -0.1993  2.1680
  127OSM   H14T13612   1.029   4.914   7.739  2.4763  1.0651 -2.1050
  127OSM   C15S13613   1.112   4.699   7.733 -0.7448  0.1954  0.3128
  127OSM   H15S13614   1.215   4.722   7.697 -0.6627 -1.9936 -1.0267
  127OSM   H15T13615   1.089   4.608   7.673  4.2267 -2.3623  1.7036
  127OSM   C16S13616   1.125   4.653   7.881  0.4724 -0.2594 -0.5822
  127OSM   H16S13617   1.138   4.746   7.939 -2.1051  1.2161 -2.1716
  127OSM   H16T13618   1.210   4.582   7.891  1.2948  0.6862 -0.7377
  127OSM   C17S13619   1.005   4.587   7.942  0.4981  0.8198  0.1316
  127OSM   H17S13620   0.994   4.489   7.891 -1.5313  1.4640 -0.7995
  127OSM   H17T13621   0.909   4.640   7.922  0.1141  0.4998  1.0698
  127OSM   C18S13622   1.020   4.558   8.090  0.2986 -0.1795 -0.3326
  127OSM   H18S13623   0.942   4.485   8.118 -1.2023  0.8039 -1.7104
  127OSM   H18T13624   1.012   4.647   8.156  2.7184 -0.6801  0.7301
  127OSM   H18U13625   1.113   4.503   8.113  0.9943  0.6209 -1.1235
  127OSM    C1F13626   0.929   5.215   6.658  0.2657 -0.0072  1.3399
  127OSM     OF13627   0.989   5.258   6.562 -0.7201  0.4733 -0.8103
  127OSM    C2F13628   0.993   5.120   6.758 -0.2302 -0.6427  0.9035
  127OSM    H2F13629   0.955   5.016   6.754  0.1240 -0.7345 -0.3536
  127OSM    H2G13630   0.967   5.157   6.860 -4.3668  1.0042 -0.5520
  127OSM    C3F13631   1.146   5.121   6.734 -0.3694  0.1368  0.6092
  127OSM    H3F13632   1.188   5.221   6.757  0.7096 -0.5009  1.4951
  127OSM    H3G13633   1.172   5.096   6.629 -1.7273  0.5056  0.1579
  127OSM    C4F13634   1.212   5.012   6.820  0.4123 -0.5743  0.2901
  127OSM    H4F13635   1.183   4.913   6.778 -3.7779  1.1380 -1.3723
  127OSM    H4G13636   1.176   5.037   6.922  1.7566  0.6581  0.4899
  127OSM    C5F13637   1.360   5.034   6.817  0.1790 -0.6834 -0.0202
  127OSM    H5F13638   1.378   5.142   6.834  1.0037 -0.4329 -2.1810
  127OSM    H5G13639   1.403   5.020   6.715  1.2609 -1.2593  0.4885
  127OSM    C6F13640   1.432   4.944   6.914 -0.0286 -0.1120 -0.4284
  127OSM    H6F13641   1.542   4.960   6.912  0.3282 -1.4808  2.8969
  127OSM    H6G13642   1.412   4.843   6.871 -2.2895 -0.1593  0.5876
  127OSM    C7F13643   1.385   4.945   7.065 -0.2352 -0.3605  0.5215
  127OSM    H7F13644   1.280   4.912   7.074 -0.2690 -0.5030 -0.2784
  127OSM    H7G13645   1.403   5.047   7.105 -0.8861  0.5375 -1.3596
  127OSM    C8F13646   1.472   4.862   7.157 -0.9049  0.3404  0.3244
  127OSM    H8F13647   1.578   4.861   7.125 -0.9782 -2.6649 -0.1167
  127OSM    H8G13648   1.451   4.755   7.139 -0.2343  0.2539  0.0165
  127OSM    C9F13649   1.467   4.896   7.304 -0.4471  0.1031  0.3637
  127OSM    H9F13650   1.383   4.961   7.336 -1.5543 -0.4011 -1.3655
  127OSM   C10F13651   1.562   4.854   7.391  0.1296  0.4619 -0.0522
  127OSM   H10F13652   1.556   4.880   7.498  0.3400 -0.2618  0.1369
  127OSM   C11F13653   1.682   4.770   7.374  0.0402  0.1739  0.4246
  127OSM   H11F13654   1.756   4.803   7.450 -2.0389  1.3375  2.0441
  127OSM   H11G13655   1.733   4.809   7.283  1.0440 -0.4913  0.6806
  127OSM   C12F13656   1.673   4.617   7.343 -0.4232 -0.0102  0.8740
  127OSM   H12F13657   1.575   4.574   7.370  0.0712 -2.1956 -0.5670
  127OSM   H12G13658   1.756   4.581   7.408 -0.0543  0.7880  0.8569
  127OSM   C13F13659   1.704   4.589   7.192  0.2894 -0.1359 -0.8577
  127OSM   H13F13660   1.808   4.623   7.175 -0.6962  2.6603 -1.9904
  127OSM   H13G13661   1.643   4.639   7.113 -1.8328 -1.9228 -0.4527
  127OSM   C14F13662   1.713   4.438   7.162  0.1583  0.1008  0.1021
  127OSM   H14F13663   1.766   4.387   7.246 -1.3175  0.3721  1.2596
  127OSM   H14G13664   1.772   4.437   7.068 -0.5840  0.5983 -0.3803
  127OSM   C15F13665   1.583   4.362   7.137 -1.1167 -0.1654 -0.6977
  127OSM   H15F13666   1.532   4.420   7.057 -0.3877  1.3516 -0.1090
  127OSM   H15G13667   1.522   4.353   7.230 -0.8737 -1.1162 -0.6220
  127OSM   C16F13668   1.613   4.216   7.093  0.3935  0.2200  0.0720
  127OSM   H16F13669   1.659   4.173   7.185 -3.0888 -1.3869  1.2527
  127OSM   H16G13670   1.671   4.224   6.999 -0.7058  0.0011 -0.6379
  127OSM   C17F13671   1.495   4.135   7.062  0.9193 -0.3951  1.2241
  127OSM   H17F13672   1.517   4.037   7.014 -1.6971 -0.1601 -0.6799
  127OSM   H17G13673   1.440   4.187   6.981  0.9398  0.1841  1.5834
  127OSM   C18F13674   1.390   4.110   7.175 -0.2386 -0.4628 -0.0154
  127OSM   H18F13675   1.307   4.184   7.176  1.4387  1.5477  1.4174
  127OSM   H18G13676   1.451   4.122   7.268 -0.4735 -1.4249  0.2717
  127OSM   H18H13677   1.349   4.009   7.155 -1.3746 -0.2412  1.0243
  128OSM      N13678   2.794   2.581   6.041 -0.1483  0.5958  0.1715
  128OSM    C1513679   2.944   2.573   5.996  0.7575  0.2587 -0.2586
  128OSM   H15A13680   2.988   2.480   6.029 -0.2866 -0.6208 -1.2704
  128OSM   H15B13681   2.994   2.653   6.047  0.2650  1.0797 -1.0317
  128OSM   H15C13682   2.958   2.580   5.889 -2.7889 -0.3761 -0.9126
  128OSM    C1413683   2.731   2.481   5.947  0.8603  0.0873  0.1286
  128OSM   H14A13684   2.766   2.485   5.845  1.3786 -2.7938  0.1141
  128OSM   H14B13685   2.623   2.489   5.955  0.7419 -0.2107 -0.9663
  128OSM   H14C13686   2.750   2.381   5.985 -1.0340 -0.3071  0.1647
  128OSM    C1313687   2.782   2.534   6.181  0.8288  0.6767 -0.5979
  128OSM   H13A13688   2.829   2.437   6.192 -1.7060 -0.6402 -0.5930
  128OSM   H13B13689   2.679   2.522   6.212  1.5277 -0.0101  1.6444
  128OSM   H13C13690   2.831   2.601   6.251  0.0031 -0.8526  1.5559
  128OSM    C1213691   2.730   2.719   6.022 -0.2964  0.7873  0.0340
  128OSM   H12A13692   2.625   2.707   6.045 -0.8021 -0.5869 -2.6068
  128OSM   H12B13693   2.724   2.743   5.917  0.5349  0.2321 -0.1531
  128OSM    C1113694   2.787   2.841   6.097  0.3821 -0.2715  0.7589
  128OSM   H11A13695   2.768   2.832   6.207 -1.1756  0.3485  0.5757
  128OSM   H11B13696   2.727   2.924   6.056  0.5084 -0.4474  0.2127
  128OSM      P13697   3.001   2.980   6.140  0.4879 -0.1424  0.2268
  128OSM    O1313698   3.133   2.996   6.088 -0.1485 -0.1649 -0.1049
  128OSM    O1413699   2.912   3.099   6.132  1.0357  0.0870  0.1513
  128OSM    O1113700   2.998   2.931   6.288  0.3128  0.9057  0.3736
  128OSM    O1213701   2.927   2.863   6.066  0.6720 -0.2819 -0.2767
  128OSM    C1S13702   3.068   2.809   6.328  0.1372  0.0532 -0.0594
  128OSM    H1S13703   3.171   2.809   6.285  0.5720  0.1654  0.9539
  128OSM    H1T13704   3.010   2.719   6.300  0.2152  0.0922 -0.3457
  128OSM     NF13705   3.164   2.712   6.540  0.3033  0.1303  1.0729
  128OSM    HNF13706   3.126   2.642   6.600 -0.3440  0.9644  1.6728
  128OSM    C2S13707   3.071   2.810   6.481  1.0338  0.1241 -0.2828
  128OSM    H2S13708   3.104   2.910   6.518 -0.2469 -0.0714  1.4814
  128OSM    C3S13709   2.923   2.790   6.534 -0.0035 -0.9948  0.8885
  128OSM    H3S13710   2.880   2.693   6.504 -0.5122 -0.2572 -0.8972
  128OSM     O313711   2.825   2.877   6.480  0.1096 -0.5800 -0.2658
  128OSM    HO313712   2.869   2.907   6.400  1.0636 -0.6060  0.2349
  128OSM    C4S13713   2.914   2.804   6.682 -0.3992 -0.6414  0.0209
  128OSM    H4S13714   2.893   2.711   6.736  3.2883 -0.5515  1.9429
  128OSM    C5S13715   2.944   2.918   6.752 -0.2718  0.4560 -0.1529
  128OSM    H5S13716   2.989   3.006   6.704 -0.3708 -0.0265 -1.1550
  128OSM    C6S13717   2.937   2.917   6.904 -0.4528 -0.8353  0.0290
  128OSM    H6S13718   2.921   2.813   6.942 -1.6710 -0.8905 -0.5689
  128OSM    H6T13719   2.857   2.982   6.946 -0.8176 -0.8096 -0.6807
  128OSM    C7S13720   3.066   2.973   6.980  0.7471 -0.3880  0.2528
  128OSM    H7S13721   3.105   3.070   6.942 -0.0079  0.1748  0.8695
  128OSM    H7T13722   3.144   2.899   6.956  1.6517  0.6223  0.0102
  128OSM    C8S13723   3.039   2.990   7.133 -0.2066 -0.6151 -0.1463
  128OSM    H8S13724   3.132   3.006   7.191 -1.0021  0.5784  0.8640
  128OSM    H8T13725   2.992   2.898   7.173 -1.5741  0.3737  0.6226
  128OSM    C9S13726   2.942   3.110   7.160  0.3824  0.2375 -0.5006
  128OSM    H9S13727   2.841   3.101   7.115 -0.7896  2.3813  1.4840
  128OSM    H9T13728   2.995   3.195   7.113  3.0399 -0.4945  0.9942
  128OSM   C10S13729   2.924   3.130   7.313  0.1489 -0.2219  0.1837
  128OSM   H10S13730   2.886   3.232   7.332  0.3870  0.0122 -0.5489
  128OSM   H10T13731   3.024   3.110   7.357 -0.5012 -1.9108  0.9550
  128OSM   C11S13732   2.824   3.039   7.396 -0.1825 -0.1313 -0.1056
  128OSM   H11S13733   2.834   2.932   7.368  0.7953  0.4790 -2.3201
  128OSM   H11T13734   2.728   3.080   7.358  0.2899  1.8548  0.7131
  128OSM   C12S13735   2.834   3.063   7.548 -0.1114 -0.8552 -0.0820
  128OSM   H12S13736   2.920   3.008   7.592 -0.1078 -0.6486  0.1700
  128OSM   H12T13737   2.745   3.014   7.595 -1.3932  0.0208 -1.4860
  128OSM   C13S13738   2.819   3.215   7.578 -0.2162  0.3926  0.3934
  128OSM   H13S13739   2.732   3.244   7.515 -1.4355 -2.2405  0.7067
  128OSM   H13T13740   2.903   3.277   7.540 -1.4253  1.2858 -0.9432
  128OSM   C14S13741   2.793   3.247   7.723 -0.0288 -0.0637 -0.5495
  128OSM   H14S13742   2.693   3.206   7.745  0.5879 -0.7792  1.0226
  128OSM   H14T13743   2.798   3.357   7.741  2.9889 -0.1930 -0.0764
  128OSM   C15S13744   2.901   3.185   7.811 -0.3496 -0.2913 -0.3636
  128OSM   H15S13745   3.002   3.218   7.778 -0.4948  2.5281  1.6130
  128OSM   H15T13746   2.900   3.076   7.789 -1.6023 -0.4799  0.5255
  128OSM   C16S13747   2.896   3.215   7.969  0.1552  0.9521  0.3494
  128OSM   H16S13748   2.799   3.188   8.014  0.8384  1.9165  2.5672
  128OSM   H16T13749   2.912   3.325   7.973 -0.5421  1.1252 -1.0205
  128OSM   C17S13750   3.000   3.136   8.047 -0.0548  0.1401 -0.4172
  128OSM   H17S13751   2.990   3.027   8.029  3.1689 -0.3673  0.3692
  128OSM   H17T13752   2.991   3.151   8.157  1.1438 -1.3890 -0.0757
  128OSM   C18S13753   3.146   3.182   8.007  0.2583 -0.1692 -0.0720
  128OSM   H18S13754   3.144   3.292   7.991  1.1401 -0.0886  0.3274
  128OSM   H18T13755   3.188   3.140   7.913 -1.3798  1.6948 -1.7249
  128OSM   H18U13756   3.216   3.152   8.088 -0.7841 -0.4992  0.7207
  128OSM    C1F13757   3.295   2.707   6.504  0.0496  0.2279  0.0778
  128OSM     OF13758   3.345   2.810   6.460 -0.2079  0.6422  0.3296
  128OSM    C2F13759   3.371   2.581   6.533  0.5346 -0.1851 -0.1818
  128OSM    H2F13760   3.376   2.530   6.435 -0.4532 -0.5769 -0.0432
  128OSM    H2G13761   3.306   2.526   6.604  1.1877 -0.6724  0.0433
  128OSM    C3F13762   3.511   2.596   6.587 -0.0663  0.5237 -0.1387
  128OSM    H3F13763   3.575   2.666   6.530 -1.1671  1.0687 -0.7271
  128OSM    H3G13764   3.566   2.499   6.580 -1.3709 -0.1875 -1.0797
  128OSM    C4F13765   3.524   2.645   6.733 -0.2644  0.7251  0.2517
  128OSM    H4F13766   3.420   2.654   6.769 -0.4941 -0.3096 -0.0965
  128OSM    H4G13767   3.560   2.750   6.728 -0.1668  0.6501 -1.0016
  128OSM    C5F13768   3.623   2.560   6.817  0.4263 -0.6905  0.5660
  128OSM    H5F13769   3.717   2.537   6.763  0.6844  2.7654 -0.6755
  128OSM    H5G13770   3.564   2.467   6.834  0.3629 -0.6354  0.6499
  128OSM    C6F13771   3.655   2.634   6.942 -0.3490  0.4836 -0.0143
  128OSM    H6F13772   3.567   2.673   6.998 -0.6351  1.2086 -0.9386
  128OSM    H6G13773   3.712   2.720   6.902 -0.0299 -0.3770 -1.4720
  128OSM    C7F13774   3.730   2.550   7.044 -0.1383 -0.4123  0.4747
  128OSM    H7F13775   3.836   2.533   7.014 -0.3588 -2.1712  0.6045
  128OSM    H7G13776   3.688   2.449   7.062  1.5200 -1.3862 -0.8238
  128OSM    C8F13777   3.731   2.609   7.184  0.5576 -0.0332 -0.1303
  128OSM    H8F13778   3.623   2.620   7.208  0.7618  1.6946  0.1066
  128OSM    H8G13779   3.770   2.713   7.186 -0.1679  0.2470  0.0188
  128OSM    C9F13780   3.801   2.516   7.279 -0.3129  0.8668 -0.0247
  128OSM    H9F13781   3.845   2.434   7.221 -1.4711  0.7873 -0.8085
  128OSM   C10F13782   3.791   2.507   7.411  0.5650  0.5764 -0.5453
  128OSM   H10F13783   3.850   2.439   7.475  0.1487 -0.4437 -1.2252
  128OSM   C11F13784   3.717   2.612   7.491 -0.6927 -0.7837  0.2418
  128OSM   H11F13785   3.616   2.634   7.449 -0.4015 -1.1739 -0.6596
  128OSM   H11G13786   3.770   2.709   7.497 -3.1223  0.8726 -2.3422
  128OSM   C12F13787   3.704   2.577   7.638  0.6033  0.1682 -0.5351
  128OSM   H12F13788   3.804   2.563   7.683  0.6909 -0.3739 -0.8940
  128OSM   H12G13789   3.655   2.477   7.640 -0.3826  0.6299 -0.8915
  128OSM   C13F13790   3.634   2.674   7.735 -0.0127  0.3513  0.3432
  128OSM   H13F13791   3.527   2.676   7.708  0.3875 -0.1044 -1.4200
  128OSM   H13G13792   3.681   2.775   7.730  0.6894  0.0089 -0.0837
  128OSM   C14F13793   3.651   2.639   7.881 -0.0584  0.6877  1.0682
  128OSM   H14F13794   3.757   2.628   7.911 -0.0483  1.1154  1.1893
  128OSM   H14G13795   3.609   2.536   7.888 -0.4939  0.7900  0.0960
  128OSM   C15F13796   3.578   2.737   7.975 -0.8255  0.0570 -0.0235
  128OSM   H15F13797   3.496   2.781   7.915 -0.8479  1.8790  1.2848
  128OSM   H15G13798   3.646   2.813   8.018  2.2500 -0.8430 -2.8364
  128OSM   C16F13799   3.512   2.655   8.091 -0.2735  0.2224 -1.2910
  128OSM   H16F13800   3.547   2.692   8.189 -1.3989  0.3621 -0.9292
  128OSM   H16G13801   3.533   2.548   8.070 -0.7257 -0.1768  0.1911
  128OSM   C17F13802   3.359   2.665   8.083  0.3178  0.4064  0.0755
  128OSM   H17F13803   3.326   2.584   8.151  2.5900 -1.3714 -0.7926
  128OSM   H17G13804   3.330   2.631   7.981 -1.6571 -1.8567  1.2981
  128OSM   C18F13805   3.310   2.801   8.121  0.4079  0.8103  0.3758
  128OSM   H18F13806   3.312   2.821   8.230 -0.5930  0.0077  0.5538
  128OSM   H18G13807   3.203   2.821   8.099  0.4336 -0.4797 -1.0968
  128OSM   H18H13808   3.374   2.877   8.072  0.5216  0.5746  0.1551
  129OSM      N13809   1.188   6.469   6.574 -0.4597 -0.2068 -0.1018
  129OSM    C1513810   1.225   6.371   6.687 -0.2921  0.0872  0.0559
  129OSM   H15A13811   1.333   6.372   6.690 -0.2877 -0.3312  0.0806
  129OSM   H15B13812   1.181   6.278   6.655 -2.5459  0.3688  2.0838
  129OSM   H15C13813   1.180   6.403   6.780  0.7774 -0.8363  0.9335
  129OSM    C1413814   1.246   6.603   6.594 -0.2626  0.1130  0.0386
  129OSM   H14A13815   1.217   6.673   6.517 -2.3007  0.6160  1.1799
  129OSM   H14B13816   1.354   6.601   6.584 -0.4616 -2.1996 -3.1532
  129OSM   H14C13817   1.208   6.647   6.685  1.2940  1.4890  0.0735
  129OSM    C1313818   1.237   6.414   6.441  0.8963  0.4993  0.0335
  129OSM   H13A13819   1.343   6.394   6.446  0.5773 -1.3082  0.2121
  129OSM   H13B13820   1.224   6.488   6.363  0.7005  0.8585  0.4056
  129OSM   H13C13821   1.190   6.319   6.422  0.0116  0.8050  0.6494
  129OSM    C1213822   1.034   6.467   6.570 -0.5619 -0.3574  0.0442
  129OSM   H12A13823   1.008   6.551   6.507  1.9347  0.9377  0.6109
  129OSM   H12B13824   1.000   6.488   6.670  0.5790 -0.0101  0.3750
  129OSM    C1113825   0.953   6.341   6.522 -0.0981  0.2544  0.9773
  129OSM   H11A13826   0.957   6.324   6.413 -4.0180  0.8017  0.5962
  129OSM   H11B13827   0.846   6.361   6.546 -0.0174  2.1278 -0.0847
  129OSM      P13828   1.018   6.096   6.513 -0.2903  0.2200  0.3788
  129OSM    O1313829   0.891   6.044   6.465 -0.2570  0.3415  0.3751
  129OSM    O1413830   1.116   6.119   6.406 -0.2525  0.2706  0.2476
  129OSM    O1113831   1.076   5.998   6.616 -0.7260  0.2597 -0.5333
  129OSM    O1213832   0.988   6.224   6.592  0.1395  0.0405 -0.0724
  129OSM    C1S13833   1.063   6.021   6.760 -0.4275  0.8020  0.2146
  129OSM    H1S13834   0.962   5.985   6.791 -0.9627  2.3444  0.3663
  129OSM    H1T13835   1.077   6.122   6.804  1.0033  0.0297  1.6074
  129OSM     NF13836   1.144   5.964   6.981 -0.0768 -0.0235 -0.2490
  129OSM    HNF13837   1.209   6.036   7.005 -0.0977  0.1219 -0.6244
  129OSM    C2S13838   1.161   5.927   6.844  0.6123  0.0863  0.2765
  129OSM    H2S13839   1.127   5.822   6.832  2.4067 -0.3211 -2.0162
  129OSM    C3S13840   1.308   5.941   6.784  0.1360  0.4308  0.3586
  129OSM    H3S13841   1.344   6.045   6.795  0.4861  0.4006 -0.4532
  129OSM     O313842   1.320   5.905   6.647 -0.0460 -0.0274 -0.0691
  129OSM    HO313843   1.232   5.918   6.613  0.2988  0.7545 -0.6833
  129OSM    C4S13844   1.406   5.854   6.864 -1.0663  0.5496  0.1749
  129OSM    H4S13845   1.398   5.747   6.840 -0.2650  0.3321  0.8262
  129OSM    C5S13846   1.500   5.887   6.958  0.2664  0.4597  0.4374
  129OSM    H5S13847   1.526   5.993   6.971  2.0312  0.1108  0.0794
  129OSM    C6S13848   1.583   5.789   7.026 -0.5980 -0.4223 -0.1676
  129OSM    H6S13849   1.691   5.812   7.013 -0.4668  1.2991  3.0461
  129OSM    H6T13850   1.577   5.686   6.985 -1.2859 -0.4733  0.0528
  129OSM    C7S13851   1.538   5.780   7.172  0.0938  0.5772  0.6471
  129OSM    H7S13852   1.432   5.752   7.191  0.0855  0.2984  0.2075
  129OSM    H7T13853   1.549   5.883   7.214  0.6756  0.6928  0.2250
  129OSM    C8S13854   1.615   5.681   7.255  0.1726  0.2992  0.0750
  129OSM    H8S13855   1.720   5.685   7.219 -0.2022  1.1227 -1.0025
  129OSM    H8T13856   1.578   5.581   7.220 -1.6277 -0.0804  2.7456
  129OSM    C9S13857   1.595   5.683   7.409  0.2604 -0.6721  0.5491
  129OSM    H9S13858   1.485   5.696   7.419 -0.0919 -1.6419 -1.4618
  129OSM    H9T13859   1.643   5.775   7.449 -0.5143  0.3644 -0.8204
  129OSM   C10S13860   1.646   5.561   7.484  0.5524 -0.4226  0.2843
  129OSM   H10S13861   1.725   5.511   7.425 -0.7451  0.7196 -2.6374
  129OSM   H10T13862   1.564   5.487   7.475  0.6735 -0.3417 -1.8165
  129OSM   C11S13863   1.667   5.592   7.636  0.2496 -0.1321 -0.0460
  129OSM   H11S13864   1.582   5.648   7.680 -0.0973  0.7302 -1.7372
  129OSM   H11T13865   1.757   5.655   7.657  0.3493  0.0147 -0.8916
  129OSM   C12S13866   1.678   5.465   7.722  0.6433  0.0199  0.9135
  129OSM   H12S13867   1.772   5.413   7.694 -0.7949 -1.3033 -1.9761
  129OSM   H12T13868   1.598   5.393   7.692  1.7976 -1.2466  0.7497
  129OSM   C13S13869   1.674   5.491   7.876 -0.4233 -0.5053  0.0222
  129OSM   H13S13870   1.570   5.530   7.883  0.7978  2.7296  2.2680
  129OSM   H13T13871   1.745   5.574   7.896  0.4573 -1.6823  2.0570
  129OSM   C14S13872   1.701   5.370   7.958  0.6109  0.4171  0.5532
  129OSM   H14S13873   1.795   5.324   7.921 -0.3424 -0.2685 -1.1475
  129OSM   H14T13874   1.621   5.298   7.929 -0.4751  1.9211 -0.2920
  129OSM   C15S13875   1.714   5.387   8.109 -0.2547  0.0328  0.4089
  129OSM   H15S13876   1.636   5.455   8.150  0.0763 -0.5844  2.1680
  129OSM   H15T13877   1.808   5.431   8.150  0.0402 -2.0546  2.1869
  129OSM   C16S13878   1.706   5.248   8.176  0.1815 -0.1002 -0.2803
  129OSM   H16S13879   1.787   5.188   8.130 -0.5507 -1.6820  0.4325
  129OSM   H16T13880   1.609   5.197   8.156 -0.5147  0.0892  2.2586
  129OSM   C17S13881   1.710   5.256   8.331  0.3509  0.4893 -0.1329
  129OSM   H17S13882   1.796   5.317   8.366 -0.3523  0.8717  0.9843
  129OSM   H17T13883   1.727   5.152   8.366  1.3898  0.8680  0.5133
  129OSM   C18S13884   1.578   5.303   8.391  0.5307 -0.3728 -0.7157
  129OSM   H18S13885   1.598   5.359   8.484  0.1729 -1.9138  0.3320
  129OSM   H18T13886   1.527   5.210   8.424 -0.5657 -0.0315 -1.4125
  129OSM   H18U13887   1.517   5.360   8.318  1.8963  0.5308 -1.2023
  129OSM    C1F13888   1.040   5.928   7.060  0.5781  0.5755 -0.0995
  129OSM     OF13889   0.949   5.865   7.012 -0.1022  0.2955  0.0250
  129OSM    C2F13890   1.053   5.951   7.205  0.4872  0.3955 -0.6113
  129OSM    H2F13891   1.035   5.851   7.250  1.7449  0.2262 -0.4451
  129OSM    H2G13892   0.966   6.017   7.224 -0.0523 -0.6945  0.9339
  129OSM    C3F13893   1.185   6.015   7.244 -0.7204 -0.6614  0.0642
  129OSM    H3F13894   1.183   6.119   7.207 -0.8486 -0.5405  0.4047
  129OSM    H3G13895   1.272   5.961   7.200 -0.8426 -1.1609  0.4158
  129OSM    C4F13896   1.221   6.011   7.393  0.5234 -0.0810  0.7806
  129OSM    H4F13897   1.248   5.908   7.424  0.6501 -0.2162  0.2211
  129OSM    H4G13898   1.126   6.034   7.447 -0.4167  1.1113 -1.2631
  129OSM    C5F13899   1.333   6.117   7.428  0.2204  0.0822 -0.1212
  129OSM    H5F13900   1.293   6.214   7.394  2.6510  0.4402 -2.2385
  129OSM    H5G13901   1.428   6.098   7.375  0.0173 -1.6458  0.0536
  129OSM    C6F13902   1.365   6.132   7.574  0.4225 -0.8423  0.2839
  129OSM    H6F13903   1.262   6.136   7.614  0.5427  2.7745  0.5037
  129OSM    H6G13904   1.404   6.233   7.597 -0.4478  0.1353 -2.1279
  129OSM    C7F13905   1.438   6.017   7.647 -0.9215 -0.6110 -0.3033
  129OSM    H7F13906   1.544   5.999   7.619 -0.8478 -2.0597  0.7961
  129OSM    H7G13907   1.387   5.925   7.610  1.0140 -1.7674 -0.2361
  129OSM    C8F13908   1.431   6.029   7.802 -0.0664  0.0959  0.6728
  129OSM    H8F13909   1.325   6.046   7.828  0.0750 -2.7833  3.8423
  129OSM    H8G13910   1.500   6.113   7.826  1.0283 -0.1066 -1.4785
  129OSM    C9F13911   1.477   5.890   7.870  0.1733 -0.3479  0.1561
  129OSM    H9F13912   1.574   5.859   7.828  0.3409 -0.9753  0.9858
  129OSM   C10F13913   1.418   5.836   7.980  0.3062 -0.3526 -0.4833
  129OSM   H10F13914   1.457   5.742   8.021  1.8754  0.2071 -0.6076
  129OSM   C11F13915   1.291   5.888   8.046  0.7527 -0.1136  0.4138
  129OSM   H11F13916   1.213   5.810   8.052  0.6420  0.0354  0.9657
  129OSM   H11G13917   1.244   5.976   7.998 -2.0178 -1.0911  1.1313
  129OSM   C12F13918   1.312   5.927   8.196  0.3390 -0.0643  0.6786
  129OSM   H12F13919   1.348   5.830   8.239  1.5798 -1.3082 -2.7768
  129OSM   H12G13920   1.217   5.962   8.241 -0.0908  1.2995 -1.2018
  129OSM   C13F13921   1.425   6.039   8.208  0.5328  0.2349  0.4574
  129OSM   H13F13922   1.387   6.117   8.139 -1.8176 -2.2746 -1.3200
  129OSM   H13G13923   1.517   5.991   8.169  0.3401  0.5230 -0.3761
  129OSM   C14F13924   1.441   6.098   8.348 -0.5819  0.2534 -0.2209
  129OSM   H14F13925   1.337   6.113   8.387 -0.7865 -1.2044 -0.1181
  129OSM   H14G13926   1.486   6.199   8.345  2.0903 -0.8332  0.6791
  129OSM   C15F13927   1.536   6.028   8.453  0.1446 -0.5311  0.2997
  129OSM   H15F13928   1.637   6.011   8.411 -0.4611  1.3852 -2.2272
  129OSM   H15G13929   1.494   5.927   8.474 -0.1069 -1.1578 -2.7272
  129OSM   C16F13930   1.564   6.127   8.570  0.0409 -0.6503  0.4795
  129OSM   H16F13931   1.463   6.157   8.607 -0.2102  1.5716 -1.7769
  129OSM   H16G13932   1.609   6.222   8.534  0.3336 -0.8554  0.3026
  129OSM   C17F13933   1.615   6.063   8.696  0.4368 -0.2285  0.0601
  129OSM   H17F13934   1.674   5.979   8.654  2.5551  1.0080  0.3647
  129OSM   H17G13935   1.537   6.016   8.760  0.0887  2.2748  1.6411
  129OSM   C18F13936   1.696   6.154   8.792 -0.7615 -0.1462 -0.1409
  129OSM   H18F13937   1.625   6.233   8.823 -0.6729  0.0200 -0.3587
  129OSM   H18G13938   1.785   6.195   8.738 -1.2898  0.4562 -0.5656
  129OSM   H18H13939   1.731   6.086   8.873 -1.7180 -2.2545 -1.4086
  130OSM      N13940   5.642   1.262   5.937 -0.2862 -0.2834  0.0314
  130OSM    C1513941   5.733   1.202   5.843 -0.0700  0.8235  0.4412
  130OSM   H15A13942   5.710   1.243   5.746  1.4873 -0.6032 -0.5889
  130OSM   H15B13943   5.726   1.094   5.842  0.1298  0.8110 -0.5188
  130OSM   H15C13944   5.838   1.222   5.861  0.1824 -0.7098  0.8452
  130OSM    C1413945   5.657   1.408   5.950 -0.5051  0.9340 -0.1702
  130OSM   H14A13946   5.654   1.465   5.858  2.4895  2.2240  0.4204
  130OSM   H14B13947   5.747   1.432   6.004  0.0424 -0.8832 -0.2112
  130OSM   H14C13948   5.570   1.449   6.001 -0.6972 -1.3476  1.4505
  130OSM    C1313949   5.498   1.249   5.878 -0.6500 -0.3428  0.1746
  130OSM   H13A13950   5.467   1.146   5.868  1.2040 -0.8294 -1.1498
  130OSM   H13B13951   5.482   1.290   5.779  0.9035  1.1076  0.4808
  130OSM   H13C13952   5.429   1.307   5.937 -0.9904 -0.7410  0.1751
  130OSM    C1213953   5.654   1.195   6.073 -0.3153  0.1565  0.3276
  130OSM   H12A13954   5.756   1.214   6.101 -0.7940  3.6515  0.2232
  130OSM   H12B13955   5.627   1.091   6.060 -0.8563  0.4736 -1.3352
  130OSM    C1113956   5.575   1.255   6.197 -0.7431  0.2750  0.1853
  130OSM   H11A13957   5.614   1.359   6.205  2.5081 -0.6091 -1.9099
  130OSM   H11B13958   5.596   1.192   6.286 -0.3793  2.7245  1.9357
  130OSM      P13959   5.336   1.144   6.183 -0.1770 -0.5079 -0.1521
  130OSM    O1313960   5.206   1.193   6.141 -0.2596 -0.2881  0.7044
  130OSM    O1413961   5.383   1.017   6.126  0.0754  0.0887 -0.1473
  130OSM    O1113962   5.338   1.125   6.339 -0.0342 -0.0911  0.3358
  130OSM    O1213963   5.437   1.266   6.164  0.5415 -0.4082 -0.0490
  130OSM    C1S13964   5.317   1.234   6.430  0.3006  0.4079 -0.7170
  130OSM    H1S13965   5.212   1.268   6.421 -0.3361 -1.2916 -0.0287
  130OSM    H1T13966   5.389   1.315   6.402  1.5747 -0.8025 -1.0591
  130OSM     NF13967   5.250   1.262   6.657 -0.0127  0.3895 -0.2045
  130OSM    HNF13968   5.283   1.352   6.687 -3.4052  0.6895  3.5164
  130OSM    C2S13969   5.337   1.182   6.573  0.0892 -0.0628  0.2960
  130OSM    H2S13970   5.309   1.075   6.582 -1.4846  0.3169  0.2684
  130OSM    C3S13971   5.490   1.187   6.612 -0.3255  0.0214  0.3928
  130OSM    H3S13972   5.524   1.292   6.603  0.7230 -0.4028 -0.8240
  130OSM     O313973   5.571   1.110   6.523  0.1437  0.0204  0.2778
  130OSM    HO313974   5.523   1.088   6.443  2.8614 -0.7976 -1.2439
  130OSM    C4S13975   5.500   1.123   6.742  0.3774 -0.3547 -0.3138
  130OSM    H4S13976   5.486   1.014   6.747  0.7352 -0.3673  0.5079
  130OSM    C5S13977   5.517   1.199   6.849  0.2653 -0.3840  0.2984
  130OSM    H5S13978   5.509   1.308   6.842 -0.1932 -0.4576 -0.3992
  130OSM    C6S13979   5.528   1.142   6.984  0.7051  0.5174  0.4448
  130OSM    H6S13980   5.631   1.130   7.023  0.7920  0.1897  0.1117
  130OSM    H6T13981   5.481   1.041   6.986  1.2054  0.2687  3.0517
  130OSM    C7S13982   5.445   1.229   7.084  0.3836 -0.4825  0.0054
  130OSM    H7S13983   5.334   1.217   7.078 -0.1973  2.7592  1.7827
  130OSM    H7T13984   5.457   1.339   7.079 -1.8751 -0.0136  2.3511
  130OSM    C8S13985   5.488   1.185   7.230  0.2663 -0.8857 -0.1211
  130OSM    H8S13986   5.474   1.269   7.302  3.9364  1.2557 -1.5916
  130OSM    H8T13987   5.598   1.171   7.224  0.1668 -1.5879 -0.3227
  130OSM    C9S13988   5.422   1.059   7.280  0.2443  0.3763  0.4327
  130OSM    H9S13989   5.458   0.968   7.227 -0.7663  0.9815 -1.4150
  130OSM    H9T13990   5.314   1.057   7.252  0.2923 -0.3812  0.2695
  130OSM   C10S13991   5.450   1.019   7.423  0.3530 -0.3355 -0.7061
  130OSM   H10S13992   5.555   1.027   7.458  0.2196  0.2304 -0.4274
  130OSM   H10T13993   5.418   0.915   7.448  1.7188 -0.4249  0.7763
  130OSM   C11S13994   5.365   1.107   7.522 -0.2379 -0.4420 -0.5567
  130OSM   H11S13995   5.255   1.103   7.508 -0.4900  0.1007  1.0683
  130OSM   H11T13996   5.393   1.213   7.502  0.6829 -0.5234  0.1929
  130OSM   C12S13997   5.396   1.076   7.673 -0.3842  0.1194 -0.0416
  130OSM   H12S13998   5.504   1.083   7.695 -0.2857 -1.3676  0.0806
  130OSM   H12T13999   5.375   0.972   7.709 -4.0516  1.1142  1.1367
  130OSM   C13S14000   5.321   1.167   7.773 -0.3528  0.1465  0.0115
  130OSM   H13S14001   5.211   1.168   7.764 -0.2097  0.4980 -2.6214
  130OSM   H13T14002   5.350   1.274   7.759 -2.8760  0.7767 -0.8612
  130OSM   C14S14003   5.344   1.129   7.917 -0.5819  0.5863  0.2520
  130OSM   H14S14004   5.452   1.134   7.942 -0.3923 -0.2167 -0.3497
  130OSM   H14T14005   5.309   1.025   7.932  1.0871 -0.4542 -2.3623
  130OSM   C15S14006   5.270   1.224   8.007 -0.4706  0.3656 -0.4906
  130OSM   H15S14007   5.161   1.219   7.986 -0.4370 -0.4126 -0.4825
  130OSM   H15T14008   5.304   1.329   7.988  0.1856 -0.1770 -2.6135
  130OSM   C16S14009   5.277   1.187   8.164 -0.0986 -0.3176  0.1092
  130OSM   H16S14010   5.382   1.214   8.188 -0.2438  2.2254 -1.6823
  130OSM   H16T14011   5.251   1.079   8.168  2.1822 -1.0000 -1.3291
  130OSM   C17S14012   5.171   1.261   8.256 -0.3802  1.3243  0.7484
  130OSM   H17S14013   5.066   1.240   8.226  0.0219  0.7713 -0.3159
  130OSM   H17T14014   5.175   1.372   8.246 -3.9049  1.4831 -0.4940
  130OSM   C18S14015   5.189   1.215   8.399 -0.1848 -0.0688 -0.1766
  130OSM   H18S14016   5.289   1.243   8.437 -0.8241 -0.6947  2.1233
  130OSM   H18T14017   5.166   1.107   8.404  1.0327 -0.3038  0.8576
  130OSM   H18U14018   5.117   1.263   8.469  1.9145  0.1081  1.9661
  130OSM    C1F14019   5.122   1.241   6.668 -0.7347 -0.9430  0.2950
  130OSM     OF14020   5.067   1.141   6.621 -0.2320  0.0716  0.6943
  130OSM    C2F14021   5.034   1.342   6.742 -0.5948  0.5704  0.3599
  130OSM    H2F14022   4.962   1.388   6.671 -1.5027  1.7057  1.9803
  130OSM    H2G14023   5.102   1.428   6.762 -0.2035  0.4041 -0.1942
  130OSM    C3F14024   4.962   1.271   6.858 -0.1204  0.3050 -0.1147
  130OSM    H3F14025   4.897   1.189   6.820 -0.3712  0.1997  0.5243
  130OSM    H3G14026   4.895   1.346   6.905 -1.7681  0.7787 -2.9817
  130OSM    C4F14027   5.049   1.218   6.976 -1.1999  0.9373  0.3869
  130OSM    H4F14028   5.103   1.304   7.021 -2.2303  0.3067  3.0248
  130OSM    H4G14029   5.120   1.141   6.938 -1.3281 -0.1455  2.2460
  130OSM    C5F14030   4.956   1.156   7.083 -0.7336  0.4256  0.7875
  130OSM    H5F14031   5.026   1.104   7.152  1.1483  0.1988 -1.1637
  130OSM    H5G14032   4.891   1.075   7.044 -1.3903  0.2328  2.2141
  130OSM    C6F14033   4.861   1.254   7.152  0.1856 -0.6089 -0.2843
  130OSM    H6F14034   4.799   1.291   7.067  1.5672  1.6189 -0.4070
  130OSM    H6G14035   4.907   1.348   7.190 -0.7852 -0.6997  1.2035
  130OSM    C7F14036   4.782   1.192   7.266  0.2130  0.2682  0.4264
  130OSM    H7F14037   4.715   1.122   7.212  0.9754  1.1797 -1.8277
  130OSM    H7G14038   4.713   1.264   7.315 -0.5844  2.2810 -3.2446
  130OSM    C8F14039   4.845   1.100   7.365 -0.7610 -0.1691 -0.1447
  130OSM    H8F14040   4.898   1.011   7.326  2.8725  1.6766  0.2418
  130OSM    H8G14041   4.773   1.059   7.440 -0.3275 -1.3690 -0.3536
  130OSM    C9F14042   4.949   1.196   7.425 -0.3637 -0.4348 -0.8231
  130OSM    H9F14043   5.043   1.203   7.368 -0.1966 -1.8510 -0.7559
  130OSM   C10F14044   4.938   1.265   7.545  0.2039  0.1878 -0.2606
  130OSM   H10F14045   5.021   1.331   7.576  1.3193 -2.1825  2.2212
  130OSM   C11F14046   4.830   1.259   7.653  0.8830  0.1267 -0.3813
  130OSM   H11F14047   4.741   1.197   7.628  1.5483 -0.4940 -1.2794
  130OSM   H11G14048   4.792   1.359   7.683  1.2224  0.4305 -0.9424
  130OSM   C12F14049   4.891   1.187   7.776 -0.0557  0.0152  0.9816
  130OSM   H12F14050   4.993   1.225   7.797 -0.1101  0.0377  1.2041
  130OSM   H12G14051   4.895   1.083   7.737  3.6034 -0.6475  2.6139
  130OSM   C13F14052   4.803   1.186   7.898  0.0027  0.7907 -0.1493
  130OSM   H13F14053   4.698   1.155   7.880 -0.1477 -2.0208  4.0884
  130OSM   H13G14054   4.798   1.293   7.929  0.6053  1.1202 -1.1511
  130OSM   C14F14055   4.857   1.101   8.015 -0.1533  0.2724  0.2370
  130OSM   H14F14056   4.965   1.125   8.020  0.2221 -1.1813 -0.3063
  130OSM   H14G14057   4.841   0.996   7.983 -0.5112  0.0437  1.1578
  130OSM   C15F14058   4.798   1.139   8.151 -0.1582 -0.3815 -0.5002
  130OSM   H15F14059   4.688   1.149   8.134 -0.2704  1.4543  0.9311
  130OSM   H15G14060   4.837   1.240   8.175 -0.1011 -0.3025 -0.9108
  130OSM   C16F14061   4.822   1.050   8.274  0.0542 -0.3962  0.0829
  130OSM   H16F14062   4.932   1.036   8.272  0.0285 -1.1028  1.9504
  130OSM   H16G14063   4.791   0.944   8.259  0.2779 -0.4718  0.1515
  130OSM   C17F14064   4.769   1.107   8.409 -0.6650  0.3681 -0.7847
  130OSM   H17F14065   4.757   1.217   8.420  1.1741  0.5156  0.2669
  130OSM   H17G14066   4.831   1.066   8.492 -0.9124  1.6161  0.0470
  130OSM   C18F14067   4.633   1.050   8.441 -0.2657  0.1297 -1.2915
  130OSM   H18F14068   4.605   1.080   8.544  1.8485  2.3086 -1.2653
  130OSM   H18G14069   4.621   0.940   8.437 -2.0873  0.1998  0.5291
  130OSM   H18H14070   4.555   1.091   8.373 -2.0923  1.1442  1.2562
  131OSM      N14071   1.281   3.860   5.595 -0.3548 -0.3079  0.3098
  131OSM    C1514072   1.142   3.913   5.611 -0.3991  0.5765  0.6504
  131OSM   H15A14073   1.088   3.849   5.680 -0.6707 -0.9865 -0.9446
  131OSM   H15B14074   1.090   3.901   5.517  4.3574 -0.1543 -2.1832
  131OSM   H15C14075   1.142   4.012   5.654  0.7665  0.3272  1.2669
  131OSM    C1414076   1.274   3.715   5.560 -0.0856  0.0117  0.0066
  131OSM   H14A14077   1.377   3.681   5.564 -0.2153 -0.3221  2.4847
  131OSM   H14B14078   1.230   3.701   5.463  0.3290 -0.1366 -0.1608
  131OSM   H14C14079   1.220   3.656   5.633 -0.2142 -0.0260 -0.1198
  131OSM    C1314080   1.356   3.941   5.484 -0.5328 -0.7666 -0.1569
  131OSM   H13A14081   1.307   3.930   5.388 -1.6064  0.6272  0.1909
  131OSM   H13B14082   1.458   3.906   5.481  0.0877  0.7048  1.6772
  131OSM   H13C14083   1.364   4.045   5.513  1.3991 -0.8335 -0.3516
  131OSM    C1214084   1.352   3.873   5.726 -0.2680 -0.7790 -0.1658
  131OSM   H12A14085   1.376   3.976   5.747  2.4184 -1.4586  0.5386
  131OSM   H12B14086   1.447   3.822   5.719  0.4424  0.2871  1.1939
  131OSM    C1114087   1.287   3.818   5.862  0.0533 -0.9473 -0.0608
  131OSM   H11A14088   1.206   3.888   5.892 -0.1628 -1.8701  1.6130
  131OSM   H11B14089   1.354   3.835   5.949 -0.5022 -1.2058  0.4304
  131OSM      P14090   1.331   3.561   5.881  0.0674  0.0422  0.8191
  131OSM    O1314091   1.269   3.439   5.812 -0.1797 -0.6001 -0.0800
  131OSM    O1414092   1.465   3.597   5.835 -0.2595 -0.2240  0.6394
  131OSM    O1114093   1.338   3.543   6.033 -0.0192 -0.2438  0.1064
  131OSM    O1214094   1.235   3.686   5.859 -0.0295  0.1172  0.8157
  131OSM    C1S14095   1.230   3.586   6.112  0.6551 -0.3712 -0.3056
  131OSM    H1S14096   1.134   3.534   6.090 -0.0531  0.7172  0.1216
  131OSM    H1T14097   1.209   3.695   6.105 -0.5347 -0.5385  0.3889
  131OSM     NF14098   1.129   3.567   6.343  0.6055 -0.0793 -0.3829
  131OSM    HNF14099   1.110   3.658   6.379  0.5581  0.9308 -2.7478
  131OSM    C2S14100   1.249   3.565   6.267 -0.7133  0.5579  0.4153
  131OSM    H2S14101   1.300   3.467   6.281  0.1065  1.0135  0.7229
  131OSM    C3S14102   1.357   3.670   6.315 -0.2655  0.5844  0.1877
  131OSM    H3S14103   1.301   3.764   6.334 -1.3736 -0.2402  1.1829
  131OSM     O314104   1.466   3.700   6.225 -0.2925 -0.0548 -0.0397
  131OSM    HO314105   1.439   3.642   6.152 -1.3928 -0.9187  0.9979
  131OSM    C4S14106   1.416   3.631   6.443 -0.0371 -0.0766 -0.7601
  131OSM    H4S14107   1.353   3.664   6.527 -0.1824  2.0838 -1.6475
  131OSM    C5S14108   1.531   3.553   6.468  0.0172 -0.7821  0.8005
  131OSM    H5S14109   1.582   3.512   6.380  0.0857  3.1847 -1.2540
  131OSM    C6S14110   1.580   3.524   6.604  0.6419 -0.0102  0.4986
  131OSM    H6S14111   1.688   3.550   6.611  1.4713 -2.4508 -1.9067
  131OSM    H6T14112   1.574   3.416   6.626 -2.1939  0.5299  3.2704
  131OSM    C7S14113   1.505   3.597   6.715  0.4274  0.1146 -1.1274
  131OSM    H7S14114   1.404   3.554   6.731  0.5094  0.3368  0.0820
  131OSM    H7T14115   1.481   3.699   6.678  1.2220 -0.0455 -2.1435
  131OSM    C8S14116   1.576   3.594   6.844 -0.8684  0.7689 -0.4885
  131OSM    H8S14117   1.672   3.646   6.823  0.8768 -1.2396  1.8145
  131OSM    H8T14118   1.606   3.490   6.871 -1.5257  0.1273 -2.1414
  131OSM    C9S14119   1.489   3.653   6.949  0.3888  0.0501  0.1740
  131OSM    H9S14120   1.403   3.584   6.957  1.8755 -1.9218  0.1078
  131OSM    H9T14121   1.451   3.749   6.909  3.1155  1.4506  0.6449
  131OSM   C10S14122   1.565   3.671   7.078 -0.4020 -0.5915  1.2630
  131OSM   H10S14123   1.631   3.760   7.067  0.6820 -1.5580 -0.6263
  131OSM   H10T14124   1.646   3.596   7.088  2.8369  2.5182  0.3444
  131OSM   C11S14125   1.475   3.692   7.202 -0.7190  0.3853  0.0981
  131OSM   H11S14126   1.425   3.596   7.226 -1.4722  0.0994 -2.3258
  131OSM   H11T14127   1.407   3.763   7.149 -0.0915  0.6480 -0.3650
  131OSM   C12S14128   1.540   3.759   7.318  0.4099 -0.6268  0.6672
  131OSM   H12S14129   1.578   3.855   7.279 -2.1104  0.1724  0.0024
  131OSM   H12T14130   1.625   3.701   7.360  0.5632 -2.2905 -1.7246
  131OSM   C13S14131   1.451   3.804   7.438  0.1110 -0.0080  0.2206
  131OSM   H13S14132   1.389   3.892   7.410  0.1514  0.2723  1.0083
  131OSM   H13T14133   1.525   3.842   7.511  0.2344  0.4918 -0.1528
  131OSM   C14S14134   1.367   3.698   7.516 -0.2294  0.0303  0.3274
  131OSM   H14S14135   1.433   3.624   7.568  0.8238 -0.6160 -1.8235
  131OSM   H14T14136   1.308   3.634   7.448  1.4491 -1.8622  0.5377
  131OSM   C15S14137   1.260   3.760   7.613  0.0332  0.1786  0.1410
  131OSM   H15S14138   1.221   3.670   7.666  1.2660 -0.7994 -0.5514
  131OSM   H15T14139   1.175   3.807   7.558  0.3720 -2.4610 -2.9750
  131OSM   C16S14140   1.304   3.867   7.712 -0.0469  0.2532  0.1404
  131OSM   H16S14141   1.218   3.875   7.781 -1.1732  0.3748 -1.2235
  131OSM   H16T14142   1.306   3.970   7.669  1.5181  0.7610  1.3400
  131OSM   C17S14143   1.432   3.825   7.789  0.5698 -0.2131  0.1393
  131OSM   H17S14144   1.529   3.829   7.734  0.7837 -1.1161  0.4248
  131OSM   H17T14145   1.421   3.716   7.809 -1.0295 -0.3085 -1.0508
  131OSM   C18S14146   1.447   3.909   7.914 -0.1615 -0.1822  0.3070
  131OSM   H18S14147   1.545   3.899   7.967  1.2269  0.6878 -1.9330
  131OSM   H18T14148   1.368   3.882   7.986 -0.5387 -0.1910 -0.1065
  131OSM   H18U14149   1.425   4.014   7.884 -0.4398 -0.6850 -1.3345
  131OSM    C1F14150   1.033   3.474   6.355  0.3386  0.0051 -0.5328
  131OSM     OF14151   1.036   3.376   6.281  0.3016 -0.1116 -0.3336
  131OSM    C2F14152   0.933   3.494   6.466  0.5723  0.0658  0.3269
  131OSM    H2F14153   0.837   3.532   6.427  0.2091  0.0897  1.2225
  131OSM    H2G14154   0.965   3.573   6.537 -0.9362  0.7486  0.2892
  131OSM    C3F14155   0.906   3.365   6.549  0.4004 -0.7496  0.3066
  131OSM    H3F14156   0.863   3.287   6.484  2.2678  0.7248 -2.9685
  131OSM    H3G14157   0.828   3.387   6.625  0.8076 -0.1741  0.5706
  131OSM    C4F14158   1.033   3.304   6.618  0.3751  0.1957  0.7142
  131OSM    H4F14159   1.099   3.270   6.535  0.6748  1.7034  0.2978
  131OSM    H4G14160   1.002   3.207   6.661 -1.5280  0.2346 -0.4464
  131OSM    C5F14161   1.089   3.390   6.730 -0.3891 -0.2561  1.0669
  131OSM    H5F14162   1.080   3.499   6.712  0.1112 -0.4076 -0.2260
  131OSM    H5G14163   1.200   3.385   6.731 -0.3451 -1.1191 -1.4817
  131OSM    C6F14164   1.031   3.346   6.864  0.1390 -0.3386  0.2258
  131OSM    H6F14165   1.033   3.236   6.873 -0.1759 -0.5950 -2.2249
  131OSM    H6G14166   0.921   3.355   6.846  0.3026 -0.3508 -0.8807
  131OSM    C7F14167   1.080   3.409   6.990 -0.4059 -0.2539 -0.4219
  131OSM    H7F14168   1.180   3.367   7.015  0.0167  0.8863 -0.1475
  131OSM    H7G14169   1.014   3.366   7.068 -1.1058 -1.3881 -1.5991
  131OSM    C8F14170   1.063   3.566   7.000  0.4945  0.7340  0.5737
  131OSM    H8F14171   0.955   3.576   7.024  0.5989  0.5541  1.1358
  131OSM    H8G14172   1.086   3.611   6.901 -0.7095  0.1406  0.0129
  131OSM    C9F14173   1.120   3.638   7.115  0.4646 -0.5751 -0.0435
  131OSM    H9F14174   1.197   3.712   7.089 -0.6569  0.8230  0.4603
  131OSM   C10F14175   1.089   3.635   7.245  0.1550  0.5991  0.0527
  131OSM   H10F14176   1.151   3.699   7.309  1.6533  0.5012 -1.2292
  131OSM   C11F14177   0.978   3.559   7.314 -0.2552  0.7682  0.5160
  131OSM   H11F14178   0.941   3.478   7.248  1.6021 -0.4651  0.9076
  131OSM   H11G14179   0.895   3.625   7.346 -2.1218 -1.5698  0.7947
  131OSM   C12F14180   1.037   3.480   7.437 -0.8547  0.7807 -0.2076
  131OSM   H12F14181   1.090   3.546   7.509  1.6885  2.5612 -3.4309
  131OSM   H12G14182   1.116   3.416   7.394 -0.0351  1.2371  0.5744
  131OSM   C13F14183   0.941   3.389   7.511 -0.2890 -0.0956 -0.3798
  131OSM   H13F14184   0.978   3.325   7.594 -0.0464  1.1086  0.4692
  131OSM   H13G14185   0.899   3.322   7.434  0.7948  0.2678 -1.3193
  131OSM   C14F14186   0.824   3.466   7.582 -0.0655 -0.0370 -0.4208
  131OSM   H14F14187   0.756   3.397   7.636 -1.2173  0.5713 -1.0525
  131OSM   H14G14188   0.757   3.517   7.510 -0.0072  1.9458  0.8353
  131OSM   C15F14189   0.870   3.569   7.684  0.2956 -0.0243 -0.3320
  131OSM   H15F14190   0.777   3.623   7.709 -0.9172 -3.1229  2.5873
  131OSM   H15G14191   0.935   3.648   7.641  0.0393  0.2445 -0.2269
  131OSM   C16F14192   0.933   3.516   7.819  0.0378 -0.7541  0.0521
  131OSM   H16F14193   1.008   3.434   7.809  0.4935 -0.7651  2.7166
  131OSM   H16G14194   0.854   3.468   7.881 -0.0004 -0.5236  0.1797
  131OSM   C17F14195   0.986   3.631   7.908 -0.9004 -0.2577 -0.1824
  131OSM   H17F14196   0.917   3.717   7.923 -2.6839 -1.5344 -0.6349
  131OSM   H17G14197   1.071   3.672   7.849 -0.1480 -0.3218  0.8390
  131OSM   C18F14198   1.034   3.588   8.045  0.0398  0.0963 -0.0754
  131OSM   H18F14199   1.114   3.513   8.026  0.3813  0.5265 -0.3704
  131OSM   H18G14200   0.955   3.539   8.105  0.8082  3.1000  3.8414
  131OSM   H18H14201   1.088   3.661   8.110  2.3242 -1.1280 -0.4715
  132OSM      N14202   3.157   6.624   6.118 -0.3616  0.6000  0.3135
  132OSM    C1514203   3.029   6.674   6.056  0.1268  0.6803  0.5028
  132OSM   H15A14204   3.045   6.713   5.957 -0.9316 -2.8982 -1.2425
  132OSM   H15B14205   2.978   6.754   6.108 -3.5470 -0.5425 -0.8506
  132OSM   H15C14206   2.946   6.604   6.051  0.8454 -0.1029 -1.3164
  132OSM    C1414207   3.219   6.526   6.022  0.3891  0.3781 -0.1465
  132OSM   H14A14208   3.142   6.458   5.989 -1.1809  1.2964  1.4565
  132OSM   H14B14209   3.293   6.463   6.067  0.0842 -0.6469 -1.0375
  132OSM   H14C14210   3.263   6.578   5.938  1.6874 -1.2983 -0.5587
  132OSM    C1314211   3.246   6.738   6.133 -0.5567 -0.5461 -0.2655
  132OSM   H13A14212   3.270   6.767   6.032 -1.3364  1.4167  0.0726
  132OSM   H13B14213   3.339   6.719   6.183 -1.0810  0.3188  1.0849
  132OSM   H13C14214   3.197   6.819   6.185 -0.3966 -0.5523 -0.1043
  132OSM    C1214215   3.122   6.570   6.257 -0.4497  0.1223 -0.3529
  132OSM   H12A14216   3.063   6.646   6.305 -1.0744 -0.9689  0.6576
  132OSM   H12B14217   3.214   6.564   6.315 -1.2490 -0.0304  0.9491
  132OSM    C1114218   3.042   6.441   6.260  0.3791  0.5826  0.4090
  132OSM   H11A14219   2.976   6.430   6.171  2.4477 -0.6104 -1.0467
  132OSM   H11B14220   2.973   6.440   6.348  1.2193  0.1000  1.0785
  132OSM      P14221   3.085   6.185   6.226 -0.1458  0.2269  0.4735
  132OSM    O1314222   2.983   6.188   6.117  0.3111 -0.5893 -0.1492
  132OSM    O1414223   3.206   6.102   6.199  0.0055 -0.1197 -0.2794
  132OSM    O1114224   3.016   6.146   6.358  1.1206 -0.0224 -0.3919
  132OSM    O1214225   3.128   6.325   6.269 -0.1438 -0.0646 -0.6132
  132OSM    C1S14226   3.083   6.092   6.471  0.2167  0.5586  0.2680
  132OSM    H1S14227   3.172   6.035   6.438  0.0532  0.5616 -0.1836
  132OSM    H1T14228   3.008   6.021   6.512 -0.2643 -0.5906 -2.3827
  132OSM     NF14229   3.202   6.100   6.676  0.5055 -0.0396  0.9170
  132OSM    HNF14230   3.153   6.045   6.743  0.1585 -0.6458  0.1883
  132OSM    C2S14231   3.119   6.183   6.588 -0.2573 -0.2101 -0.8863
  132OSM    H2S14232   3.176   6.271   6.552 -1.9807  2.2923  1.9861
  132OSM    C3S14233   2.987   6.227   6.649  0.6402 -0.2980  0.1103
  132OSM    H3S14234   2.921   6.147   6.690 -1.1079  1.3455  0.6571
  132OSM     O314235   2.906   6.286   6.547 -0.4027  0.2002 -0.0758
  132OSM    HO314236   2.938   6.238   6.470 -0.0048 -0.2894  0.3888
  132OSM    C4S14237   3.008   6.327   6.765 -0.2977 -0.0283  0.6212
  132OSM    H4S14238   2.978   6.282   6.861  2.1298 -0.5360  1.2148
  132OSM    C5S14239   3.050   6.454   6.763  0.2168  0.2623  0.0895
  132OSM    H5S14240   3.083   6.512   6.676  1.4408  2.7509  2.0651
  132OSM    C6S14241   3.065   6.551   6.886 -0.4859  0.0218  0.2029
  132OSM    H6S14242   2.985   6.627   6.877  0.6515  1.1397 -1.0578
  132OSM    H6T14243   3.162   6.606   6.889 -0.7223  0.4308  0.3552
  132OSM    C7S14244   3.053   6.482   7.025 -0.5472  0.0622  0.6480
  132OSM    H7S14245   3.132   6.405   7.027  0.1412  0.6774 -0.9549
  132OSM    H7T14246   2.953   6.437   7.041 -1.6777  3.0644  3.2655
  132OSM    C8S14247   3.050   6.586   7.141 -0.1196  0.1301  0.3061
  132OSM    H8S14248   2.968   6.661   7.125 -0.3164 -0.3731 -1.1856
  132OSM    H8T14249   3.147   6.636   7.120  1.1163 -2.1681  0.2773
  132OSM    C9S14250   3.033   6.517   7.282 -0.5027 -0.6927  0.0278
  132OSM    H9S14251   3.092   6.423   7.280  1.0623  0.2098  1.1645
  132OSM    H9T14252   2.923   6.508   7.295 -0.4930  1.4089  2.4603
  132OSM   C10S14253   3.084   6.601   7.401  0.1818  0.1978 -0.1597
  132OSM   H10S14254   3.055   6.708   7.391 -0.5695 -0.0029 -0.2034
  132OSM   H10T14255   3.192   6.591   7.425  0.0986 -1.3980 -0.3175
  132OSM   C11S14256   3.012   6.549   7.532 -0.0002 -0.9499 -0.2563
  132OSM   H11S14257   3.046   6.443   7.542 -0.5508 -0.9364  2.3190
  132OSM   H11T14258   2.903   6.567   7.523 -0.0321  0.1972  1.9314
  132OSM   C12S14259   3.062   6.634   7.655  0.4204  0.4309 -0.8945
  132OSM   H12S14260   3.034   6.740   7.634  3.5298  1.3417 -1.0045
  132OSM   H12T14261   3.172   6.638   7.670  0.2221 -0.4175  1.1179
  132OSM   C13S14262   2.994   6.591   7.785  1.1544 -0.6523 -0.6522
  132OSM   H13S14263   3.012   6.483   7.803 -0.5114 -0.7199  0.8774
  132OSM   H13T14264   2.883   6.598   7.778  1.1239 -1.5593 -1.1456
  132OSM   C14S14265   3.042   6.668   7.911  0.1549  0.1603  0.2127
  132OSM   H14S14266   3.034   6.778   7.894  0.1653  0.2258  0.6295
  132OSM   H14T14267   3.150   6.640   7.914  0.3567  1.0138  1.7054
  132OSM   C15S14268   2.983   6.610   8.035  0.1486  0.3547  0.5392
  132OSM   H15S14269   2.975   6.500   8.027 -1.0707  0.4416  0.3702
  132OSM   H15T14270   2.878   6.646   8.035  0.4202  1.3046 -1.8219
  132OSM   C16S14271   3.061   6.654   8.152 -0.2703 -0.2094 -0.8056
  132OSM   H16S14272   3.077   6.763   8.164 -0.1588 -0.2574 -0.4855
  132OSM   H16T14273   3.165   6.616   8.155  0.4281  1.5481 -1.6298
  132OSM   C17S14274   3.006   6.604   8.287  0.9979  1.2270  0.1510
  132OSM   H17S14275   2.999   6.494   8.289  2.0966  1.1041 -1.2665
  132OSM   H17T14276   2.900   6.639   8.289  0.2479 -0.9118 -0.4185
  132OSM   C18S14277   3.086   6.657   8.402  0.9538 -0.0047 -0.7148
  132OSM   H18S14278   3.192   6.626   8.391  0.6326 -1.1976 -0.5563
  132OSM   H18T14279   3.047   6.621   8.499 -0.2523 -0.3339 -1.2991
  132OSM   H18U14280   3.092   6.768   8.398 -0.7228  0.1518  0.1523
  132OSM    C1F14281   3.330   6.083   6.655 -0.4081  0.6244 -0.5486
  132OSM     OF14282   3.392   6.155   6.582 -0.0057  0.2230  0.3152
  132OSM    C2F14283   3.402   5.972   6.729  0.3232 -0.0115 -0.2212
  132OSM    H2F14284   3.513   5.978   6.724  0.4850 -2.4517 -0.9914
  132OSM    H2G14285   3.373   5.871   6.693  1.1172  0.1427 -1.3382
  132OSM    C3F14286   3.360   5.980   6.879  0.6771 -0.0527  0.7567
  132OSM    H3F14287   3.258   5.948   6.909  0.9493  0.8509  2.8398
  132OSM    H3G14288   3.382   6.087   6.901  1.2118  0.1534 -0.7201
  132OSM    C4F14289   3.455   5.884   6.960 -0.1900  0.1410  0.5586
  132OSM    H4F14290   3.557   5.883   6.917  0.0138 -1.6049  1.0010
  132OSM    H4G14291   3.408   5.783   6.954 -0.3870  0.2445  0.3558
  132OSM    C5F14292   3.469   5.914   7.110  0.1862  0.5697  0.0722
  132OSM    H5F14293   3.372   5.898   7.160  0.3499 -0.3174  0.1095
  132OSM    H5G14294   3.491   6.022   7.125 -0.7069  0.4116  3.0572
  132OSM    C6F14295   3.570   5.829   7.182 -1.0238  0.3922 -0.3756
  132OSM    H6F14296   3.674   5.859   7.155 -0.3148 -0.4938  1.2272
  132OSM    H6G14297   3.568   5.721   7.154  2.9480  0.2637 -0.7153
  132OSM    C7F14298   3.538   5.844   7.324  0.1238  0.2071 -0.3915
  132OSM    H7F14299   3.440   5.794   7.343  0.6770 -0.6047  0.4166
  132OSM    H7G14300   3.525   5.950   7.352  1.3811  0.4891 -0.8342
  132OSM    C8F14301   3.655   5.798   7.416  0.1861 -0.2257  0.7686
  132OSM    H8F14302   3.666   5.862   7.507 -0.9241 -0.5042  1.1121
  132OSM    H8G14303   3.747   5.815   7.356  0.7082 -1.6747  1.1281
  132OSM    C9F14304   3.625   5.659   7.453  0.6726  1.3376  0.7435
  132OSM    H9F14305   3.564   5.613   7.374  2.1912 -0.5685  0.5937
  132OSM   C10F14306   3.662   5.595   7.566  0.5753 -0.3455  0.4661
  132OSM   H10F14307   3.647   5.486   7.572 -0.5451 -0.1059  3.4386
  132OSM   C11F14308   3.736   5.656   7.685 -0.0954 -0.4638 -0.2464
  132OSM   H11F14309   3.778   5.757   7.669 -1.4190  1.3254  5.3959
  132OSM   H11G14310   3.821   5.591   7.715  1.4881  1.1950 -0.9615
  132OSM   C12F14311   3.655   5.668   7.822  0.2370  0.5491  0.3322
  132OSM   H12F14312   3.734   5.678   7.900 -0.2662 -1.1936  1.1308
  132OSM   H12G14313   3.592   5.578   7.836 -1.2814  1.4266 -0.5869
  132OSM   C13F14314   3.568   5.790   7.818  0.7622 -0.2048 -0.0169
  132OSM   H13F14315   3.486   5.785   7.742  2.3263  0.4737 -1.8276
  132OSM   H13G14316   3.635   5.873   7.787 -0.3314  1.2969  1.4505
  132OSM   C14F14317   3.492   5.818   7.954  0.2984  0.0523  0.3098
  132OSM   H14F14318   3.418   5.735   7.961  0.9445 -0.4669  1.2022
  132OSM   H14G14319   3.421   5.904   7.950 -2.0088 -1.6486  2.1690
  132OSM   C15F14320   3.581   5.813   8.078  0.0811 -0.1649 -0.2191
  132OSM   H15F14321   3.669   5.881   8.075  0.6016 -0.8356 -0.5387
  132OSM   H15G14322   3.627   5.712   8.085  0.1169 -0.1767 -0.6401
  132OSM   C16F14323   3.513   5.840   8.212 -0.1614 -0.3855 -0.8613
  132OSM   H16F14324   3.407   5.809   8.209 -0.4132  0.2588  0.4080
  132OSM   H16G14325   3.508   5.950   8.229 -2.7742 -0.5455 -0.1513
  132OSM   C17F14326   3.599   5.778   8.334  0.4487 -0.0605 -0.5664
  132OSM   H17F14327   3.708   5.797   8.322  0.0448  1.7765 -1.6191
  132OSM   H17G14328   3.598   5.667   8.323 -0.6462 -0.3092  1.5582
  132OSM   C18F14329   3.561   5.823   8.477 -0.0519 -0.2303  0.7766
  132OSM   H18F14330   3.450   5.828   8.486 -0.0663 -0.4075  0.7089
  132OSM   H18G14331   3.595   5.923   8.510  0.7505 -0.8961  2.0795
  132OSM   H18H14332   3.597   5.749   8.551  0.4834 -2.2531 -1.3613
  133OSM      N14333   3.992   0.150   6.136 -0.4425 -0.1876  0.6090
  133OSM    C1514334   4.123   0.128   6.208  0.1707 -0.0865 -0.1753
  133OSM   H15A14335   4.131   0.027   6.245 -2.3938 -0.4644 -0.4494
  133OSM   H15B14336   4.124   0.189   6.297 -0.6957  0.9892 -0.8852
  133OSM   H15C14337   4.212   0.149   6.151  1.1126 -0.6559  1.0416
  133OSM    C1414338   3.979   0.291   6.094  0.0414 -0.3344  0.4181
  133OSM   H14A14339   3.877   0.319   6.071  0.9080  2.1273 -0.8088
  133OSM   H14B14340   4.031   0.300   6.000  0.0888 -3.8134 -0.0255
  133OSM   H14C14341   4.014   0.356   6.173 -1.1581 -0.6238  1.2100
  133OSM    C1314342   3.976   0.064   6.017 -0.0966 -0.4887  0.2665
  133OSM   H13A14343   3.970  -0.037   6.053 -1.3035 -0.4598  0.2003
  133OSM   H13B14344   4.054   0.071   5.943 -0.7381 -0.2245 -0.3980
  133OSM   H13C14345   3.887   0.079   5.957  0.1327 -1.1394 -0.2451
  133OSM    C1214346   3.871   0.109   6.235 -0.1582 -0.8415 -0.2331
  133OSM   H12A14347   3.785   0.122   6.170  1.6129 -2.1034 -3.0157
  133OSM   H12B14348   3.855   0.174   6.320  1.0299  0.0758 -0.6842
  133OSM    C1114349   3.852  -0.044   6.274 -0.1735  0.4047  1.0066
  133OSM   H11A14350   3.799  -0.038   6.371  0.5730  0.5902  1.4034
  133OSM   H11B14351   3.948  -0.094   6.297 -0.2244 -0.9952 -1.4921
  133OSM      P14352   3.628  -0.108   6.157  0.0595  0.4651  0.0142
  133OSM    O1314353   3.603   0.037   6.142 -0.2831 -0.2286 -0.2345
  133OSM    O1414354   3.580  -0.187   6.041 -0.0530 -0.3420 -0.2436
  133OSM    O1114355   3.567  -0.156   6.288  0.6774 -0.6596  0.4955
  133OSM    O1214356   3.784  -0.122   6.180  0.0867 -0.2787 -0.2414
  133OSM    C1S14357   3.599  -0.289   6.335  0.8386 -0.3696 -0.3348
  133OSM    H1S14358   3.692  -0.336   6.297  1.0297 -2.0657  1.9829
  133OSM    H1T14359   3.517  -0.356   6.301 -0.8105  0.3375  1.9720
  133OSM     NF14360   3.627  -0.430   6.536 -0.0727 -0.0415 -0.0482
  133OSM    HNF14361   3.561  -0.503   6.521  2.4204 -2.4840  0.1616
  133OSM    C2S14362   3.589  -0.294   6.491 -0.3411 -0.8543 -0.0033
  133OSM    H2S14363   3.656  -0.213   6.527 -0.7901 -0.0626 -0.8937
  133OSM    C3S14364   3.439  -0.256   6.527 -0.3495  0.3979 -1.1180
  133OSM    H3S14365   3.374  -0.329   6.475  0.3579 -1.1910  0.1395
  133OSM     O314366   3.397  -0.121   6.488  0.0325 -0.6005 -0.4141
  133OSM    HO314367   3.463  -0.099   6.422  0.3224  4.6483  1.1918
  133OSM    C4S14368   3.429  -0.286   6.675 -0.3317  0.0841 -0.3773
  133OSM    H4S14369   3.428  -0.394   6.694 -2.0072  0.3707  1.5525
  133OSM    C5S14370   3.435  -0.193   6.778 -0.1496  0.2743 -0.4957
  133OSM    H5S14371   3.431  -0.087   6.747 -1.5516  0.6690  0.9074
  133OSM    C6S14372   3.437  -0.221   6.929 -0.0888 -0.3850  0.6695
  133OSM    H6S14373   3.360  -0.157   6.977 -0.5315  0.3085 -0.8969
  133OSM    H6T14374   3.524  -0.176   6.980 -0.6828  2.8256 -0.9064
  133OSM    C7S14375   3.405  -0.357   6.978  0.8057 -0.0020 -0.0398
  133OSM    H7S14376   3.486  -0.424   6.941 -0.8516 -0.8413 -2.4318
  133OSM    H7T14377   3.317  -0.413   6.939  2.6878 -2.7353 -0.7352
  133OSM    C8S14378   3.423  -0.360   7.132  0.2025 -0.0356 -0.6859
  133OSM    H8S14379   3.334  -0.310   7.177  0.3898 -1.0473  0.8868
  133OSM    H8T14380   3.517  -0.303   7.149  0.0780  0.2083 -0.7967
  133OSM    C9S14381   3.411  -0.505   7.184 -0.1129  0.6088  0.2529
  133OSM    H9S14382   3.497  -0.557   7.138  0.4703 -0.3327  2.3019
  133OSM    H9T14383   3.313  -0.556   7.168  0.9263 -2.1572  1.8978
  133OSM   C10S14384   3.449  -0.512   7.333 -0.3056 -0.4574  0.4165
  133OSM   H10S14385   3.555  -0.479   7.335 -0.4119 -0.0981  0.1849
  133OSM   H10T14386   3.455  -0.610   7.384  0.5721  1.0562  3.4918
  133OSM   C11S14387   3.380  -0.418   7.433  0.2462  0.8045  0.9150
  133OSM   H11S14388   3.271  -0.436   7.418  0.2459  1.4420  0.0656
  133OSM   H11T14389   3.387  -0.310   7.407 -1.0056  0.9912  1.2835
  133OSM   C12S14390   3.413  -0.436   7.581  0.1088 -0.1674 -0.2837
  133OSM   H12S14391   3.517  -0.407   7.606 -0.6525  1.8304  0.7347
  133OSM   H12T14392   3.392  -0.543   7.603  1.8313 -0.4154  0.2712
  133OSM   C13S14393   3.330  -0.347   7.679  0.3289 -0.4346 -1.0047
  133OSM   H13S14394   3.222  -0.365   7.663  0.7907 -2.7538 -1.9844
  133OSM   H13T14395   3.353  -0.242   7.654 -2.0587 -0.0435 -1.8144
  133OSM   C14S14396   3.381  -0.353   7.824  0.0489 -0.2541 -0.4251
  133OSM   H14S14397   3.332  -0.275   7.886 -0.6192 -0.2876 -0.9019
  133OSM   H14T14398   3.491  -0.343   7.836 -0.3036  0.7841  2.8706
  133OSM   C15S14399   3.341  -0.483   7.884 -0.4948  0.2292 -0.0426
  133OSM   H15S14400   3.393  -0.558   7.820 -0.1708  1.7159 -1.5901
  133OSM   H15T14401   3.231  -0.501   7.882 -0.0735 -3.0605  0.3334
  133OSM   C16S14402   3.402  -0.489   8.024 -0.1520  0.2614  0.0779
  133OSM   H16S14403   3.512  -0.475   8.010 -0.3243 -1.2546 -4.5438
  133OSM   H16T14404   3.391  -0.591   8.066  1.1922 -0.9941 -2.3595
  133OSM   C17S14405   3.346  -0.392   8.120 -0.0368 -0.0801  0.1488
  133OSM   H17S14406   3.235  -0.399   8.110  0.1904 -1.8778 -2.2735
  133OSM   H17T14407   3.368  -0.286   8.096  1.0049 -0.8498 -2.7092
  133OSM   C18S14408   3.383  -0.425   8.264  0.3404 -0.0887  0.3543
  133OSM   H18S14409   3.341  -0.525   8.289  0.8701 -0.1341  1.1118
  133OSM   H18T14410   3.345  -0.353   8.340 -0.1284 -0.1312  0.1648
  133OSM   H18U14411   3.493  -0.426   8.270  0.4817  1.1457 -1.3665
  133OSM    C1F14412   3.758  -0.454   6.544 -0.1267  0.5125  0.1325
  133OSM     OF14413   3.841  -0.372   6.498  0.2218  0.2209 -0.0011
  133OSM    C2F14414   3.801  -0.593   6.592 -0.2374  0.7803 -0.4854
  133OSM    H2F14415   3.844  -0.643   6.502 -1.3908  0.3245 -0.8011
  133OSM    H2G14416   3.714  -0.660   6.607 -0.5490  1.0978 -0.8580
  133OSM    C3F14417   3.901  -0.610   6.712  0.2287 -0.4274 -0.3087
  133OSM    H3F14418   3.998  -0.560   6.694 -1.9523  3.9658 -1.3297
  133OSM    H3G14419   3.920  -0.715   6.742  0.8343 -0.0971  0.5036
  133OSM    C4F14420   3.841  -0.543   6.838 -0.2842  0.1457 -0.0346
  133OSM    H4F14421   3.736  -0.578   6.847 -0.6276  1.0431 -0.4628
  133OSM    H4G14422   3.832  -0.433   6.826  2.4530  0.7114  2.0217
  133OSM    C5F14423   3.930  -0.579   6.968 -0.5245  0.1062 -0.1329
  133OSM    H5F14424   4.009  -0.504   6.988  0.4254 -1.1279  0.9533
  133OSM    H5G14425   3.994  -0.669   6.953 -1.2965 -0.3912 -0.5448
  133OSM    C6F14426   3.847  -0.582   7.096 -0.2451 -0.3888  0.3902
  133OSM    H6F14427   3.739  -0.593   7.069 -0.0188  1.1585 -1.4226
  133OSM    H6G14428   3.853  -0.478   7.136 -1.3493 -0.3303  0.4440
  133OSM    C7F14429   3.899  -0.677   7.195  0.6981 -0.1852  0.5604
  133OSM    H7F14430   4.010  -0.674   7.205  0.6718 -1.0758  1.2504
  133OSM    H7G14431   3.886  -0.781   7.159  3.2043 -0.1590 -0.6257
  133OSM    C8F14432   3.832  -0.678   7.337 -0.3622  0.7578 -0.1573
  133OSM    H8F14433   3.860  -0.773   7.387 -1.9970 -0.2466 -1.0333
  133OSM    H8G14434   3.723  -0.692   7.319 -0.8253  1.4332  1.8286
  133OSM    C9F14435   3.862  -0.549   7.411  0.7077 -0.2062  0.0360
  133OSM    H9F14436   3.806  -0.464   7.369 -0.2664 -1.0206 -0.3583
  133OSM   C10F14437   3.931  -0.542   7.523 -0.1338 -0.1906  0.6297
  133OSM   H10F14438   3.942  -0.443   7.569  2.9127  0.1271 -0.5374
  133OSM   C11F14439   4.000  -0.660   7.596 -0.0826 -0.1778  0.4575
  133OSM   H11F14440   4.096  -0.625   7.641  0.4907  2.2610 -2.3104
  133OSM   H11G14441   4.014  -0.741   7.522 -0.3634  0.1342  0.0501
  133OSM   C12F14442   3.914  -0.719   7.713  0.7516 -0.4412  0.4840
  133OSM   H12F14443   3.954  -0.817   7.746 -0.0899 -1.4831 -1.4253
  133OSM   H12G14444   3.813  -0.734   7.669  2.0277  1.8478 -3.8042
  133OSM   C13F14445   3.898  -0.622   7.829  0.3048 -0.1604 -0.1030
  133OSM   H13F14446   3.834  -0.535   7.805 -0.5231 -0.6287  0.3678
  133OSM   H13G14447   4.001  -0.592   7.857  1.6236 -2.9791 -1.5606
  133OSM   C14F14448   3.846  -0.696   7.955 -0.8965  0.0802 -0.3033
  133OSM   H14F14449   3.916  -0.777   7.984 -1.0444 -1.1439 -3.0811
  133OSM   H14G14450   3.748  -0.748   7.945 -0.8965 -0.4426  1.9036
  133OSM   C15F14451   3.815  -0.594   8.070  0.8024 -0.6197 -0.0174
  133OSM   H15F14452   3.714  -0.549   8.060  0.4135 -0.9822  1.8385
  133OSM   H15G14453   3.890  -0.512   8.082 -1.1360  1.1568  0.6507
  133OSM   C16F14454   3.830  -0.659   8.212 -0.7783  0.6520  0.4781
  133OSM   H16F14455   3.937  -0.681   8.230 -0.4947  0.7939 -0.9242
  133OSM   H16G14456   3.769  -0.751   8.221 -0.5311  0.6554  2.8102
  133OSM   C17F14457   3.790  -0.557   8.325  0.0741 -0.0352  0.0759
  133OSM   H17F14458   3.832  -0.600   8.418 -0.9976 -2.4437 -0.4770
  133OSM   H17G14459   3.679  -0.558   8.337  0.2161 -0.0337  1.6620
  133OSM   C18F14460   3.842  -0.415   8.333 -0.1472 -0.3842 -0.7987
  133OSM   H18F14461   3.953  -0.413   8.337 -0.1098 -1.7841 -0.6069
  133OSM   H18G14462   3.809  -0.365   8.426  1.2863 -0.8825  0.0111
  133OSM   H18H14463   3.819  -0.351   8.245  1.3842  0.9240 -0.2985
  134OSM      N14464   4.368   1.545   6.370 -0.6109  0.3433 -0.0691
  134OSM    C1514465   4.250   1.492   6.441 -0.5814  0.0932  0.1500
  134OSM   H15A14466   4.162   1.487   6.378 -1.1426  0.4047  0.8835
  134OSM   H15B14467   4.225   1.551   6.529 -0.6845  0.1034  0.1149
  134OSM   H15C14468   4.263   1.390   6.472 -0.6855 -0.4886 -1.6433
  134OSM    C1414469   4.393   1.454   6.246 -0.0842 -0.7448 -0.1904
  134OSM   H14A14470   4.420   1.355   6.279  1.3485  0.1075  1.3296
  134OSM   H14B14471   4.469   1.495   6.181 -1.1415  1.3293 -0.2184
  134OSM   H14C14472   4.302   1.451   6.188 -0.4632 -0.0048  0.3435
  134OSM    C1314473   4.322   1.687   6.322 -0.3130  0.1791  0.4045
  134OSM   H13A14474   4.220   1.674   6.290 -0.1661 -3.0031  0.8102
  134OSM   H13B14475   4.379   1.727   6.240 -0.2830  1.2299  0.9199
  134OSM   H13C14476   4.331   1.757   6.404  2.5073  0.6168 -0.1910
  134OSM    C1214477   4.500   1.562   6.442 -0.0405 -0.6383 -0.1979
  134OSM   H12A14478   4.569   1.622   6.385  1.3805  0.4156  2.4386
  134OSM   H12B14479   4.540   1.463   6.456 -0.7798 -0.7142  1.7740
  134OSM    C1114480   4.495   1.638   6.581  0.0156 -0.4405 -0.2662
  134OSM   H11A14481   4.571   1.590   6.646 -0.9581 -1.8307 -0.1068
  134OSM   H11B14482   4.396   1.622   6.629  0.5115 -2.7124  0.1388
  134OSM      P14483   4.655   1.838   6.546 -0.3265  0.0739 -0.2091
  134OSM    O1314484   4.704   1.800   6.410  0.5470  0.5757  0.6846
  134OSM    O1414485   4.638   1.979   6.573 -0.3827 -0.2595 -0.2687
  134OSM    O1114486   4.752   1.779   6.652 -0.2746 -0.2861  0.0361
  134OSM    O1214487   4.510   1.778   6.574  0.0312  0.0882  0.3645
  134OSM    C1S14488   4.733   1.813   6.790 -0.3867  0.6743  0.7102
  134OSM    H1S14489   4.626   1.802   6.817 -1.0173 -0.9072 -2.0897
  134OSM    H1T14490   4.761   1.919   6.806  0.8010  0.6760 -1.1206
  134OSM     NF14491   4.777   1.751   7.028 -0.1854 -0.0167  0.0251
  134OSM    HNF14492   4.838   1.821   7.063  1.5494 -0.7371 -1.3911
  134OSM    C2S14493   4.804   1.711   6.887 -0.3733 -0.1437  0.2880
  134OSM    H2S14494   4.770   1.608   6.867  2.7965 -0.8446 -2.3346
  134OSM    C3S14495   4.954   1.720   6.862  0.1420 -0.1297  1.0528
  134OSM    H3S14496   4.984   1.827   6.868 -1.3723  0.5241 -1.4376
  134OSM     O314497   4.985   1.684   6.729 -0.3933  0.0790 -0.0490
  134OSM    HO314498   4.902   1.702   6.685  0.1877 -1.5118 -1.9646
  134OSM    C4S14499   5.036   1.638   6.956 -0.7424 -0.0768 -0.4426
  134OSM    H4S14500   5.027   1.529   6.957 -0.3847 -0.1321  1.7727
  134OSM    C5S14501   5.139   1.688   7.027 -1.0525  0.0392 -0.4549
  134OSM    H5S14502   5.155   1.796   7.032  2.2702 -0.4076  1.1194
  134OSM    C6S14503   5.224   1.602   7.113  0.4065  0.2108 -0.2491
  134OSM    H6S14504   5.315   1.663   7.127 -0.0698  0.9777 -0.4444
  134OSM    H6T14505   5.240   1.502   7.068  1.0900  0.7551 -1.2427
  134OSM    C7S14506   5.164   1.574   7.250  0.4403 -0.2540  0.2998
  134OSM    H7S14507   5.083   1.497   7.245  0.2796 -0.2983  2.5818
  134OSM    H7T14508   5.118   1.661   7.301 -1.5173 -1.4721  0.7253
  134OSM    C8S14509   5.262   1.512   7.349 -0.3534  0.8497 -0.3861
  134OSM    H8S14510   5.284   1.410   7.309 -1.5693  0.1183  0.7309
  134OSM    H8T14511   5.199   1.497   7.439 -1.5424 -0.8485 -1.4241
  134OSM    C9S14512   5.379   1.597   7.388  0.5232  0.2450 -0.8363
  134OSM    H9S14513   5.338   1.698   7.410 -3.3840 -1.4713  0.6792
  134OSM    H9T14514   5.440   1.614   7.297  1.0998 -1.4672 -0.8019
  134OSM   C10S14515   5.472   1.545   7.497  0.0953  0.2780  0.5205
  134OSM   H10S14516   5.561   1.610   7.506  0.3433 -0.3404  3.8768
  134OSM   H10T14517   5.518   1.445   7.477  0.4757 -0.1849  3.2700
  134OSM   C11S14518   5.418   1.540   7.639 -0.2809  0.5881 -0.2097
  134OSM   H11S14519   5.340   1.462   7.654 -1.4839  1.9920  1.1636
  134OSM   H11T14520   5.387   1.643   7.664  1.3392  1.8212 -2.8804
  134OSM   C12S14521   5.532   1.508   7.740  0.0321  0.3646 -0.3604
  134OSM   H12S14522   5.620   1.573   7.723 -0.0909  0.1908 -1.7279
  134OSM   H12T14523   5.557   1.406   7.704  1.6030 -0.0736  1.7673
  134OSM   C13S14524   5.483   1.512   7.887  0.0075 -0.6716  0.0206
  134OSM   H13S14525   5.546   1.441   7.945  1.9755 -1.2793 -2.6265
  134OSM   H13T14526   5.379   1.473   7.874  0.5064 -1.8659 -0.6243
  134OSM   C14S14527   5.495   1.654   7.946  0.3796  0.1298  0.7048
  134OSM   H14S14528   5.426   1.716   7.884 -0.8249 -2.0311 -0.2190
  134OSM   H14T14529   5.601   1.683   7.937  0.2586 -0.0272 -1.9666
  134OSM   C15S14530   5.438   1.670   8.090  0.4195  0.3978  0.3034
  134OSM   H15S14531   5.339   1.620   8.085  2.2443 -3.4817 -1.5508
  134OSM   H15T14532   5.425   1.779   8.108  0.6018  0.6518 -1.0134
  134OSM   C16S14533   5.528   1.603   8.192  0.1056 -0.0758  0.0339
  134OSM   H16S14534   5.625   1.656   8.200 -0.3989  1.0255 -0.9095
  134OSM   H16T14535   5.550   1.499   8.162  0.6509 -0.0937  0.4899
  134OSM   C17S14536   5.476   1.616   8.334  0.0711  0.1833 -0.4360
  134OSM   H17S14537   5.483   1.724   8.362  3.1485 -0.9854  4.7775
  134OSM   H17T14538   5.549   1.567   8.402 -1.9332 -0.1235  1.6076
  134OSM   C18S14539   5.336   1.568   8.372 -0.0306 -0.6169 -0.1130
  134OSM   H18S14540   5.252   1.625   8.327 -1.1409 -1.8040  0.3812
  134OSM   H18T14541   5.319   1.570   8.482  0.4216  0.4226 -0.0539
  134OSM   H18U14542   5.329   1.460   8.347  0.9634 -0.8519  0.6136
  134OSM    C1F14543   4.663   1.719   7.091  0.2242  0.3157 -0.0761
  134OSM     OF14544   4.577   1.653   7.034  0.7709  0.4233 -0.1351
  134OSM    C2F14545   4.637   1.787   7.221 -0.1207  1.0158  0.5033
  134OSM    H2F14546   4.583   1.882   7.203 -0.7362  0.9425  1.7919
  134OSM    H2G14547   4.734   1.815   7.267  0.3577  1.0166 -0.4909
  134OSM    C3F14548   4.554   1.701   7.325 -0.0262  0.1365  0.4884
  134OSM    H3F14549   4.622   1.618   7.354  1.5169  0.9688 -0.6270
  134OSM    H3G14550   4.463   1.665   7.272  0.4424  0.8887 -0.8706
  134OSM    C4F14551   4.508   1.786   7.436 -0.0918  0.1895  0.2279
  134OSM    H4F14552   4.456   1.716   7.505 -1.0179 -0.5896 -1.2118
  134OSM    H4G14553   4.438   1.861   7.393 -0.7918 -0.1918  0.6806
  134OSM    C5F14554   4.628   1.836   7.520  0.7831 -0.6418  0.3522
  134OSM    H5F14555   4.669   1.926   7.470 -1.2613  0.4533  0.5342
  134OSM    H5G14556   4.708   1.760   7.530  2.3208  1.1819  3.4707
  134OSM    C6F14557   4.606   1.857   7.671  0.1336 -0.8594  1.0794
  134OSM    H6F14558   4.546   1.770   7.704 -1.0184 -0.9631 -1.1416
  134OSM    H6G14559   4.541   1.947   7.678 -0.5648 -1.3335  0.7512
  134OSM    C7F14560   4.734   1.871   7.750  0.1475  0.6163 -0.0709
  134OSM    H7F14561   4.803   1.936   7.692  0.2432 -0.0250 -0.6924
  134OSM    H7G14562   4.772   1.767   7.761 -1.4480  0.2640  3.9848
  134OSM    C8F14563   4.712   1.916   7.899  0.6035 -0.1355 -0.6437
  134OSM    H8F14564   4.672   1.840   7.969  1.7310  0.4808  0.7237
  134OSM    H8G14565   4.633   1.993   7.901  1.1727  0.4762  1.8073
  134OSM    C9F14566   4.833   1.990   7.946  0.2719 -0.1764 -0.4166
  134OSM    H9F14567   4.928   1.956   7.901 -0.1233 -0.4913 -1.0252
  134OSM   C10F14568   4.832   2.083   8.048  0.3592  0.0488 -0.5152
  134OSM   H10F14569   4.927   2.133   8.071  0.4083 -0.6445  0.8960
  134OSM   C11F14570   4.710   2.131   8.120  0.4976  1.0515 -0.3127
  134OSM   H11F14571   4.677   2.037   8.168 -2.8917  1.6363 -1.1807
  134OSM   H11G14572   4.621   2.158   8.059 -0.8813 -2.1289  0.0914
  134OSM   C12F14573   4.731   2.226   8.242  0.5986 -0.1832  0.0504
  134OSM   H12F14574   4.762   2.319   8.191 -2.3624 -0.8945 -3.4847
  134OSM   H12G14575   4.820   2.193   8.300  0.3791 -1.1741 -0.1493
  134OSM   C13F14576   4.615   2.212   8.340  0.1055 -0.0026  0.2115
  134OSM   H13F14577   4.608   2.109   8.381 -0.2933  0.1374  0.5025
  134OSM   H13G14578   4.520   2.238   8.289  0.2734  0.6517  0.2205
  134OSM   C14F14579   4.635   2.311   8.448  0.6518 -0.0057  0.4888
  134OSM   H14F14580   4.639   2.410   8.399  0.0292  0.0573  0.5464
  134OSM   H14G14581   4.737   2.308   8.491  0.0979 -0.5318  1.8138
  134OSM   C15F14582   4.530   2.292   8.564  0.3039 -0.0153  0.7306
  134OSM   H15F14583   4.540   2.190   8.606 -1.2076 -1.1772 -1.5061
  134OSM   H15G14584   4.425   2.287   8.528  0.8981 -1.4931 -0.9344
  134OSM   C16F14585   4.549   2.393   8.673 -0.2273 -0.0299 -0.4170
  134OSM   H16F14586   4.489   2.484   8.653  2.5924  2.3667  1.1270
  134OSM   H16G14587   4.658   2.411   8.661 -0.3266 -0.0935 -1.4817
  134OSM   C17F14588   4.524   2.358   8.818  0.7628 -0.4914 -0.1759
  134OSM   H17F14589   4.422   2.324   8.845 -0.0124  0.6328 -1.5348
  134OSM   H17G14590   4.531   2.443   8.889 -0.4908 -0.8890  0.4425
  134OSM   C18F14591   4.619   2.241   8.856  0.9168  0.5147  0.2741
  134OSM   H18F14592   4.590   2.150   8.799 -0.7916  0.5414  1.0404
  134OSM   H18G14593   4.611   2.212   8.963  1.9141 -0.3915  0.1149
  134OSM   H18H14594   4.724   2.276   8.850  1.6711 -1.6979 -0.6785
  135OSM      N14595   4.865   1.213   6.321 -0.0323 -0.8865  0.0299
  135OSM    C1514596   4.748   1.250   6.234 -0.1013 -0.2905  0.1541
  135OSM   H15A14597   4.772   1.239   6.129 -0.0052  0.3255  0.1041
  135OSM   H15B14598   4.723   1.353   6.253 -1.0134 -0.3910 -0.4194
  135OSM   H15C14599   4.666   1.182   6.247 -0.1590 -0.1136  0.7293
  135OSM    C1414600   4.911   1.088   6.266  0.4833 -0.1042 -0.2557
  135OSM   H14A14601   4.939   1.014   6.340  1.5480 -0.2151 -0.7546
  135OSM   H14B14602   4.993   1.094   6.197  0.0190 -1.7879 -1.0147
  135OSM   H14C14603   4.830   1.049   6.206 -0.7934 -1.1968  2.0490
  135OSM    C1314604   4.963   1.322   6.323 -0.0292 -0.0150  0.4791
  135OSM   H13A14605   5.053   1.307   6.381  1.7887 -0.4407 -2.2550
  135OSM   H13B14606   4.913   1.411   6.358 -0.2602 -0.1031  0.3726
  135OSM   H13C14607   5.005   1.342   6.226  0.3349  0.8016  0.7949
  135OSM    C1214608   4.822   1.203   6.473  0.4480  0.3659 -0.1581
  135OSM   H12A14609   4.914   1.214   6.527  0.8696  1.1110 -1.0030
  135OSM   H12B14610   4.782   1.103   6.486 -1.3433  0.9466 -0.8319
  135OSM    C1114611   4.728   1.307   6.527 -0.4480  0.0181  0.0950
  135OSM   H11A14612   4.763   1.407   6.492  0.8240 -0.4779 -0.1185
  135OSM   H11B14613   4.738   1.314   6.638  0.4131  1.0934 -0.0288
  135OSM      P14614   4.507   1.170   6.559  0.4164 -0.0777 -0.2211
  135OSM    O1314615   4.371   1.167   6.507  0.3381 -0.0180  0.3831
  135OSM    O1414616   4.582   1.048   6.529 -0.1185  0.2860  0.2203
  135OSM    O1114617   4.504   1.201   6.712 -0.3283  0.2530  0.2075
  135OSM    O1214618   4.586   1.287   6.490 -0.0367  0.1228  0.0564
  135OSM    C1S14619   4.479   1.337   6.743  0.1868 -0.4611  0.0485
  135OSM    H1S14620   4.409   1.384   6.670 -0.0285 -0.6310  0.1473
  135OSM    H1T14621   4.571   1.400   6.739 -1.0731  1.5046  0.4834
  135OSM     NF14622   4.394   1.493   6.910 -0.2886  0.5423  0.1770
  135OSM    HNF14623   4.465   1.545   6.958  0.1531 -0.3578  0.5277
  135OSM    C2S14624   4.419   1.356   6.887 -0.7850  0.5066 -0.4389
  135OSM    H2S14625   4.319   1.307   6.883 -0.7706  0.5339 -1.2736
  135OSM    C3S14626   4.501   1.293   7.004  0.4330 -1.1255  0.2786
  135OSM    H3S14627   4.599   1.344   6.996 -0.4325  0.4457 -0.9004
  135OSM     O314628   4.517   1.150   6.987  0.1262 -0.0921  0.4629
  135OSM    HO314629   4.515   1.143   6.891  1.0690 -0.5757  0.4656
  135OSM    C4S14630   4.440   1.324   7.142  0.7710 -0.1682  0.5644
  135OSM    H4S14631   4.459   1.427   7.175  3.4581 -0.0087 -1.1407
  135OSM    C5S14632   4.351   1.248   7.203  0.3007 -0.4591  0.3150
  135OSM    H5S14633   4.314   1.161   7.146 -0.3376 -0.1238  0.2072
  135OSM    C6S14634   4.280   1.280   7.331  0.3410  0.4146  0.2674
  135OSM    H6S14635   4.226   1.193   7.372 -1.3538  1.3197  0.0430
  135OSM    H6T14636   4.202   1.355   7.306  0.0369 -0.0076 -0.0415
  135OSM    C7S14637   4.372   1.348   7.438  0.1386  0.1913 -0.0514
  135OSM    H7S14638   4.398   1.449   7.400 -0.5496  0.9214  1.3315
  135OSM    H7T14639   4.464   1.289   7.458 -0.7492 -1.6329 -1.0257
  135OSM    C8S14640   4.294   1.368   7.567  0.3730 -1.1640  0.4695
  135OSM    H8S14641   4.250   1.277   7.613 -0.2002 -0.0249  2.2891
  135OSM    H8T14642   4.216   1.441   7.536  0.4327 -1.1097  0.4450
  135OSM    C9S14643   4.380   1.429   7.678  0.8200 -0.5259  0.2554
  135OSM    H9S14644   4.422   1.528   7.649 -0.4235 -0.5149 -1.6552
  135OSM    H9T14645   4.467   1.360   7.683  1.2388 -0.1054 -0.9388
  135OSM   C10S14646   4.304   1.447   7.812 -0.2260 -0.2189 -0.3066
  135OSM   H10S14647   4.279   1.345   7.850 -1.9799  0.2118 -0.2389
  135OSM   H10T14648   4.213   1.508   7.793 -0.4489 -0.2246  0.6835
  135OSM   C11S14649   4.402   1.519   7.907 -0.1106 -0.6632 -0.0327
  135OSM   H11S14650   4.455   1.603   7.858  2.5797 -1.3588  1.4587
  135OSM   H11T14651   4.478   1.442   7.930 -0.6835 -2.4666 -3.4724
  135OSM   C12S14652   4.333   1.579   8.032  0.8470 -1.0631  0.1496
  135OSM   H12S14653   4.267   1.503   8.079  0.6395  0.4289  2.4243
  135OSM   H12T14654   4.273   1.665   7.996  0.8432 -1.1361 -0.0202
  135OSM   C13S14655   4.431   1.640   8.133  0.6622  0.3208 -0.5658
  135OSM   H13S14656   4.379   1.679   8.223 -0.5737 -1.7393 -0.3383
  135OSM   H13T14657   4.502   1.719   8.097 -0.8791  0.7518 -2.8438
  135OSM   C14S14658   4.514   1.526   8.201 -0.6444  0.7296  0.3249
  135OSM   H14S14659   4.567   1.571   8.288 -0.4413  1.7445 -0.3061
  135OSM   H14T14660   4.595   1.516   8.126 -0.2946  0.0326  0.7848
  135OSM   C15S14661   4.437   1.391   8.233  0.0246  0.7502 -0.4983
  135OSM   H15S14662   4.506   1.314   8.274 -0.6888  0.8553  0.9669
  135OSM   H15T14663   4.411   1.352   8.132  1.8387 -1.7900 -0.0723
  135OSM   C16S14664   4.317   1.400   8.329  0.0706  0.0717  0.4950
  135OSM   H16S14665   4.275   1.298   8.341  3.0834 -1.5827 -1.4763
  135OSM   H16T14666   4.242   1.464   8.278 -0.0154 -0.4801 -0.0865
  135OSM   C17S14667   4.359   1.470   8.455 -0.6191 -0.0247 -0.9905
  135OSM   H17S14668   4.263   1.490   8.506 -0.9271 -0.0214 -1.5639
  135OSM   H17T14669   4.405   1.570   8.439 -2.3669  0.7242 -1.5546
  135OSM   C18S14670   4.451   1.382   8.541  0.7980 -1.1558  0.2447
  135OSM   H18S14671   4.545   1.354   8.489  0.5370 -1.1462 -0.2393
  135OSM   H18T14672   4.407   1.284   8.568  0.6448 -0.8737  1.0516
  135OSM   H18U14673   4.473   1.423   8.641  1.1865 -0.6017 -0.0592
  135OSM    C1F14674   4.299   1.574   6.851 -0.1086  0.0515  0.7432
  135OSM     OF14675   4.214   1.525   6.776 -0.4078  0.1227 -0.0606
  135OSM    C2F14676   4.312   1.720   6.854  0.0952 -0.5556  1.0309
  135OSM    H2F14677   4.295   1.756   6.750  0.8367 -0.7312  0.8461
  135OSM    H2G14678   4.414   1.757   6.878  0.3435 -1.5158  1.5250
  135OSM    C3F14679   4.210   1.796   6.948 -0.3503  0.1662 -0.2792
  135OSM    H3F14680   4.106   1.767   6.922 -1.2655  2.1188  0.9860
  135OSM    H3G14681   4.211   1.903   6.921 -1.9328 -0.1963 -2.0409
  135OSM    C4F14682   4.246   1.769   7.098 -0.9516 -0.0328  0.0925
  135OSM    H4F14683   4.333   1.837   7.108  0.3558 -1.7342  0.7370
  135OSM    H4G14684   4.281   1.667   7.125 -3.2891 -0.5289  1.5578
  135OSM    C5F14685   4.130   1.807   7.198 -0.3849  0.0937  0.0788
  135OSM    H5F14686   4.040   1.748   7.168 -2.5895  3.7534 -1.2268
  135OSM    H5G14687   4.090   1.911   7.186 -1.0500 -0.2433 -0.7871
  135OSM    C6F14688   4.165   1.792   7.343  0.4014 -0.4371 -0.0418
  135OSM    H6F14689   4.239   1.867   7.377  0.2158 -0.3464  0.1695
  135OSM    H6G14690   4.215   1.692   7.345  0.5966 -0.3758 -1.1904
  135OSM    C7F14691   4.047   1.794   7.437  0.1042 -0.2402 -0.8923
  135OSM    H7F14692   3.957   1.742   7.398 -0.8852 -0.7900  1.8838
  135OSM    H7G14693   4.020   1.901   7.447 -4.7215 -1.2543 -0.4828
  135OSM    C8F14694   4.088   1.743   7.576  0.4098  0.1308 -0.3906
  135OSM    H8F14695   4.127   1.641   7.559  0.3229 -0.0822  0.6066
  135OSM    H8G14696   4.002   1.702   7.633  1.8583  0.2325  1.9988
  135OSM    C9F14697   4.176   1.836   7.654  1.3752 -0.5254 -0.0970
  135OSM    H9F14698   4.276   1.854   7.612  2.0804  0.7111  1.9467
  135OSM   C10F14699   4.141   1.899   7.773 -0.0238 -0.0105 -0.3084
  135OSM   H10F14700   4.215   1.969   7.814  0.7150 -0.8292 -0.2043
  135OSM   C11F14701   4.012   1.890   7.852  0.1683  0.0037 -0.2493
  135OSM   H11F14702   4.035   1.875   7.960  0.8244 -1.9853 -0.6283
  135OSM   H11G14703   3.959   1.796   7.824 -0.2964 -0.4953  2.0305
  135OSM   C12F14704   3.928   2.023   7.849 -0.2825  0.2932 -0.2782
  135OSM   H12F14705   3.938   2.060   7.745 -0.2614  0.0691 -0.3584
  135OSM   H12G14706   3.987   2.095   7.910  2.8510 -0.3531 -2.3206
  135OSM   C13F14707   3.782   2.016   7.903 -0.2989  0.3469  0.1354
  135OSM   H13F14708   3.788   1.970   8.004  3.3707 -1.8556 -0.8993
  135OSM   H13G14709   3.733   1.956   7.824  0.2738  1.3526 -1.0039
  135OSM   C14F14710   3.709   2.148   7.895 -0.5409  0.3863  0.1771
  135OSM   H14F14711   3.602   2.129   7.917 -0.7348  0.5663 -0.5985
  135OSM   H14G14712   3.723   2.180   7.790  0.9346 -2.4596 -0.5937
  135OSM   C15F14713   3.756   2.257   7.999  0.1887 -0.2216 -0.1884
  135OSM   H15F14714   3.680   2.339   7.998 -1.3944 -1.6406 -0.1865
  135OSM   H15G14715   3.857   2.296   7.976 -0.2014 -0.3797 -2.4231
  135OSM   C16F14716   3.746   2.195   8.135 -0.2697 -0.1385 -0.8761
  135OSM   H16F14717   3.841   2.137   8.141  0.1109  0.4891 -0.7068
  135OSM   H16G14718   3.670   2.114   8.138  1.0020 -1.3498  0.8039
  135OSM   C17F14719   3.739   2.285   8.255  0.0837  0.3888 -0.2750
  135OSM   H17F14720   3.814   2.367   8.259 -0.6702  1.0466  1.1739
  135OSM   H17G14721   3.763   2.222   8.343  1.9762  0.6158 -0.5804
  135OSM   C18F14722   3.594   2.342   8.274 -0.3906  0.5508  0.6805
  135OSM   H18F14723   3.580   2.422   8.198 -0.4111 -2.0322 -2.1689
  135OSM   H18G14724   3.580   2.391   8.373 -2.0016 -1.6502  1.6154
  135OSM   H18H14725   3.516   2.264   8.263 -1.7508  2.0128 -0.4763
  136OSM      N14726   2.554   1.331   6.066  0.3072  0.5257 -0.0496
  136OSM    C1514727   2.570   1.228   6.178  0.0173  0.1839 -0.2000
  136OSM   H15A14728   2.571   1.278   6.274  2.2340  0.5672 -0.3525
  136OSM   H15B14729   2.660   1.169   6.167  0.1211  0.3022  0.0104
  136OSM   H15C14730   2.487   1.160   6.192 -0.7047  0.7705 -1.5283
  136OSM    C1414731   2.656   1.446   6.082  0.5047  0.4566  0.3475
  136OSM   H14A14732   2.622   1.522   6.151 -1.6627 -0.6870  0.6230
  136OSM   H14B14733   2.664   1.503   5.991 -1.7463 -0.2837 -0.3954
  136OSM   H14C14734   2.755   1.407   6.100 -0.5872 -4.0577 -1.8895
  136OSM    C1314735   2.574   1.267   5.926  0.2644  0.7261 -0.7008
  136OSM   H13A14736   2.584   1.345   5.852  0.9764  1.6448  0.3159
  136OSM   H13B14737   2.498   1.194   5.901  0.4494 -0.0146  0.7562
  136OSM   H13C14738   2.672   1.222   5.937 -0.4648 -0.7862 -0.0781
  136OSM    C1214739   2.412   1.395   6.081 -1.3688 -0.8010  0.0246
  136OSM   H12A14740   2.421   1.466   6.162 -0.8677  1.7882 -2.1017
  136OSM   H12B14741   2.340   1.317   6.098 -0.3107 -2.5267 -2.7151
  136OSM    C1114742   2.363   1.491   5.972 -0.0854 -0.2768  0.3077
  136OSM   H11A14743   2.263   1.530   6.004  0.2447 -0.7391  2.0089
  136OSM   H11B14744   2.347   1.439   5.876  1.3187  0.1723 -0.1872
  136OSM      P14745   2.433   1.745   6.005  0.0844 -0.5318  0.2536
  136OSM    O1314746   2.547   1.829   5.976 -0.2144 -0.6724  0.0197
  136OSM    O1414747   2.302   1.803   5.962  0.5605 -0.0754  0.3515
  136OSM    O1114748   2.412   1.714   6.160 -0.7348 -0.2642  0.2987
  136OSM    O1214749   2.452   1.601   5.945 -0.0080  0.8993  0.5364
  136OSM    C1S14750   2.503   1.736   6.268  0.5484  0.5295 -0.3117
  136OSM    H1S14751   2.554   1.833   6.254 -2.4799  2.6540  2.0775
  136OSM    H1T14752   2.578   1.654   6.261  1.2622  1.1956 -0.5372
  136OSM     NF14753   2.546   1.759   6.504 -0.3530 -0.5365  0.5784
  136OSM    HNF14754   2.593   1.676   6.534  0.6854 -0.4718 -0.7813
  136OSM    C2S14755   2.444   1.720   6.411  0.0453 -0.3195 -0.0017
  136OSM    H2S14756   2.362   1.795   6.422 -1.0480 -1.6051  0.8940
  136OSM    C3S14757   2.386   1.583   6.441 -0.0159  0.0869  0.2780
  136OSM    H3S14758   2.465   1.505   6.436 -1.9888 -1.9283 -1.6841
  136OSM     O314759   2.295   1.541   6.338  0.6665  0.2520  0.2548
  136OSM    HO314760   2.294   1.598   6.261  1.5088  0.0832  0.1086
  136OSM    C4S14761   2.313   1.574   6.575  0.0582  0.4741  0.3356
  136OSM    H4S14762   2.213   1.619   6.569  1.2652  3.1561 -1.2803
  136OSM    C5S14763   2.365   1.524   6.687  0.7492  0.1193  0.1657
  136OSM    H5S14764   2.469   1.490   6.692  1.3054  1.4302 -1.3891
  136OSM    C6S14765   2.289   1.511   6.810 -0.0840  0.1688  0.0275
  136OSM    H6S14766   2.242   1.412   6.830  0.4460 -0.4495 -1.6195
  136OSM    H6T14767   2.202   1.580   6.817  1.2669  1.9748 -0.1177
  136OSM    C7S14768   2.385   1.536   6.933 -0.3684 -1.0822  0.0974
  136OSM    H7S14769   2.473   1.468   6.928  0.3467 -0.1472 -0.3983
  136OSM    H7T14770   2.339   1.530   7.034  0.9411  1.3413  0.9451
  136OSM    C8S14771   2.427   1.684   6.910 -0.3557 -0.3285 -0.1761
  136OSM    H8S14772   2.338   1.745   6.887  0.2149 -0.4417 -2.9495
  136OSM    H8T14773   2.497   1.700   6.825  1.3034 -1.8331  0.8213
  136OSM    C9S14774   2.510   1.748   7.019  0.1916  0.3226  0.0398
  136OSM    H9S14775   2.556   1.844   6.988 -1.2775  0.9684 -0.1950
  136OSM    H9T14776   2.581   1.667   7.045 -0.9368 -0.9511 -0.6883
  136OSM   C10S14777   2.417   1.777   7.148 -0.2048 -0.2592  0.2003
  136OSM   H10S14778   2.363   1.681   7.165  1.0034 -1.0524 -0.3225
  136OSM   H10T14779   2.341   1.854   7.124  0.2675 -0.6502 -3.0297
  136OSM   C11S14780   2.495   1.796   7.283  0.2835 -0.0488 -0.1331
  136OSM   H11S14781   2.548   1.894   7.284 -0.6176  0.4485 -0.2048
  136OSM   H11T14782   2.556   1.709   7.316  1.1967  0.5775 -0.1024
  136OSM   C12S14783   2.393   1.820   7.391  0.4003 -0.0497 -0.1477
  136OSM   H12S14784   2.318   1.738   7.400  0.0245  0.2777 -0.2590
  136OSM   H12T14785   2.328   1.908   7.368 -0.6953 -0.4631  1.1858
  136OSM   C13S14786   2.456   1.844   7.527 -0.2530 -0.1254  0.5234
  136OSM   H13S14787   2.525   1.930   7.513  1.0428 -1.4650 -1.8800
  136OSM   H13T14788   2.529   1.768   7.563  2.1407  2.0044  0.4491
  136OSM   C14S14789   2.349   1.872   7.639 -0.6065  0.4285 -0.1013
  136OSM   H14S14790   2.285   1.781   7.642  0.1872 -0.1218  0.5544
  136OSM   H14T14791   2.292   1.957   7.596  0.9222  0.4409 -2.2691
  136OSM   C15S14792   2.392   1.910   7.780 -0.8632 -0.1081 -0.0284
  136OSM   H15S14793   2.468   1.990   7.771 -0.0434 -1.0143 -1.3651
  136OSM   H15T14794   2.435   1.814   7.815 -1.8346 -0.3926  0.4432
  136OSM   C16S14795   2.279   1.941   7.881  0.1980  0.2720 -0.3308
  136OSM   H16S14796   2.207   1.856   7.882  1.2777 -0.6664  0.9658
  136OSM   H16T14797   2.220   2.030   7.852  1.4615  1.5506  0.8975
  136OSM   C17S14798   2.321   1.968   8.028  0.0686  0.3990 -0.2490
  136OSM   H17S14799   2.412   2.031   8.029  0.8927 -0.7661  0.1217
  136OSM   H17T14800   2.348   1.875   8.082  0.0702  0.8842  0.5868
  136OSM   C18S14801   2.209   2.043   8.098 -0.4292  0.3578  0.3678
  136OSM   H18S14802   2.180   2.133   8.039  0.4199  1.1111  1.0838
  136OSM   H18T14803   2.233   2.092   8.195  2.8334 -0.1170 -0.0946
  136OSM   H18U14804   2.128   1.968   8.106  2.0379 -3.1065 -3.3079
  136OSM    C1F14805   2.592   1.879   6.518  0.0610  1.1849 -0.0006
  136OSM     OF14806   2.548   1.979   6.467  0.6742 -0.3301  0.5948
  136OSM    C2F14807   2.686   1.896   6.637 -1.0252 -0.2941  0.2175
  136OSM    H2F14808   2.778   1.836   6.626  0.1929  1.2327  1.4946
  136OSM    H2G14809   2.641   1.842   6.723 -0.7258 -1.7193 -0.4924
  136OSM    C3F14810   2.735   2.041   6.662 -0.1784 -0.0423 -0.0126
  136OSM    H3F14811   2.643   2.098   6.687 -0.1637 -0.5632  1.3540
  136OSM    H3G14812   2.776   2.076   6.565  0.6209 -0.7027  0.0726
  136OSM    C4F14813   2.843   2.055   6.777 -0.3018 -0.4614  0.7237
  136OSM    H4F14814   2.875   2.162   6.779  0.5932 -0.6526 -0.8704
  136OSM    H4G14815   2.926   1.983   6.760  0.6321  0.8457 -0.5977
  136OSM    C5F14816   2.787   2.021   6.911  0.5110  0.1055  0.1591
  136OSM    H5F14817   2.748   1.918   6.899  1.4297 -0.2974  0.5106
  136OSM    H5G14818   2.695   2.073   6.944  0.4414  0.2039 -0.1801
  136OSM    C6F14819   2.901   2.015   7.018 -0.2944  0.1844 -0.3170
  136OSM    H6F14820   2.994   2.030   6.959  0.7160 -1.2333  0.8447
  136OSM    H6G14821   2.913   1.910   7.053  0.3429 -0.0999 -1.3517
  136OSM    C7F14822   2.898   2.127   7.125  0.2161  0.3314 -0.2495
  136OSM    H7F14823   2.869   2.226   7.083  0.6859  1.2451  1.5151
  136OSM    H7G14824   2.998   2.133   7.172 -0.9913  2.4700  2.3258
  136OSM    C8F14825   2.795   2.108   7.235 -0.4145  0.4324  0.0810
  136OSM    H8F14826   2.696   2.103   7.186 -1.8156 -0.2610  2.7746
  136OSM    H8G14827   2.801   2.201   7.295  3.7246  0.1410  0.4608
  136OSM    C9F14828   2.813   1.977   7.305  0.0056 -0.0797 -0.8417
  136OSM    H9F14829   2.817   1.889   7.239  2.3176 -0.4268 -0.3060
  136OSM   C10F14830   2.855   1.968   7.432 -0.8715  0.2766  0.3121
  136OSM   H10F14831   2.887   1.867   7.462  0.4982  0.7186  0.3827
  136OSM   C11F14832   2.887   2.083   7.525 -0.1516 -0.2603  0.2576
  136OSM   H11F14833   2.817   2.168   7.510  0.1734 -0.1272 -0.5629
  136OSM   H11G14834   2.986   2.129   7.509 -0.7583  1.5099  1.3131
  136OSM   C12F14835   2.887   2.062   7.674  0.1408  0.1464 -0.5495
  136OSM   H12F14836   2.891   2.161   7.726 -0.4319  0.8685 -1.8312
  136OSM   H12G14837   2.982   2.019   7.712 -1.8162 -2.4257  1.7881
  136OSM   C13F14838   2.764   1.988   7.728 -0.3884 -0.5312  0.5874
  136OSM   H13F14839   2.771   1.883   7.693  0.1481 -0.4719  0.5130
  136OSM   H13G14840   2.673   2.030   7.680  0.0412 -1.2320 -0.8861
  136OSM   C14F14841   2.750   2.003   7.882 -0.4087 -0.3797 -0.5354
  136OSM   H14F14842   2.666   1.936   7.910 -1.1260  0.2859 -1.0413
  136OSM   H14G14843   2.714   2.103   7.913 -0.0072 -0.4058  0.0297
  136OSM   C15F14844   2.878   1.938   7.953  0.0576 -0.2925  0.0182
  136OSM   H15F14845   2.971   1.970   7.901  2.8844  0.6224  4.9675
  136OSM   H15G14846   2.871   1.828   7.958  0.9212 -0.3519  0.0095
  136OSM   C16F14847   2.884   1.993   8.106 -0.3989  0.2814  0.1788
  136OSM   H16F14848   2.858   2.101   8.109 -0.1033  0.3320  2.2416
  136OSM   H16G14849   2.989   1.980   8.138 -0.1751 -2.7628 -1.3706
  136OSM   C17F14850   2.781   1.931   8.205 -0.8638  0.3498  0.1654
  136OSM   H17F14851   2.740   1.840   8.156 -2.6067  1.7916 -1.1979
  136OSM   H17G14852   2.691   1.994   8.218 -1.2537 -0.2095  0.1935
  136OSM   C18F14853   2.835   1.869   8.339  0.1940 -0.8854  0.4008
  136OSM   H18F14854   2.842   1.958   8.404 -2.6415  1.0631 -1.7053
  136OSM   H18G14855   2.929   1.820   8.307  0.6843 -0.1072  0.6344
  136OSM   H18H14856   2.767   1.796   8.389 -2.5196  0.4198 -1.1302
  137OSM      N14857   5.602   6.645   6.070  0.1729  0.1743  0.0863
  137OSM    C1514858   5.690   6.698   6.182  0.0589 -0.0169 -0.0150
  137OSM   H15A14859   5.621   6.749   6.248  0.1046  0.5782 -0.4263
  137OSM   H15B14860   5.753   6.778   6.149  0.2158  0.5647  1.5911
  137OSM   H15C14861   5.745   6.624   6.239  3.6028  0.3237 -2.6618
  137OSM    C1414862   5.556   6.760   5.984 -0.4611  0.5358 -0.0306
  137OSM   H14A14863   5.480   6.813   6.040 -0.4900 -0.1972  0.6479
  137OSM   H14B14864   5.517   6.727   5.889 -0.3724  0.8619 -0.1817
  137OSM   H14C14865   5.637   6.825   5.956  1.9868 -1.4820  1.7750
  137OSM    C1314866   5.690   6.567   5.980  0.6148  0.6425  0.9721
  137OSM   H13A14867   5.783   6.614   5.950  2.1086 -2.2869  0.6557
  137OSM   H13B14868   5.637   6.543   5.888  1.5499  1.6425  0.1396
  137OSM   H13C14869   5.715   6.474   6.027  2.5139  1.5543  1.8783
  137OSM    C1214870   5.482   6.567   6.116 -0.2639  0.2905  0.9254
  137OSM   H12A14871   5.515   6.465   6.129  0.3023  0.4453  0.7534
  137OSM   H12B14872   5.402   6.557   6.044  0.8313 -3.6734  0.0110
  137OSM    C1114873   5.429   6.605   6.254  0.0601 -0.0462  0.1522
  137OSM   H11A14874   5.489   6.563   6.338 -0.7960 -0.2646  0.6669
  137OSM   H11B14875   5.336   6.548   6.277 -0.1290  0.9641  2.1868
  137OSM      P14876   5.263   6.804   6.242  0.1603  0.0720 -0.5097
  137OSM    O1314877   5.265   6.942   6.189  0.0751  0.2653  0.2904
  137OSM    O1414878   5.187   6.700   6.173  0.3346 -0.0301  0.5779
  137OSM    O1114879   5.199   6.813   6.392  0.3691  0.3632  0.2398
  137OSM    O1214880   5.405   6.748   6.271  0.3471 -0.0125 -0.6202
  137OSM    C1S14881   5.281   6.831   6.506  1.8063  0.0639  0.2911
  137OSM    H1S14882   5.273   6.940   6.526 -1.4669 -0.3185  1.8178
  137OSM    H1T14883   5.383   6.791   6.494  2.0527  0.6988  0.2520
  137OSM     NF14884   5.264   6.813   6.758  0.2276  0.3483  0.9170
  137OSM    HNF14885   5.334   6.752   6.793 -0.1927 -0.5124  0.2993
  137OSM    C2S14886   5.210   6.761   6.629  0.7079  0.1595  0.2907
  137OSM    H2S14887   5.102   6.786   6.626  0.4098 -1.1632 -1.4406
  137OSM    C3S14888   5.213   6.603   6.617  0.0365  0.1738  0.5139
  137OSM    H3S14889   5.319   6.575   6.595  1.1618  1.1391  4.0019
  137OSM     O314890   5.131   6.549   6.510 -0.1326 -0.7019  0.0382
  137OSM    HO314891   5.138   6.616   6.441  2.0233 -2.4370 -1.5297
  137OSM    C4S14892   5.173   6.545   6.744  0.2952 -0.0276 -0.5820
  137OSM    H4S14893   5.075   6.576   6.783  0.6251 -0.3809  0.5543
  137OSM    C5S14894   5.251   6.470   6.827 -0.0827  0.1113  0.8875
  137OSM    H5S14895   5.354   6.437   6.806 -0.8583 -2.1765  0.3834
  137OSM    C6S14896   5.207   6.410   6.959 -0.2917 -0.3837  0.3296
  137OSM    H6S14897   5.223   6.300   6.967  1.9869 -0.2741 -1.6044
  137OSM    H6T14898   5.098   6.428   6.974 -0.1537  1.4740 -0.5856
  137OSM    C7S14899   5.291   6.456   7.088  0.1305 -0.0909  0.5695
  137OSM    H7S14900   5.289   6.568   7.088 -0.7963 -0.0449 -2.0142
  137OSM    H7T14901   5.396   6.438   7.057  0.1328  1.4683 -0.4864
  137OSM    C8S14902   5.254   6.376   7.216 -0.0634  0.3832  0.0693
  137OSM    H8S14903   5.266   6.270   7.187 -2.4812 -0.1772  0.8984
  137OSM    H8T14904   5.144   6.391   7.227 -0.8716 -2.8246 -2.2044
  137OSM    C9S14905   5.340   6.406   7.341  0.4666  0.7724  0.2771
  137OSM    H9S14906   5.372   6.512   7.342  0.2547  0.8338  0.8039
  137OSM    H9T14907   5.436   6.351   7.342  0.0086 -0.0690 -0.1838
  137OSM   C10S14908   5.266   6.386   7.480  0.0513 -0.1249  0.4014
  137OSM   H10S14909   5.224   6.283   7.484  2.6665 -1.2700  0.4010
  137OSM   H10T14910   5.191   6.467   7.487  2.4318  2.3195 -0.6597
  137OSM   C11S14911   5.359   6.407   7.605 -0.5263 -0.2535  0.1295
  137OSM   H11S14912   5.396   6.511   7.610 -0.9956 -0.0993  0.3904
  137OSM   H11T14913   5.433   6.324   7.596  0.6420  0.9893 -2.8870
  137OSM   C12S14914   5.289   6.398   7.743 -0.7022 -0.6094  0.0591
  137OSM   H12S14915   5.249   6.295   7.752  0.1299 -0.8989  0.5270
  137OSM   H12T14916   5.202   6.467   7.749 -1.2771 -1.2446 -0.7745
  137OSM   C13S14917   5.379   6.424   7.859  0.0530  1.0423  0.7189
  137OSM   H13S14918   5.425   6.525   7.869 -0.5086  1.1820  2.1337
  137OSM   H13T14919   5.464   6.352   7.858  1.1455  2.2020 -2.3097
  137OSM   C14S14920   5.310   6.419   7.998 -0.2293  0.0295 -0.0453
  137OSM   H14S14921   5.263   6.318   7.991  0.0705 -0.1032 -0.1624
  137OSM   H14T14922   5.227   6.488   8.023 -0.8356 -0.4717 -0.6076
  137OSM   C15S14923   5.416   6.437   8.107 -0.1390 -0.3849 -0.9124
  137OSM   H15S14924   5.485   6.518   8.077  2.0100 -2.1584 -1.0323
  137OSM   H15T14925   5.458   6.335   8.122 -0.7021 -0.6394 -1.0444
  137OSM   C16S14926   5.344   6.466   8.245 -0.4409 -0.2859  0.4502
  137OSM   H16S14927   5.249   6.409   8.248  0.6427 -2.1165  2.4187
  137OSM   H16T14928   5.318   6.574   8.243  2.5222  0.5035 -0.7254
  137OSM   C17S14929   5.426   6.414   8.363  0.4886  0.0008  0.0259
  137OSM   H17S14930   5.517   6.478   8.368 -0.0738  0.9097 -0.9606
  137OSM   H17T14931   5.453   6.309   8.338  1.1499  0.7234 -2.6483
  137OSM   C18S14932   5.342   6.422   8.493 -0.2349 -0.0867  0.0116
  137OSM   H18S14933   5.253   6.359   8.475  1.2260 -1.9057 -1.1968
  137OSM   H18T14934   5.322   6.528   8.523 -0.2569 -0.0878  0.0002
  137OSM   H18U14935   5.408   6.389   8.576  0.4054  1.3705  0.1235
  137OSM    C1F14936   5.251   6.938   6.808 -0.8485 -0.3767  0.2438
  137OSM     OF14937   5.194   7.023   6.738  0.5423 -0.1529 -0.4057
  137OSM    C2F14938   5.303   6.962   6.946 -0.4182 -0.4347  0.5845
  137OSM    H2F14939   5.361   6.874   6.981  0.9841  0.2973  0.1698
  137OSM    H2G14940   5.223   6.974   7.022 -0.1750  0.6970  0.6874
  137OSM    C3F14941   5.387   7.096   6.942  0.2888  0.2731 -0.2215
  137OSM    H3F14942   5.320   7.184   6.924  1.2068  0.9063 -0.6519
  137OSM    H3G14943   5.461   7.100   6.859  0.3522  1.6757 -0.1366
  137OSM    C4F14944   5.468   7.094   7.074  0.0388  0.5185  0.2550
  137OSM    H4F14945   5.542   7.176   7.086 -0.1077  0.4593  1.8343
  137OSM    H4G14946   5.522   6.997   7.084  0.8201  0.6587 -1.9914
  137OSM    C5F14947   5.378   7.121   7.189 -0.4094 -0.7675 -0.2937
  137OSM    H5F14948   5.306   7.039   7.210 -0.5115 -0.2674  1.4076
  137OSM    H5G14949   5.310   7.202   7.157 -1.4286 -0.1898  3.0042
  137OSM    C6F14950   5.459   7.156   7.311  0.0997  0.3131  0.0762
  137OSM    H6F14951   5.526   7.244   7.304  1.0464 -0.3573  0.4502
  137OSM    H6G14952   5.513   7.063   7.337  0.8318 -0.2061 -2.8496
  137OSM    C7F14953   5.360   7.199   7.426 -0.6595  0.4941 -0.2557
  137OSM    H7F14954   5.295   7.114   7.454  0.8190 -0.5524  0.1138
  137OSM    H7G14955   5.285   7.271   7.388 -1.1303  0.4108  0.4854
  137OSM    C8F14956   5.428   7.258   7.555  0.6111 -0.6231 -0.9140
  137OSM    H8F14957   5.347   7.310   7.609  0.3096 -0.2745 -1.6807
  137OSM    H8G14958   5.499   7.340   7.528  0.7126 -0.5778 -0.5174
  137OSM    C9F14959   5.491   7.152   7.641  0.2649  0.0929  0.7454
  137OSM    H9F14960   5.484   7.050   7.601 -2.7814 -0.4331  2.2811
  137OSM   C10F14961   5.520   7.175   7.771  0.0666  0.0627  0.5269
  137OSM   H10F14962   5.545   7.086   7.830  0.1038 -1.2389 -1.3535
  137OSM   C11F14963   5.502   7.306   7.845  0.7150 -0.1748  0.4147
  137OSM   H11F14964   5.463   7.385   7.778  0.5981 -1.0672 -0.6089
  137OSM   H11G14965   5.594   7.336   7.899  0.5609 -1.0418  1.1761
  137OSM   C12F14966   5.396   7.295   7.966 -0.3634 -0.4325 -0.1218
  137OSM   H12F14967   5.307   7.243   7.925 -0.6619 -0.8167  0.9903
  137OSM   H12G14968   5.366   7.387   8.020  1.7976 -1.2139  2.6155
  137OSM   C13F14969   5.439   7.196   8.078  0.1607  0.7221 -0.4831
  137OSM   H13F14970   5.468   7.105   8.023  0.3595  0.7929 -0.4937
  137OSM   H13G14971   5.346   7.190   8.140  1.6514  1.8464  2.0255
  137OSM   C14F14972   5.556   7.232   8.171 -0.0749  0.0414  0.4420
  137OSM   H14F14973   5.516   7.306   8.243 -1.8801 -1.4825  1.0779
  137OSM   H14G14974   5.642   7.279   8.117 -0.5750  0.9576  0.4304
  137OSM   C15F14975   5.601   7.104   8.245 -0.3404 -0.7574 -0.6246
  137OSM   H15F14976   5.654   7.140   8.336 -1.7889 -0.4988  0.1286
  137OSM   H15G14977   5.669   7.045   8.179 -0.2572 -2.2848  0.7359
  137OSM   C16F14978   5.487   7.014   8.290 -0.4727  0.1566 -0.0084
  137OSM   H16F14979   5.472   6.942   8.208 -0.5537 -1.0333  1.0245
  137OSM   H16G14980   5.390   7.066   8.302 -1.0663 -0.9043 -0.1106
  137OSM   C17F14981   5.523   6.937   8.411 -0.5402 -0.4200 -0.8564
  137OSM   H17F14982   5.445   6.867   8.448 -0.4474  0.5708  1.3744
  137OSM   H17G14983   5.538   7.007   8.496  0.7266 -0.4016 -1.0703
  137OSM   C18F14984   5.642   6.841   8.393  0.8799  0.2532 -0.1515
  137OSM   H18F14985   5.728   6.893   8.347  0.1357 -0.0735 -2.0123
  137OSM   H18G14986   5.616   6.756   8.326  2.1888 -0.5420  0.3047
  137OSM   H18H14987   5.671   6.793   8.489 -2.3299 -1.6949 -0.0012
  138OSM      N14988   5.926   2.337   5.990 -0.1946 -0.2757  0.0341
  138OSM    C1514989   6.047   2.253   5.958  0.2009  1.0431  0.1407
  138OSM   H15A14990   6.038   2.220   5.856  0.2036 -2.3854  1.1312
  138OSM   H15B14991   6.045   2.166   6.021 -0.1724  1.1171  0.2337
  138OSM   H15C14992   6.143   2.299   5.976  0.7481  0.8875 -2.1145
  138OSM    C1414993   5.798   2.255   5.987 -0.1418 -0.0447  0.7237
  138OSM   H14A14994   5.779   2.217   5.887  0.2701 -1.4664  1.1483
  138OSM   H14B14995   5.714   2.309   6.026  2.8714  4.4453  1.8271
  138OSM   H14C14996   5.820   2.161   6.036  0.5032 -0.6677 -0.6944
  138OSM    C1314997   5.947   2.394   6.129  0.4053  0.4686  0.2082
  138OSM   H13A14998   5.935   2.323   6.210  0.2914  0.3198  0.0606
  138OSM   H13B14999   5.868   2.466   6.144 -2.4616 -2.6843  1.4905
  138OSM   H13C15000   6.046   2.438   6.134  1.8542 -2.1073 -2.4908
  138OSM    C1215001   5.916   2.443   5.881  0.1374 -0.2740 -0.1204
  138OSM   H12A15002   5.824   2.499   5.890  0.3911  0.0266  0.8315
  138OSM   H12B15003   5.898   2.392   5.788 -0.9401 -1.5692  0.7507
  138OSM    C1115004   6.033   2.540   5.861  0.1930  0.3194  0.1614
  138OSM   H11A15005   6.032   2.573   5.755  0.4817 -1.4390 -0.4283
  138OSM   H11B15006   6.133   2.492   5.874  0.7240  1.5387  0.7410
  138OSM      P15007   6.139   2.739   5.991 -0.2389 -0.0078  0.3207
  138OSM    O1315008   6.254   2.731   5.895  0.0011 -0.3103 -0.0413
  138OSM    O1415009   6.085   2.867   6.022 -0.4293  0.1289  0.0995
  138OSM    O1115010   6.186   2.661   6.121  0.1986  0.0706  0.4258
  138OSM    O1215011   6.014   2.653   5.941 -0.2037  0.2470 -0.5944
  138OSM    C1S15012   6.126   2.697   6.243  0.7651 -0.7478 -0.0654
  138OSM    H1S15013   6.016   2.687   6.248  0.4868  1.4582 -0.6254
  138OSM    H1T15014   6.134   2.806   6.264  0.4166 -0.8733  0.7417
  138OSM     NF15015   6.122   2.620   6.476  0.0667 -0.7612 -0.5752
  138OSM    HNF15016   6.132   2.690   6.546  1.3254 -0.6202 -0.8758
  138OSM    C2S15017   6.205   2.633   6.358 -0.2044 -0.3416 -0.3759
  138OSM    H2S15018   6.246   2.533   6.330 -1.2565 -0.7681 -0.4346
  138OSM    C3S15019   6.336   2.721   6.368 -0.0324 -0.4172  0.4696
  138OSM    H3S15020   6.300   2.825   6.378  0.7790 -0.0966  0.1488
  138OSM     O315021   6.418   2.719   6.252 -0.6046 -0.2365 -0.5051
  138OSM    HO315022   6.359   2.685   6.184  0.7533 -1.4461 -1.1267
  138OSM    C4S15023   6.419   2.678   6.480 -0.0932 -0.4671  0.5352
  138OSM    H4S15024   6.450   2.572   6.479  1.5399  0.0007 -0.4720
  138OSM    C5S15025   6.442   2.752   6.592  0.0356 -0.1796 -0.2111
  138OSM    H5S15026   6.405   2.856   6.591 -0.2489 -0.2708 -1.7848
  138OSM    C6S15027   6.509   2.704   6.717 -0.9481 -0.1921  1.0702
  138OSM    H6S15028   6.613   2.740   6.729 -0.4509 -1.0644 -0.4673
  138OSM    H6T15029   6.494   2.596   6.741 -0.2835 -0.4499  0.3639
  138OSM    C7S15030   6.425   2.768   6.829  0.2317  0.0833 -0.6143
  138OSM    H7S15031   6.326   2.717   6.832  0.0528  0.4356 -0.4001
  138OSM    H7T15032   6.410   2.877   6.817 -0.8601  0.0097 -0.0785
  138OSM    C8S15033   6.490   2.757   6.970 -0.5803 -0.6116 -0.2824
  138OSM    H8S15034   6.600   2.745   6.961 -0.6197 -3.8942  1.8058
  138OSM    H8T15035   6.465   2.666   7.028  1.9088 -0.3779  1.2929
  138OSM    C9S15036   6.471   2.889   7.052  0.5035 -0.2766 -0.3488
  138OSM    H9S15037   6.364   2.914   7.069  1.0067  1.2533  0.8565
  138OSM    H9T15038   6.517   2.975   7.000 -0.5856  1.2000  1.0171
  138OSM   C10S15039   6.544   2.874   7.185 -0.2135 -0.3771 -0.1934
  138OSM   H10S15040   6.654   2.867   7.173 -0.4573 -0.4524 -2.9038
  138OSM   H10T15041   6.496   2.782   7.225  0.4401 -1.7601 -2.4574
  138OSM   C11S15042   6.517   3.005   7.259  0.2186  0.3207  0.4949
  138OSM   H11S15043   6.413   3.040   7.243  1.1798  2.1567 -2.7070
  138OSM   H11T15044   6.577   3.090   7.219 -0.7436 -0.3382 -2.6140
  138OSM   C12S15045   6.552   2.983   7.404 -0.3545 -0.1585 -0.6836
  138OSM   H12S15046   6.661   2.963   7.411 -0.2262  0.9443  0.9795
  138OSM   H12T15047   6.512   2.890   7.449 -0.8631  0.3261 -0.1093
  138OSM   C13S15048   6.509   3.098   7.496  0.3948 -0.3409  0.5727
  138OSM   H13S15049   6.399   3.114   7.492  0.7756  3.0904  0.9508
  138OSM   H13T15050   6.564   3.188   7.461  1.7776 -0.9528  1.0658
  138OSM   C14S15051   6.554   3.068   7.638 -0.0957 -0.3411 -0.3214
  138OSM   H14S15052   6.664   3.074   7.656  0.0099  0.2391 -1.0920
  138OSM   H14T15053   6.519   2.969   7.673  0.1065 -0.3913 -0.2626
  138OSM   C15S15054   6.511   3.176   7.738  0.7602 -0.2569 -0.9510
  138OSM   H15S15055   6.403   3.201   7.739 -0.2412 -3.9744 -0.9684
  138OSM   H15T15056   6.559   3.274   7.715  0.4564  0.1040 -0.0832
  138OSM   C16S15057   6.550   3.156   7.887 -0.0155  0.3254  0.6662
  138OSM   H16S15058   6.532   3.254   7.938 -2.5998  0.1767  0.1776
  138OSM   H16T15059   6.657   3.136   7.907  0.0399  2.6068  3.2921
  138OSM   C17S15060   6.462   3.044   7.954  0.1784  0.4066 -0.3134
  138OSM   H17S15061   6.438   2.959   7.885  0.8364 -2.4157  2.6877
  138OSM   H17T15062   6.358   3.079   7.974  0.0923  0.8872 -1.4905
  138OSM   C18S15063   6.530   2.994   8.082  0.5588 -0.6867 -0.2209
  138OSM   H18S15064   6.634   2.957   8.066  1.2010  1.5359 -1.5641
  138OSM   H18T15065   6.469   2.917   8.135  1.7309 -0.4421  1.6034
  138OSM   H18U15066   6.531   3.078   8.155 -0.1566 -0.7378 -0.1451
  138OSM    C1F15067   6.043   2.521   6.495  0.2601 -0.2708 -0.4224
  138OSM     OF15068   6.056   2.424   6.425 -0.2116 -0.2444  0.2928
  138OSM    C2F15069   5.928   2.531   6.598  0.4600 -0.4358  0.2283
  138OSM    H2F15070   5.843   2.476   6.550  0.9499 -0.6822 -0.3720
  138OSM    H2G15071   5.870   2.625   6.617 -0.6929 -1.3802  1.5587
  138OSM    C3F15072   5.954   2.456   6.730  0.1359 -0.3404  0.3598
  138OSM    H3F15073   5.976   2.347   6.729  0.6790 -0.2352  0.0235
  138OSM    H3G15074   5.862   2.463   6.791 -0.3638  2.9533 -0.5517
  138OSM    C4F15075   6.063   2.522   6.822 -0.5376  0.4422 -0.3761
  138OSM    H4F15076   6.048   2.631   6.841  2.2517  0.7595  0.4656
  138OSM    H4G15077   6.160   2.517   6.768 -0.3632  0.0638 -0.0391
  138OSM    C5F15078   6.079   2.441   6.948  0.7561 -0.0219  0.3236
  138OSM    H5F15079   6.125   2.345   6.915 -2.5346 -2.1437  1.3800
  138OSM    H5G15080   5.986   2.435   7.008 -0.0419  3.8766 -0.2525
  138OSM    C6F15081   6.176   2.501   7.044  0.4272  0.5506  0.3895
  138OSM    H6F15082   6.155   2.610   7.052 -3.1902  0.1532 -1.5050
  138OSM    H6G15083   6.280   2.491   7.007  0.7133  0.2945  1.2270
  138OSM    C7F15084   6.163   2.448   7.186  0.8987  0.7381 -0.4682
  138OSM    H7F15085   6.144   2.340   7.171  0.3852  0.8231 -0.4481
  138OSM    H7G15086   6.067   2.490   7.223  0.5347 -1.1501  0.8545
  138OSM    C8F15087   6.274   2.487   7.289 -0.3685 -0.4747  0.2703
  138OSM    H8F15088   6.366   2.449   7.239  0.2798  0.8513  0.3996
  138OSM    H8G15089   6.245   2.438   7.384 -0.8710  0.8090  0.8045
  138OSM    C9F15090   6.276   2.635   7.299  0.1591  0.2525 -0.1973
  138OSM    H9F15091   6.249   2.692   7.208 -0.4958 -1.0645 -0.8535
  138OSM   C10F15092   6.300   2.708   7.407 -0.4480 -0.5815 -0.1022
  138OSM   H10F15093   6.309   2.817   7.394  2.3424 -0.5849  0.9790
  138OSM   C11F15094   6.338   2.655   7.542  0.0282 -0.2872 -0.1087
  138OSM   H11F15095   6.435   2.703   7.567  0.9815 -2.4321  0.5672
  138OSM   H11G15096   6.358   2.545   7.542  0.0511 -0.3017 -1.4569
  138OSM   C12F15097   6.239   2.677   7.655 -0.1483  0.1270  0.0384
  138OSM   H12F15098   6.276   2.635   7.751  1.4593  4.4811  1.5649
  138OSM   H12G15099   6.138   2.635   7.638 -0.2197  0.6662 -0.9660
  138OSM   C13F15100   6.217   2.832   7.684 -0.5103  0.0345  0.1218
  138OSM   H13F15101   6.152   2.881   7.609 -0.4165  0.2042  0.1506
  138OSM   H13G15102   6.309   2.892   7.700 -0.9666  0.9698 -0.7050
  138OSM   C14F15103   6.125   2.840   7.814  0.6284 -0.6739 -0.4685
  138OSM   H14F15104   6.190   2.831   7.904  1.1556 -0.1220 -0.7869
  138OSM   H14G15105   6.053   2.756   7.808 -1.1418  0.7258  0.4926
  138OSM   C15F15106   6.061   2.981   7.839 -0.6224  0.3255  0.4197
  138OSM   H15F15107   6.021   3.024   7.744 -1.3456 -0.6540  0.2668
  138OSM   H15G15108   6.144   3.046   7.874 -0.3487  1.6132 -2.3129
  138OSM   C16F15109   5.950   2.972   7.944 -0.3530 -0.6552 -0.0292
  138OSM   H16F15110   5.981   2.883   8.002 -0.4359 -0.8496 -0.2794
  138OSM   H16G15111   5.855   2.949   7.890  0.1115 -0.3915 -0.9853
  138OSM   C17F15112   5.945   3.103   8.018  0.1623 -0.1428  0.0191
  138OSM   H17F15113   5.938   3.191   7.951 -0.7180  0.9986  1.5439
  138OSM   H17G15114   6.041   3.114   8.073  2.0292 -1.2708 -2.7792
  138OSM   C18F15115   5.829   3.111   8.113  0.2446 -0.3098  0.2819
  138OSM   H18F15116   5.726   3.105   8.071  0.6288  1.5788 -1.0533
  138OSM   H18G15117   5.835   3.203   8.175  0.1307  0.7194 -1.1757
  138OSM   H18H15118   5.846   3.027   8.183  2.2408 -0.4228 -0.2711
  139OSM      N15119   4.651   4.767   5.900  0.1037  0.0299  0.0081
  139OSM    C1515120   4.747   4.716   5.796 -0.6854 -0.2914 -0.3795
  139OSM   H15A15121   4.719   4.753   5.698 -3.1166 -1.1143 -0.0769
  139OSM   H15B15122   4.752   4.609   5.792  1.4034 -0.2069 -1.8609
  139OSM   H15C15123   4.848   4.750   5.811 -0.4410 -1.4984  0.8169
  139OSM    C1415124   4.627   4.910   5.873  0.1541 -0.4795  0.0408
  139OSM   H14A15125   4.717   4.969   5.863 -1.7680  2.2290 -3.3627
  139OSM   H14B15126   4.566   4.951   5.953 -0.3362 -2.0722  0.5113
  139OSM   H14C15127   4.569   4.928   5.784  2.8536  0.3608 -1.6933
  139OSM    C1315128   4.527   4.685   5.892 -0.7745 -0.0267  0.6062
  139OSM   H13A15129   4.470   4.689   5.984  1.5233  1.1846  2.0679
  139OSM   H13B15130   4.559   4.582   5.886 -0.0921  0.2135 -0.1225
  139OSM   H13C15131   4.471   4.704   5.801  1.0525  0.3626 -0.4841
  139OSM    C1215132   4.713   4.760   6.038  0.2516  0.7888  0.5323
  139OSM   H12A15133   4.670   4.832   6.107  1.9741 -0.3893  3.0130
  139OSM   H12B15134   4.816   4.791   6.037  0.3336  0.5808  1.2870
  139OSM    C1115135   4.708   4.621   6.113  0.2320  0.4390  0.8907
  139OSM   H11A15136   4.601   4.601   6.135 -0.1660 -0.9181 -1.9449
  139OSM   H11B15137   4.764   4.639   6.208  1.3291  1.4014  0.0833
  139OSM      P15138   4.704   4.372   6.047 -0.1418  0.2881  0.0128
  139OSM    O1315139   4.591   4.359   5.959  0.0788  0.4846 -0.3538
  139OSM    O1415140   4.816   4.280   6.040  0.5325  0.5297 -0.3763
  139OSM    O1115141   4.641   4.385   6.197 -0.0742  0.3889 -0.3533
  139OSM    O1215142   4.765   4.517   6.035 -0.1187  0.0982 -0.1923
  139OSM    C1S15143   4.704   4.311   6.303 -0.0130 -0.7325  0.6583
  139OSM    H1S15144   4.803   4.269   6.275 -0.7901 -1.7181 -0.7842
  139OSM    H1T15145   4.642   4.225   6.337 -0.7396 -0.2381  0.6003
  139OSM     NF15146   4.796   4.312   6.525  0.0986 -0.2915 -0.5863
  139OSM    HNF15147   4.747   4.241   6.574  0.4302 -1.0406 -1.3289
  139OSM    C2S15148   4.718   4.390   6.436 -0.3474 -0.1994 -0.2220
  139OSM    H2S15149   4.759   4.489   6.407 -0.1197 -0.1929  0.1156
  139OSM    C3S15150   4.571   4.415   6.487  0.4890 -0.1621 -0.9423
  139OSM    H3S15151   4.520   4.319   6.509  0.5243 -1.3351 -5.1876
  139OSM     O315152   4.484   4.478   6.394 -0.2522 -0.2640 -0.2268
  139OSM    HO315153   4.533   4.464   6.313 -0.3769 -0.4694 -0.2689
  139OSM    C4S15154   4.573   4.494   6.624  0.2074  0.1269  0.5583
  139OSM    H4S15155   4.516   4.447   6.706  0.3362  3.2533  2.5904
  139OSM    C5S15156   4.637   4.608   6.653  0.1632 -0.5514 -0.4745
  139OSM    H5S15157   4.702   4.650   6.575 -0.3368  1.0904 -0.0594
  139OSM    C6S15158   4.630   4.689   6.781  0.1025 -0.0629 -0.1813
  139OSM    H6S15159   4.537   4.749   6.790 -1.5844 -2.6738  1.0979
  139OSM    H6T15160   4.718   4.757   6.780  0.1787 -0.1204 -2.3854
  139OSM    C7S15161   4.641   4.605   6.910  0.3945  0.7176 -0.2271
  139OSM    H7S15162   4.730   4.539   6.898 -0.0248 -0.0857  0.8493
  139OSM    H7T15163   4.552   4.537   6.910 -0.0666  1.3058  0.1388
  139OSM    C8S15164   4.655   4.687   7.037  0.8234  0.4552 -0.1325
  139OSM    H8S15165   4.551   4.711   7.070  0.6658 -1.9422  1.3921
  139OSM    H8T15166   4.718   4.775   7.014  0.2224  1.1032  0.6156
  139OSM    C9S15167   4.709   4.619   7.164  0.0352 -0.3238 -0.2892
  139OSM    H9S15168   4.815   4.600   7.136 -0.7818  0.0430 -4.2093
  139OSM    H9T15169   4.672   4.517   7.189  0.3909 -0.0213  1.6129
  139OSM   C10S15170   4.691   4.706   7.294  0.4683 -0.6867  1.2242
  139OSM   H10S15171   4.583   4.695   7.317 -0.7815  1.7516 -2.5281
  139OSM   H10T15172   4.710   4.813   7.272  1.4885 -1.2276 -0.8529
  139OSM   C11S15173   4.780   4.648   7.409  1.0789  0.5275 -0.2812
  139OSM   H11S15174   4.885   4.682   7.396  1.5235 -0.4940  0.4748
  139OSM   H11T15175   4.780   4.537   7.396 -0.6875  0.3598  0.7439
  139OSM   C12S15176   4.732   4.678   7.549  0.1421 -0.1670 -0.3223
  139OSM   H12S15177   4.641   4.619   7.574  0.2920 -0.6175 -0.8109
  139OSM   H12T15178   4.719   4.787   7.568  0.5477 -0.2249  0.3082
  139OSM   C13S15179   4.844   4.626   7.651  0.2979 -1.1344  0.4133
  139OSM   H13S15180   4.930   4.694   7.634 -0.1651 -0.7727 -0.5237
  139OSM   H13T15181   4.875   4.520   7.648 -0.0287 -1.3059  1.9386
  139OSM   C14S15182   4.798   4.647   7.798 -0.2865 -0.0682  0.7715
  139OSM   H14S15183   4.731   4.560   7.817  1.7626 -2.0529 -0.5406
  139OSM   H14T15184   4.747   4.745   7.811  1.6033  0.9700  0.7742
  139OSM   C15S15185   4.909   4.630   7.897 -0.1446  0.0658  0.1845
  139OSM   H15S15186   4.979   4.716   7.887 -1.7280  1.5493  1.1561
  139OSM   H15T15187   4.972   4.541   7.875  0.0459  0.0215  0.8834
  139OSM   C16S15188   4.861   4.630   8.041 -1.0582 -0.0832 -0.2336
  139OSM   H16S15189   4.813   4.533   8.067 -1.1738 -0.5985 -2.1556
  139OSM   H16T15190   4.782   4.707   8.046 -0.6172  0.2767  1.6894
  139OSM   C17S15191   4.969   4.642   8.137 -0.1237  0.3163 -0.0351
  139OSM   H17S15192   5.004   4.747   8.123 -1.9001  1.3643  2.5026
  139OSM   H17T15193   5.060   4.582   8.116 -0.5845 -0.7500  0.9037
  139OSM   C18S15194   4.928   4.646   8.279  0.0363  0.8171 -0.3279
  139OSM   H18S15195   5.021   4.660   8.339  0.6641 -2.1942 -0.4766
  139OSM   H18T15196   4.873   4.557   8.316  0.2131  0.5925 -0.5980
  139OSM   H18U15197   4.857   4.729   8.302 -0.6201 -0.1628  1.3334
  139OSM    C1F15198   4.928   4.316   6.524  0.2209  0.0535  0.2663
  139OSM     OF15199   4.995   4.401   6.470  0.2015  0.4622  0.6225
  139OSM    C2F15200   5.001   4.193   6.581  0.0936 -0.6926  0.0558
  139OSM    H2F15201   5.040   4.123   6.504 -0.8124 -0.1992 -0.8851
  139OSM    H2G15202   4.918   4.137   6.629 -2.6874  1.4235 -1.9490
  139OSM    C3F15203   5.107   4.237   6.683 -0.6880  0.4171  0.0254
  139OSM    H3F15204   5.189   4.287   6.627  1.1363 -1.2226  1.0946
  139OSM    H3G15205   5.153   4.147   6.729  0.1036  0.4030 -0.7693
  139OSM    C4F15206   5.043   4.327   6.798 -0.0556  0.0146 -0.0488
  139OSM    H4F15207   4.936   4.301   6.813 -1.0165  1.9497 -2.8647
  139OSM    H4G15208   5.046   4.432   6.762  1.0996  0.1638  0.4604
  139OSM    C5F15209   5.115   4.311   6.939 -0.4632  0.1175  0.3865
  139OSM    H5F15210   5.223   4.323   6.919 -0.0162  2.4469  3.3863
  139OSM    H5G15211   5.094   4.208   6.976 -0.1014 -0.5828 -1.3054
  139OSM    C6F15212   5.064   4.413   7.049  0.0124 -0.0093 -0.4604
  139OSM    H6F15213   4.961   4.398   7.086  0.6017  0.4632  1.5416
  139OSM    H6G15214   5.076   4.515   7.006  4.9028  0.1867  0.6809
  139OSM    C7F15215   5.165   4.410   7.163 -0.0729 -0.2430 -0.4279
  139OSM    H7F15216   5.163   4.496   7.234 -1.0988  0.3547 -1.1305
  139OSM    H7G15217   5.263   4.405   7.112  0.1120 -1.1118  0.0043
  139OSM    C8F15218   5.142   4.286   7.258 -0.2555 -0.0880  0.0980
  139OSM    H8F15219   5.161   4.196   7.195  0.6732 -1.0186  1.6557
  139OSM    H8G15220   5.033   4.285   7.278 -1.5439 -3.0931 -5.0181
  139OSM    C9F15221   5.236   4.284   7.375  0.1210  0.0207 -0.6459
  139OSM    H9F15222   5.341   4.288   7.342  0.7927  0.3183  1.3932
  139OSM   C10F15223   5.208   4.273   7.508 -0.1041  0.0595 -0.2294
  139OSM   H10F15224   5.289   4.270   7.583 -0.7797  3.0592  0.7589
  139OSM   C11F15225   5.068   4.272   7.569 -0.0119  0.0108 -0.0933
  139OSM   H11F15226   4.990   4.264   7.490 -0.8671  1.3181  0.5941
  139OSM   H11G15227   5.044   4.368   7.618  0.2218  1.0904 -1.9882
  139OSM   C12F15228   5.057   4.157   7.665  0.2585  1.2460  0.3181
  139OSM   H12F15229   5.071   4.060   7.612 -1.5476  0.9246  0.3592
  139OSM   H12G15230   4.950   4.153   7.694  0.8140  0.3241  2.4796
  139OSM   C13F15231   5.127   4.183   7.795  1.0416  0.8193  0.4462
  139OSM   H13F15232   5.079   4.269   7.846  1.7427  3.1443 -2.5738
  139OSM   H13G15233   5.236   4.205   7.786  1.4118 -0.4617  1.4247
  139OSM   C14F15234   5.121   4.071   7.901  0.9910  0.3946  0.1375
  139OSM   H14F15235   5.199   3.995   7.878  1.3605  0.0863  2.2750
  139OSM   H14G15236   5.029   4.010   7.894  0.9046  0.3970  1.1645
  139OSM   C15F15237   5.138   4.116   8.052 -0.2957 -0.2869  0.1605
  139OSM   H15F15238   5.146   4.027   8.117 -0.6607  0.7000  1.6259
  139OSM   H15G15239   5.044   4.172   8.074  1.7124  3.2693  0.4524
  139OSM   C16F15240   5.244   4.226   8.079  0.0208  0.0917 -0.5223
  139OSM   H16F15241   5.207   4.324   8.043 -1.2755  0.0677  0.6789
  139OSM   H16G15242   5.339   4.204   8.025 -0.6811 -1.9980 -1.0058
  139OSM   C17F15243   5.285   4.256   8.224 -0.2523  0.7074 -0.3284
  139OSM   H17F15244   5.360   4.337   8.237  0.6730  0.0504 -1.3752
  139OSM   H17G15245   5.330   4.160   8.256 -1.3715  0.9916  2.3860
  139OSM   C18F15246   5.161   4.267   8.317  0.1600  0.4342 -0.5684
  139OSM   H18F15247   5.196   4.294   8.419  0.0742 -0.0320 -0.4108
  139OSM   H18G15248   5.113   4.167   8.325  0.1777  0.4965  0.4469
  139OSM   H18H15249   5.078   4.330   8.277  2.0185  2.0071 -2.1387
  140OSM      N15250   3.995   6.043   6.082 -0.5775 -0.0978  1.0646
  140OSM    C1515251   3.938   6.062   5.942 -0.1418 -0.3571  0.4478
  140OSM   H15A15252   3.877   5.979   5.912 -1.5241  0.6110  0.4823
  140OSM   H15B15253   4.015   6.056   5.867  0.0258  0.5939  0.5234
  140OSM   H15C15254   3.887   6.157   5.931  1.0605  0.2243 -0.3224
  140OSM    C1415255   4.114   6.137   6.107  1.1784  0.2957 -0.0835
  140OSM   H14A15256   4.185   6.126   6.026  0.2533  1.7559 -1.1528
  140OSM   H14B15257   4.147   6.123   6.209 -2.8883  1.2673  1.5531
  140OSM   H14C15258   4.084   6.239   6.085 -1.2232 -0.7442 -2.1263
  140OSM    C1315259   3.894   6.100   6.178 -0.6053  0.2349 -0.5673
  140OSM   H13A15260   3.943   6.097   6.274  1.2887  1.6092 -1.4087
  140OSM   H13B15261   3.805   6.040   6.183 -0.2245 -0.3397 -0.6210
  140OSM   H13C15262   3.889   6.204   6.148  0.1478  0.0396 -1.4106
  140OSM    C1215263   4.027   5.901   6.107 -0.2279  0.0310  0.2393
  140OSM   H12A15264   4.104   5.863   6.042 -2.3842 -2.4148 -1.0650
  140OSM   H12B15265   3.941   5.840   6.083 -1.4004  2.2803 -1.7676
  140OSM    C1115266   4.078   5.871   6.250  0.1234 -0.3904  0.3251
  140OSM   H11A15267   4.072   5.761   6.257 -0.7136 -0.5309 -1.7650
  140OSM   H11B15268   3.997   5.908   6.316 -0.3652 -0.0497 -0.4569
  140OSM      P15269   4.331   5.864   6.221  0.0807 -0.0358  0.1960
  140OSM    O1315270   4.294   5.781   6.102 -0.9388 -0.1968 -0.7211
  140OSM    O1415271   4.432   5.976   6.194  0.5297  0.4507  0.0865
  140OSM    O1115272   4.394   5.767   6.328  0.6268 -0.4192 -0.1069
  140OSM    O1215273   4.204   5.929   6.280 -0.5880 -0.0038  0.5963
  140OSM    C1S15274   4.426   5.826   6.455 -0.2009  0.6347 -0.2273
  140OSM    H1S15275   4.397   5.933   6.466 -3.2412 -0.1411  0.1666
  140OSM    H1T15276   4.534   5.821   6.482 -0.5450  0.4836  1.1787
  140OSM     NF15277   4.364   5.818   6.699  0.6595  0.6649  0.5904
  140OSM    HNF15278   4.411   5.764   6.769  0.0508 -0.8134 -0.0980
  140OSM    C2S15279   4.349   5.753   6.571 -0.2634 -0.3076 -0.0913
  140OSM    H2S15280   4.242   5.761   6.540  0.0946  0.8958 -1.0969
  140OSM    C3S15281   4.394   5.604   6.572  0.2229  0.1864  0.3450
  140OSM    H3S15282   4.504   5.596   6.569  0.0556 -3.0705  0.0273
  140OSM     O315283   4.352   5.531   6.454 -0.0584 -0.3494 -0.6061
  140OSM    HO315284   4.344   5.607   6.395 -3.1758 -1.1144 -1.3506
  140OSM    C4S15285   4.347   5.534   6.700  0.3268 -0.2377 -0.2567
  140OSM    H4S15286   4.408   5.551   6.791 -1.6297  0.8368  0.9300
  140OSM    C5S15287   4.238   5.457   6.725  0.0558  0.6095  0.1106
  140OSM    H5S15288   4.166   5.432   6.646 -2.0821 -0.6896  2.3449
  140OSM    C6S15289   4.208   5.388   6.857 -0.1616 -0.1687 -0.1393
  140OSM    H6S15290   4.245   5.283   6.850 -0.3361 -0.2910  0.6394
  140OSM    H6T15291   4.097   5.387   6.870  0.1081 -0.7677  2.9223
  140OSM    C7S15292   4.259   5.460   6.981 -1.0505 -0.3941  0.2232
  140OSM    H7S15293   4.220   5.564   6.987 -3.0450 -0.8353 -2.6343
  140OSM    H7T15294   4.369   5.471   6.986 -1.0850  1.6672 -1.8712
  140OSM    C8S15295   4.225   5.378   7.107  0.7288  0.0979  0.2670
  140OSM    H8S15296   4.251   5.271   7.091  0.1812  0.0328 -0.2266
  140OSM    H8T15297   4.114   5.374   7.105  0.7511 -1.6228  0.8590
  140OSM    C9S15298   4.290   5.429   7.234 -0.4357  0.5213  0.0830
  140OSM    H9S15299   4.256   5.527   7.272 -1.0885 -0.6216  2.6794
  140OSM    H9T15300   4.396   5.440   7.202 -0.4938 -0.5318 -0.5231
  140OSM   C10S15301   4.286   5.318   7.344 -0.1135 -0.9359  0.5348
  140OSM   H10S15302   4.320   5.224   7.296 -1.1646  0.1094 -2.5118
  140OSM   H10T15303   4.185   5.292   7.380 -0.1722  1.1482  2.0443
  140OSM   C11S15304   4.371   5.356   7.462 -0.5054 -1.2133 -0.1157
  140OSM   H11S15305   4.341   5.450   7.512  0.2376 -1.8664  1.6548
  140OSM   H11T15306   4.478   5.369   7.432 -0.0300 -4.1124 -0.0285
  140OSM   C12S15307   4.356   5.242   7.570 -0.6864 -0.1988 -0.4342
  140OSM   H12S15308   4.396   5.146   7.532  0.2708 -0.0924  0.2532
  140OSM   H12T15309   4.248   5.219   7.576 -0.7792 -0.0130 -1.2119
  140OSM   C13S15310   4.410   5.272   7.703 -0.5985 -0.2800 -0.1451
  140OSM   H13S15311   4.520   5.282   7.698 -0.3654 -2.8230 -1.8735
  140OSM   H13T15312   4.384   5.183   7.765  2.0321  0.3849  2.0970
  140OSM   C14S15313   4.360   5.391   7.792  0.2287  0.5233 -0.0377
  140OSM   H14S15314   4.250   5.385   7.777  0.0482  1.2860  0.9439
  140OSM   H14T15315   4.396   5.482   7.739 -0.8782  0.7021 -0.5320
  140OSM   C15S15316   4.421   5.371   7.931 -0.4505  0.4099  0.3526
  140OSM   H15S15317   4.469   5.467   7.960 -0.3543  0.3857  0.2720
  140OSM   H15T15318   4.508   5.303   7.917 -1.0044  0.1097 -2.0249
  140OSM   C16S15319   4.330   5.318   8.039 -0.1153 -0.2154  0.6268
  140OSM   H16S15320   4.308   5.212   8.016  2.5796 -0.5511 -0.8525
  140OSM   H16T15321   4.236   5.372   8.013 -2.2631 -2.9726  2.1881
  140OSM   C17S15322   4.377   5.340   8.182 -0.1795  0.5658 -0.4691
  140OSM   H17S15323   4.393   5.446   8.212 -0.1902 -0.1378  2.2546
  140OSM   H17T15324   4.475   5.288   8.187 -0.4353  0.0273 -0.8927
  140OSM   C18S15325   4.288   5.261   8.278  0.0392 -0.4586  1.1863
  140OSM   H18S15326   4.302   5.151   8.271  0.2264 -0.3561 -1.0242
  140OSM   H18T15327   4.184   5.289   8.251  1.2455  3.0350 -0.4635
  140OSM   H18U15328   4.313   5.303   8.377  1.1759 -0.7758  1.0469
  140OSM    C1F15329   4.321   5.941   6.725  0.3786  0.0152 -0.2944
  140OSM     OF15330   4.246   6.000   6.646  0.7132  0.1669 -0.3405
  140OSM    C2F15331   4.377   6.002   6.846 -0.3991  0.1519 -0.8609
  140OSM    H2F15332   4.460   6.066   6.811  0.9944 -1.7389 -1.1723
  140OSM    H2G15333   4.410   5.924   6.919  1.2730  0.7757 -0.9052
  140OSM    C3F15334   4.269   6.099   6.904 -0.5706  0.3563  0.4326
  140OSM    H3F15335   4.170   6.052   6.921 -1.4399  1.8022 -0.3898
  140OSM    H3G15336   4.245   6.176   6.828 -1.8194 -0.4576 -0.0276
  140OSM    C4F15337   4.314   6.165   7.040 -0.1343  0.0288  0.0897
  140OSM    H4F15338   4.230   6.229   7.076  1.2783  2.9703 -1.5107
  140OSM    H4G15339   4.406   6.226   7.027  0.0345 -0.1438  0.4603
  140OSM    C5F15340   4.348   6.065   7.149  0.8160  0.1895 -0.2558
  140OSM    H5F15341   4.434   6.003   7.118  0.9355  0.5076 -0.5624
  140OSM    H5G15342   4.269   5.989   7.164  0.5542  0.1993 -1.4781
  140OSM    C6F15343   4.380   6.124   7.283  0.1659 -0.1034 -0.8541
  140OSM    H6F15344   4.297   6.193   7.306  0.2909  0.9465 -3.1856
  140OSM    H6G15345   4.470   6.189   7.279 -0.8684  1.4956  0.7708
  140OSM    C7F15346   4.386   6.024   7.396  0.1239 -0.4759 -0.6366
  140OSM    H7F15347   4.471   5.955   7.381 -1.5397 -2.8887  0.3318
  140OSM    H7G15348   4.293   5.964   7.387  0.7171 -1.3444 -1.0604
  140OSM    C8F15349   4.395   6.086   7.539 -0.5413  0.2929 -0.1967
  140OSM    H8F15350   4.318   6.160   7.567  0.4721  1.4110 -0.2897
  140OSM    H8G15351   4.494   6.136   7.533 -1.6026  2.6694  0.8307
  140OSM    C9F15352   4.412   5.981   7.643  0.0696 -0.1331 -0.6219
  140OSM    H9F15353   4.406   5.877   7.607 -0.4422 -1.2854  2.4380
  140OSM   C10F15354   4.428   6.018   7.776  0.6945  0.4936 -0.1316
  140OSM   H10F15355   4.429   5.942   7.856  0.9473 -0.0819 -0.6787
  140OSM   C11F15356   4.423   6.165   7.824  0.6172 -0.2953 -0.2041
  140OSM   H11F15357   4.439   6.222   7.730 -2.1405 -0.8950 -1.1185
  140OSM   H11G15358   4.506   6.179   7.897  1.1791 -2.2840 -0.4033
  140OSM   C12F15359   4.294   6.225   7.880 -0.2489 -0.6490 -0.0009
  140OSM   H12F15360   4.224   6.221   7.794 -0.0425  1.2076 -0.3052
  140OSM   H12G15361   4.301   6.336   7.890  0.5654 -0.6908 -0.0375
  140OSM   C13F15362   4.247   6.161   8.006  1.2996  0.7942 -0.3066
  140OSM   H13F15363   4.234   6.059   7.962 -0.1728  1.2953 -1.1209
  140OSM   H13G15364   4.146   6.194   8.038  1.7883  1.2133  0.8645
  140OSM   C14F15365   4.356   6.161   8.117 -0.0664  0.3558  0.8860
  140OSM   H14F15366   4.394   6.265   8.125  2.8431 -0.5024 -0.4769
  140OSM   H14G15367   4.449   6.103   8.097  0.5592  2.2115 -2.3205
  140OSM   C15F15368   4.295   6.119   8.252  0.7697 -0.1107 -0.0588
  140OSM   H15F15369   4.247   6.022   8.228  2.7871 -1.0198 -0.6430
  140OSM   H15G15370   4.205   6.177   8.280 -1.0254 -3.0169  0.5382
  140OSM   C16F15371   4.391   6.108   8.373 -0.1197  0.2135  0.2265
  140OSM   H16F15372   4.461   6.032   8.332 -0.6888  0.7699 -1.8927
  140OSM   H16G15373   4.338   6.064   8.460  1.8528  0.2804  1.5465
  140OSM   C17F15374   4.451   6.237   8.415  0.3489 -0.2900  0.1966
  140OSM   H17F15375   4.500   6.288   8.329  0.5629 -0.0681  0.4454
  140OSM   H17G15376   4.531   6.227   8.492 -0.2583 -1.3659  0.7139
  140OSM   C18F15377   4.350   6.342   8.478  0.0321  0.3803  0.8238
  140OSM   H18F15378   4.385   6.448   8.475 -0.9712  0.7056 -1.2253
  140OSM   H18G15379   4.330   6.313   8.583 -0.3181  1.0055  0.9375
  140OSM   H18H15380   4.254   6.344   8.421 -0.2285 -2.0654  1.1024
  141OSM      N15381   6.381   1.404   6.125  0.3295  0.0722  0.1958
  141OSM    C1515382   6.445   1.477   6.239 -0.5734 -0.2383  0.3846
  141OSM   H15A15383   6.373   1.531   6.298 -1.0223  0.1095 -0.4649
  141OSM   H15B15384   6.513   1.550   6.196 -0.1193 -0.7106  0.2852
  141OSM   H15C15385   6.503   1.417   6.307 -1.3326  2.3177  3.5480
  141OSM    C1415386   6.293   1.492   6.043 -0.9193 -0.1095  0.1232
  141OSM   H14A15387   6.233   1.433   5.975 -1.6758 -1.3471  1.7942
  141OSM   H14B15388   6.351   1.569   5.994 -0.1255 -0.2387  0.8365
  141OSM   H14C15389   6.218   1.538   6.107 -1.5778 -0.3494 -0.4695
  141OSM    C1315390   6.490   1.356   6.033 -0.2362  0.2688 -0.2678
  141OSM   H13A15391   6.549   1.276   6.075 -0.8317 -0.1833 -0.2813
  141OSM   H13B15392   6.561   1.434   6.010 -0.2407  0.0324 -1.1111
  141OSM   H13C15393   6.443   1.323   5.942  0.5784 -0.7661 -0.3298
  141OSM    C1215394   6.302   1.293   6.181  0.0730  0.4701  0.2918
  141OSM   H12A15395   6.368   1.217   6.222 -0.4031  1.0573  2.2383
  141OSM   H12B15396   6.249   1.243   6.101  2.7389  0.7956 -1.8456
  141OSM    C1115397   6.186   1.331   6.292 -0.0542  0.1166  1.0968
  141OSM   H11A15398   6.236   1.373   6.382 -1.1886  0.6398  1.4987
  141OSM   H11B15399   6.133   1.235   6.311 -1.3380 -0.2599 -3.1391
  141OSM      P15400   5.948   1.391   6.195 -0.2920  0.4014 -0.1759
  141OSM    O1315401   5.870   1.509   6.139 -0.2911 -0.5855  0.5248
  141OSM    O1415402   5.958   1.265   6.114  0.1703  0.0147 -0.5863
  141OSM    O1115403   5.900   1.340   6.342  0.5664 -0.2740 -0.1188
  141OSM    O1215404   6.100   1.425   6.237  0.3784  0.4278 -0.1276
  141OSM    C1S15405   5.891   1.427   6.459 -0.1297 -0.1519  0.0582
  141OSM    H1S15406   5.820   1.509   6.437 -2.2156 -1.7611  0.4798
  141OSM    H1T15407   5.990   1.471   6.486 -0.7819  1.8742 -0.6442
  141OSM     NF15408   5.847   1.435   6.700  0.5726 -0.8445  0.5367
  141OSM    HNF15409   5.931   1.443   6.754 -0.3224 -0.7993  1.9820
  141OSM    C2S15410   5.852   1.343   6.585 -0.3014  0.1324 -0.0841
  141OSM    H2S15411   5.755   1.295   6.561 -0.2970  0.0995 -0.0379
  141OSM    C3S15412   5.938   1.216   6.612 -0.1426 -0.6495 -0.2004
  141OSM    H3S15413   6.044   1.243   6.627 -0.1506 -0.7258  0.0058
  141OSM     O315414   5.954   1.136   6.499  0.1920  0.4870 -0.2387
  141OSM    HO315415   5.938   1.197   6.427 -1.0554 -1.5374 -1.7705
  141OSM    C4S15416   5.886   1.139   6.729 -0.0396  0.3022  0.5022
  141OSM    H4S15417   5.777   1.123   6.725 -0.1324  0.8367 -3.7670
  141OSM    C5S15418   5.962   1.112   6.835  0.0739  0.1869 -0.2127
  141OSM    H5S15419   6.069   1.137   6.830  0.8260 -2.7987 -1.3092
  141OSM    C6S15420   5.910   1.049   6.962 -0.2238 -0.0564  0.2078
  141OSM    H6S15421   5.974   0.964   6.993 -1.5873 -0.9005  0.8032
  141OSM    H6T15422   5.808   1.005   6.948  0.2569 -0.5028 -2.6474
  141OSM    C7S15423   5.907   1.154   7.072 -0.3307 -0.0158 -0.4724
  141OSM    H7S15424   5.816   1.216   7.058 -1.3304 -0.4964  2.9419
  141OSM    H7T15425   5.997   1.218   7.080  0.2946 -0.9807  0.7791
  141OSM    C8S15426   5.882   1.081   7.206 -0.9664 -1.1572  0.1302
  141OSM    H8S15427   5.930   0.981   7.210 -0.6452 -1.0064  0.0071
  141OSM    H8T15428   5.771   1.068   7.210 -1.1950  0.0809 -1.5386
  141OSM    C9S15429   5.930   1.159   7.329 -0.4872 -0.1976 -0.5372
  141OSM    H9S15430   5.878   1.254   7.354  1.1386  0.4123  0.7536
  141OSM    H9T15431   6.034   1.192   7.309 -0.2018 -1.0229 -0.4525
  141OSM   C10S15432   5.937   1.088   7.470 -0.2016  0.1830 -0.1582
  141OSM   H10S15433   6.013   1.007   7.476  0.5850  0.9364  0.1751
  141OSM   H10T15434   5.834   1.045   7.473  0.3428 -1.2179 -1.0092
  141OSM   C11S15435   5.974   1.177   7.594 -0.2695 -0.3914 -0.1563
  141OSM   H11S15436   5.883   1.232   7.627  1.0209  2.2474 -0.7148
  141OSM   H11T15437   6.047   1.250   7.553 -1.7708  0.3820 -1.6179
  141OSM   C12S15438   6.027   1.108   7.714 -0.1184  0.3359 -0.0914
  141OSM   H12S15439   6.115   1.044   7.693 -0.8605 -0.2162 -1.6448
  141OSM   H12T15440   5.946   1.049   7.762  2.5568 -2.6575  1.0876
  141OSM   C13S15441   6.077   1.205   7.825  1.2962 -0.7489 -0.1596
  141OSM   H13S15442   6.147   1.277   7.779  0.6059 -1.1825 -1.9639
  141OSM   H13T15443   6.141   1.156   7.902  3.3055  1.0655 -0.5660
  141OSM   C14S15444   5.962   1.281   7.895  0.0742 -0.0719 -0.0055
  141OSM   H14S15445   5.883   1.208   7.921  0.2613 -0.4773 -0.5441
  141OSM   H14T15446   5.911   1.358   7.832  0.9140  0.8983  0.4733
  141OSM   C15S15447   6.001   1.346   8.022  0.0424 -0.3255 -0.1022
  141OSM   H15S15448   6.091   1.406   7.995  1.9433 -3.0369 -0.1887
  141OSM   H15T15449   6.028   1.264   8.092  1.8108 -0.5733 -1.0271
  141OSM   C16S15450   5.881   1.423   8.094 -0.1203 -0.1311  0.6300
  141OSM   H16S15451   5.790   1.409   8.032  0.3817 -2.9113  0.4163
  141OSM   H16T15452   5.910   1.530   8.086  2.8729 -0.9057 -0.4722
  141OSM   C17S15453   5.851   1.379   8.239  0.7133 -0.8752  0.8697
  141OSM   H17S15454   5.779   1.449   8.288 -0.3546 -0.7377 -0.8274
  141OSM   H17T15455   5.943   1.372   8.300  0.5127 -0.9668  1.1637
  141OSM   C18S15456   5.784   1.241   8.247 -0.3828  0.5314  0.2668
  141OSM   H18S15457   5.694   1.239   8.182  0.1129 -1.0877 -0.4372
  141OSM   H18T15458   5.758   1.222   8.353  2.7969 -1.7701  0.7906
  141OSM   H18U15459   5.862   1.164   8.231  0.2955  1.3153 -0.3127
  141OSM    C1F15460   5.749   1.528   6.716 -0.2844 -0.5553 -0.4480
  141OSM     OF15461   5.654   1.536   6.646 -0.1306  0.3108  0.1511
  141OSM    C2F15462   5.787   1.638   6.810 -0.4773  0.3668 -0.0052
  141OSM    H2F15463   5.835   1.722   6.755 -1.6801  0.0664 -1.5705
  141OSM    H2G15464   5.854   1.604   6.892  1.3482  1.9998 -0.7151
  141OSM    C3F15465   5.657   1.693   6.881  0.3215 -0.2405  1.0261
  141OSM    H3F15466   5.600   1.728   6.792 -0.2377 -1.0340  1.0625
  141OSM    H3G15467   5.683   1.783   6.941 -0.0054 -0.7401  1.9280
  141OSM    C4F15468   5.579   1.595   6.970 -0.2072 -0.0012  0.3780
  141OSM    H4F15469   5.537   1.520   6.899  0.4848 -0.1299  0.0952
  141OSM    H4G15470   5.488   1.648   7.005 -0.4649  1.5368 -2.3387
  141OSM    C5F15471   5.661   1.538   7.085  0.1379 -0.6496  0.3733
  141OSM    H5F15472   5.745   1.475   7.049  1.5324 -0.0293  2.3681
  141OSM    H5G15473   5.591   1.481   7.150 -2.4474 -0.2273 -1.8825
  141OSM    C6F15474   5.731   1.630   7.188 -0.7099 -0.5320 -0.0744
  141OSM    H6F15475   5.655   1.699   7.231  1.0592  1.3302  0.2010
  141OSM    H6G15476   5.790   1.701   7.126 -1.5397 -0.9150 -1.3301
  141OSM    C7F15477   5.804   1.547   7.292 -0.2893  0.1051  0.1765
  141OSM    H7F15478   5.879   1.488   7.235 -2.0804 -0.8385 -1.3171
  141OSM    H7G15479   5.736   1.471   7.338  0.2716 -0.8215 -0.4835
  141OSM    C8F15480   5.887   1.636   7.389  0.5662  0.6592  0.3131
  141OSM    H8F15481   5.808   1.675   7.457  1.1119 -0.0952  1.3999
  141OSM    H8G15482   5.929   1.718   7.327 -1.2493  0.6127 -1.0828
  141OSM    C9F15483   5.987   1.556   7.465  0.6548  0.4365 -0.6570
  141OSM    H9F15484   6.011   1.459   7.419  0.1293 -1.0016  1.9160
  141OSM   C10F15485   6.034   1.576   7.587  0.3875 -0.0668 -0.9607
  141OSM   H10F15486   6.118   1.517   7.627  0.9540  0.9024 -0.6993
  141OSM   C11F15487   6.001   1.697   7.676  0.2692 -0.6362 -0.0721
  141OSM   H11F15488   5.920   1.761   7.635  1.1675  2.3858  2.4795
  141OSM   H11G15489   6.092   1.760   7.686  0.3912 -0.9846  1.1988
  141OSM   C12F15490   5.942   1.653   7.811 -0.0008  0.3696 -0.8130
  141OSM   H12F15491   6.018   1.607   7.877  0.3061 -0.7368 -1.8941
  141OSM   H12G15492   5.866   1.575   7.788 -1.2916  0.4580  2.6086
  141OSM   C13F15493   5.864   1.768   7.888  0.1651  0.6604  0.1771
  141OSM   H13F15494   5.808   1.731   7.976 -0.0976  0.3503 -0.1173
  141OSM   H13G15495   5.777   1.800   7.827 -0.1458  2.3383  1.4366
  141OSM   C14F15496   5.936   1.901   7.910  0.2625  0.8476  0.5898
  141OSM   H14F15497   5.873   1.949   7.988 -0.5492 -0.6035  0.8636
  141OSM   H14G15498   5.922   1.967   7.822  2.8942  0.7144 -0.0317
  141OSM   C15F15499   6.073   1.886   7.970 -0.0388  0.0603  0.1811
  141OSM   H15F15500   6.139   1.850   7.888  0.7239  1.9769 -0.0979
  141OSM   H15G15501   6.081   1.810   8.051 -1.1576 -0.0336  0.2256
  141OSM   C16F15502   6.139   2.017   8.026  0.2245 -0.4449 -0.1284
  141OSM   H16F15503   6.073   2.057   8.106  0.6602 -0.4104  0.2128
  141OSM   H16G15504   6.128   2.097   7.949 -1.4360  1.3075  1.8055
  141OSM   C17F15505   6.287   2.001   8.078 -0.3297  0.8857 -0.0501
  141OSM   H17F15506   6.358   1.988   7.993  0.0333 -1.0943  0.4924
  141OSM   H17G15507   6.304   1.908   8.137  0.9262  2.2576  1.8797
  141OSM   C18F15508   6.326   2.136   8.146  0.5658 -0.1909 -0.1829
  141OSM   H18F15509   6.435   2.125   8.166  1.2092  1.3168 -2.5532
  141OSM   H18G15510   6.256   2.151   8.231  0.7665 -1.0401  0.1529
  141OSM   H18H15511   6.320   2.213   8.067  2.1119  0.9081  0.7169
  142OSM      N15512   4.884   2.638   6.056 -0.0481 -0.0615  0.1812
  142OSM    C1515513   4.807   2.513   6.082  0.3413  0.2985 -0.3886
  142OSM   H15A15514   4.788   2.444   6.000  1.8889  1.6780 -1.9834
  142OSM   H15B15515   4.714   2.538   6.130  1.9050  0.8725  2.5631
  142OSM   H15C15516   4.854   2.451   6.157 -1.0409  0.4447  0.6424
  142OSM    C1415517   5.024   2.607   6.001 -0.6409 -0.3955 -0.5569
  142OSM   H14A15518   5.030   2.545   5.913 -0.7696 -2.3493  0.7325
  142OSM   H14B15519   5.078   2.555   6.079  1.2898 -0.1969 -1.7056
  142OSM   H14C15520   5.074   2.699   5.975 -0.0503 -0.1665  1.2641
  142OSM    C1315521   4.811   2.709   5.947  0.2249 -0.2081 -0.3865
  142OSM   H13A15522   4.712   2.731   5.985 -0.5835 -2.9418 -0.6791
  142OSM   H13B15523   4.789   2.639   5.868 -1.0659 -0.6390  0.3222
  142OSM   H13C15524   4.872   2.793   5.917 -0.1375  0.0819 -0.3189
  142OSM    C1215525   4.878   2.717   6.189  0.2932  0.4714 -0.0187
  142OSM   H12A15526   4.921   2.654   6.265 -1.9376  0.2720  1.1458
  142OSM   H12B15527   4.773   2.730   6.210  0.2825  0.2151  0.0874
  142OSM    C1115528   4.950   2.858   6.190  0.0153 -0.0095  0.0982
  142OSM   H11A15529   4.917   2.918   6.104 -0.5168  2.3100  1.8275
  142OSM   H11B15530   5.060   2.841   6.188  0.0035 -0.0232 -1.0304
  142OSM      P15531   4.789   2.993   6.331 -0.6391 -0.1328 -0.3385
  142OSM    O1315532   4.820   3.137   6.368  0.3319  0.0810  0.4886
  142OSM    O1415533   4.696   2.961   6.223  0.4933  0.4142  0.3733
  142OSM    O1115534   4.730   2.922   6.458 -0.0346  0.5042 -0.4992
  142OSM    O1215535   4.933   2.924   6.311  0.0546  0.1227 -0.4250
  142OSM    C1S15536   4.781   2.943   6.592 -0.5471  0.2156 -0.1223
  142OSM    H1S15537   4.875   3.002   6.597 -0.4151 -0.0842  1.9562
  142OSM    H1T15538   4.791   2.844   6.643  0.3525  0.7089  0.6952
  142OSM     NF15539   4.732   3.025   6.819  0.6144 -0.6830 -0.0759
  142OSM    HNF15540   4.683   2.967   6.884  1.2165  0.8307  1.8105
  142OSM    C2S15541   4.683   3.031   6.684 -0.4230  0.0326 -0.2198
  142OSM    H2S15542   4.694   3.135   6.647 -0.6312 -0.2668 -1.1551
  142OSM    C3S15543   4.531   2.988   6.667 -0.2855 -0.3061 -0.0928
  142OSM    H3S15544   4.506   2.892   6.716  0.3977 -1.5465 -2.0337
  142OSM     O315545   4.479   2.971   6.536 -0.1204 -0.1938  0.1424
  142OSM    HO315546   4.555   2.962   6.478 -0.6921  1.4079 -0.9131
  142OSM    C4S15547   4.434   3.087   6.742 -1.3866 -0.2664  0.5796
  142OSM    H4S15548   4.447   3.076   6.851  0.5954 -1.9502  0.2442
  142OSM    C5S15549   4.353   3.186   6.690  0.9902 -0.0881  0.7700
  142OSM    H5S15550   4.360   3.195   6.581 -1.3314 -0.9730  0.4880
  142OSM    C6S15551   4.256   3.275   6.755  0.4151 -0.2204  0.3321
  142OSM    H6S15552   4.158   3.280   6.703  0.9844  0.5809 -0.6819
  142OSM    H6T15553   4.282   3.382   6.767 -1.9024  0.2231  2.2091
  142OSM    C7S15554   4.234   3.227   6.903  0.1746  0.2519 -0.0887
  142OSM    H7S15555   4.326   3.201   6.959 -0.5545 -2.9702 -0.1352
  142OSM    H7T15556   4.175   3.132   6.904  1.4397 -0.5615  1.3430
  142OSM    C8S15557   4.155   3.332   6.967  0.1518 -0.1947  0.4815
  142OSM    H8S15558   4.050   3.309   6.936  0.2182  0.9477 -0.6871
  142OSM    H8T15559   4.191   3.429   6.927  0.9575 -1.8701 -3.1956
  142OSM    C9S15560   4.170   3.329   7.125 -0.0097 -0.2833  0.1479
  142OSM    H9S15561   4.171   3.222   7.154  0.1952 -1.0838 -2.5240
  142OSM    H9T15562   4.080   3.384   7.160 -0.3845 -0.4991 -0.4595
  142OSM   C10S15563   4.293   3.401   7.183  0.4462 -0.2115  0.1742
  142OSM   H10S15564   4.333   3.481   7.118 -2.6731  0.2973 -1.3051
  142OSM   H10T15565   4.361   3.317   7.211 -1.8241 -1.9309  0.8631
  142OSM   C11S15566   4.253   3.476   7.313  0.0359  0.0744  0.1742
  142OSM   H11S15567   4.171   3.546   7.287  0.3981 -0.1986 -1.8606
  142OSM   H11T15568   4.342   3.535   7.344 -0.1347 -0.6350  2.1156
  142OSM   C12S15569   4.216   3.377   7.424 -0.6295  0.8021 -0.1139
  142OSM   H12S15570   4.284   3.290   7.415 -1.1988  0.2295  0.8409
  142OSM   H12T15571   4.119   3.332   7.396  1.3495 -1.4122 -4.2031
  142OSM   C13S15572   4.204   3.446   7.557  0.4365  0.0013  0.2876
  142OSM   H13S15573   4.152   3.543   7.547 -2.2624 -1.1251  2.4658
  142OSM   H13T15574   4.303   3.473   7.600  2.0236 -0.7240 -2.6076
  142OSM   C14S15575   4.132   3.363   7.664  0.3301 -0.4124  0.1026
  142OSM   H14S15576   4.201   3.283   7.699  2.3202  0.9136 -0.5783
  142OSM   H14T15577   4.037   3.315   7.634  0.6131 -1.0554  0.2270
  142OSM   C15S15578   4.090   3.442   7.786 -0.3180 -0.1845 -0.1534
  142OSM   H15S15579   4.029   3.532   7.764 -0.0971  0.1769  0.6755
  142OSM   H15T15580   4.182   3.485   7.833 -0.5984  2.0241 -1.5038
  142OSM   C16S15581   4.031   3.365   7.907 -0.5257  0.1741 -0.0217
  142OSM   H16S15582   4.098   3.288   7.950  1.3783  2.4170  1.2403
  142OSM   H16T15583   3.943   3.306   7.873 -0.2449 -0.6520  0.6768
  142OSM   C17S15584   3.991   3.446   8.029  0.7886 -0.1027 -0.0819
  142OSM   H17S15585   3.932   3.379   8.095  1.5007 -1.3690 -0.7022
  142OSM   H17T15586   3.939   3.540   8.002 -0.3064 -0.3468  1.0727
  142OSM   C18S15587   4.111   3.487   8.120  0.0967 -0.4057  0.0800
  142OSM   H18S15588   4.084   3.581   8.172  2.4545  1.1164 -1.2763
  142OSM   H18T15589   4.202   3.516   8.063 -0.4435  2.0380  0.3501
  142OSM   H18U15590   4.123   3.413   8.202  0.0888  0.2293  0.6602
  142OSM    C1F15591   4.844   3.086   6.853  0.1022  0.0682  0.0533
  142OSM     OF15592   4.905   3.166   6.778  0.1142  0.2468 -0.7330
  142OSM    C2F15593   4.891   3.066   6.997  0.6942  0.8716  0.3270
  142OSM    H2F15594   4.904   2.958   7.021  1.2458  1.2523  1.8479
  142OSM    H2G15595   4.813   3.106   7.065 -1.8127  0.6736 -2.2492
  142OSM    C3F15596   5.028   3.121   7.035  0.7561  0.2700  0.2093
  142OSM    H3F15597   5.007   3.228   7.053 -4.6828 -0.6143  0.7809
  142OSM    H3G15598   5.101   3.091   6.957 -0.7229 -3.0561 -0.0672
  142OSM    C4F15599   5.068   3.058   7.172  0.1954 -0.1869  0.0849
  142OSM    H4F15600   5.105   2.959   7.138  1.3951 -0.0606  0.9897
  142OSM    H4G15601   4.977   3.053   7.236  0.0977 -2.6653 -0.1613
  142OSM    C5F15602   5.183   3.130   7.243 -0.2601  0.5991 -0.5717
  142OSM    H5F15603   5.173   3.241   7.240 -1.4495  0.6011 -5.4208
  142OSM    H5G15604   5.275   3.112   7.183 -0.3762  0.5143 -0.7247
  142OSM    C6F15605   5.194   3.075   7.393  0.1048 -0.0598  0.3364
  142OSM    H6F15606   5.265   3.150   7.432 -1.2117  1.9122 -0.8676
  142OSM    H6G15607   5.220   2.967   7.392  0.1416 -0.0489  0.0539
  142OSM    C7F15608   5.076   3.089   7.487 -0.4302  0.6542  0.2177
  142OSM    H7F15609   4.993   3.016   7.476 -0.2760 -0.5628  4.9960
  142OSM    H7G15610   5.027   3.187   7.470 -0.2414  0.5039 -1.3596
  142OSM    C8F15611   5.105   3.061   7.639  0.9604  0.8867  0.2984
  142OSM    H8F15612   5.170   2.972   7.653 -0.9966 -0.9414 -1.3741
  142OSM    H8G15613   5.011   3.050   7.698  0.4629 -0.2478 -0.6577
  142OSM    C9F15614   5.168   3.181   7.702  0.2585 -0.1009  0.0718
  142OSM    H9F15615   5.237   3.234   7.634  0.0315  0.9429  0.6408
  142OSM   C10F15616   5.149   3.229   7.829  0.4211  0.4543 -0.7953
  142OSM   H10F15617   5.218   3.305   7.869  2.0794 -2.6629  3.0797
  142OSM   C11F15618   5.056   3.171   7.934  0.4827  0.8783  0.0387
  142OSM   H11F15619   5.114   3.114   8.010  2.3350  3.1144  0.4108
  142OSM   H11G15620   4.980   3.102   7.893  0.0281  0.4028  1.5987
  142OSM   C12F15621   4.977   3.278   8.015  0.4066  0.0877  1.0363
  142OSM   H12F15622   4.898   3.316   7.946  2.3280 -0.2278 -1.4740
  142OSM   H12G15623   5.053   3.351   8.049  0.0377 -0.6544  3.6639
  142OSM   C13F15624   4.915   3.218   8.138 -0.1865  0.4975  0.2725
  142OSM   H13F15625   4.986   3.177   8.213  0.2238  2.0525  0.7692
  142OSM   H13G15626   4.850   3.133   8.109 -3.1129  1.5754  3.0352
  142OSM   C14F15627   4.826   3.324   8.201  0.5782 -0.5964  0.0116
  142OSM   H14F15628   4.747   3.345   8.126 -0.2661 -1.4954  0.6189
  142OSM   H14G15629   4.882   3.417   8.223  2.5640 -1.3627 -1.5009
  142OSM   C15F15630   4.765   3.270   8.329  0.1325 -0.1685  0.3642
  142OSM   H15F15631   4.835   3.217   8.398 -0.6148  0.7762  1.8938
  142OSM   H15G15632   4.709   3.184   8.288  1.8661 -0.9628 -0.4678
  142OSM   C16F15633   4.687   3.378   8.409  0.7633 -0.2778 -0.9799
  142OSM   H16F15634   4.609   3.432   8.351  0.6627  1.1455  0.4176
  142OSM   H16G15635   4.760   3.449   8.456 -0.9645  0.0855  1.3150
  142OSM   C17F15636   4.597   3.314   8.531 -0.6416 -0.5721  0.5084
  142OSM   H17F15637   4.526   3.388   8.573 -0.5740 -1.0925  1.5600
  142OSM   H17G15638   4.669   3.296   8.614  0.4569 -0.8842 -0.4802
  142OSM   C18F15639   4.534   3.186   8.486  0.0543  0.3335 -0.4571
  142OSM   H18F15640   4.481   3.138   8.571  0.6073 -1.0426 -0.8534
  142OSM   H18G15641   4.607   3.108   8.454  0.5739  0.6356 -0.0196
  142OSM   H18H15642   4.467   3.201   8.398  0.1782  0.5055 -0.5216
  143OSM      N15643   5.276   3.127   6.235 -0.1711  0.1066 -0.7576
  143OSM    C1515644   5.137   3.123   6.299  0.1350 -0.0781 -0.0697
  143OSM   H15A15645   5.076   3.198   6.252  0.4446  0.1744 -0.0696
  143OSM   H15B15646   5.142   3.141   6.405  0.2956  0.1072 -0.1074
  143OSM   H15C15647   5.083   3.029   6.289 -0.6245  0.0193  2.3954
  143OSM    C1415648   5.273   3.062   6.098  0.5112 -0.3469 -0.3371
  143OSM   H14A15649   5.192   3.107   6.043  0.9527  0.2848 -0.4836
  143OSM   H14B15650   5.255   2.958   6.119 -0.6992  0.3127  2.2664
  143OSM   H14C15651   5.362   3.071   6.037 -0.1384  1.5682 -1.0722
  143OSM    C1315652   5.313   3.268   6.228 -0.0716  0.0211 -0.2688
  143OSM   H13A15653   5.246   3.324   6.164 -1.0154  0.5709  1.1413
  143OSM   H13B15654   5.420   3.269   6.213 -0.3129  1.0507 -2.3416
  143OSM   H13C15655   5.298   3.319   6.321  2.2079  0.2392  0.0312
  143OSM    C1215656   5.380   3.063   6.333  0.0380  0.1665 -0.4228
  143OSM   H12A15657   5.342   2.963   6.347 -2.6229  1.2322  0.6711
  143OSM   H12B15658   5.379   3.111   6.430 -3.2566 -1.0067  0.2548
  143OSM    C1115659   5.532   3.048   6.292 -0.6840 -0.1328 -0.0148
  143OSM   H11A15660   5.528   2.957   6.228 -0.5780  0.9025 -1.5621
  143OSM   H11B15661   5.581   3.027   6.389 -2.6090  0.6958  1.2054
  143OSM      P15662   5.741   3.192   6.252 -0.1904 -0.4154 -0.2376
  143OSM    O1315663   5.815   3.065   6.263  0.0228  0.1090 -0.0764
  143OSM    O1415664   5.803   3.299   6.170  0.0522 -0.4822 -0.5394
  143OSM    O1115665   5.736   3.247   6.402 -0.9091  0.5372  0.1964
  143OSM    O1215666   5.589   3.157   6.212 -0.4706  0.3590 -0.0322
  143OSM    C1S15667   5.621   3.323   6.447 -0.8829  0.2601 -0.0752
  143OSM    H1S15668   5.530   3.286   6.396 -1.2528  0.0972  0.6834
  143OSM    H1T15669   5.633   3.431   6.422 -1.1285  0.7083  1.6355
  143OSM     NF15670   5.472   3.371   6.632 -0.1018  0.2360  0.1177
  143OSM    HNF15671   5.487   3.468   6.649  2.1676 -0.0665  0.2311
  143OSM    C2S15672   5.594   3.304   6.596 -0.0156 -0.7769 -0.0773
  143OSM    H2S15673   5.573   3.198   6.621  0.8017 -1.2140 -1.1803
  143OSM    C3S15674   5.719   3.347   6.678 -0.0819 -0.4770 -0.7314
  143OSM    H3S15675   5.745   3.453   6.660 -1.8855  0.2119  0.4843
  143OSM     O315676   5.835   3.270   6.650 -0.0650 -0.2565  0.5634
  143OSM    HO315677   5.836   3.244   6.558  1.7998  1.2068  0.0871
  143OSM    C4S15678   5.681   3.325   6.818  1.2044  0.5683 -0.7476
  143OSM    H4S15679   5.648   3.225   6.851  2.2040  0.4934  0.0785
  143OSM    C5S15680   5.683   3.413   6.916  0.4869  0.2084 -0.5441
  143OSM    H5S15681   5.735   3.508   6.896  0.9959 -0.5960 -3.4218
  143OSM    C6S15682   5.637   3.389   7.060 -0.8115 -0.0017  0.2419
  143OSM    H6S15683   5.725   3.413   7.124 -0.3379 -0.0363 -0.3852
  143OSM    H6T15684   5.604   3.284   7.075 -0.9572  0.0371  0.1963
  143OSM    C7S15685   5.518   3.483   7.094  0.9209 -0.1934  0.2212
  143OSM    H7S15686   5.440   3.473   7.015 -0.9260  3.2599  1.4021
  143OSM    H7T15687   5.550   3.589   7.093 -0.7960  0.3565 -0.3713
  143OSM    C8S15688   5.461   3.453   7.231  0.8996 -0.4927 -0.4552
  143OSM    H8S15689   5.413   3.352   7.233  0.1372 -0.1308  0.1412
  143OSM    H8T15690   5.381   3.524   7.259  1.0855 -0.2768 -0.4691
  143OSM    C9S15691   5.576   3.473   7.336  0.4483  0.6895  0.0974
  143OSM    H9S15692   5.623   3.572   7.320  2.1667  0.5014  3.1720
  143OSM    H9T15693   5.653   3.395   7.320 -0.0656 -0.0624  1.1601
  143OSM   C10S15694   5.530   3.461   7.477 -0.3797 -0.3390 -0.7963
  143OSM   H10S15695   5.480   3.363   7.490  0.8668 -1.0719 -1.3079
  143OSM   H10T15696   5.461   3.544   7.503 -1.5033 -1.0408 -1.4487
  143OSM   C11S15697   5.648   3.459   7.576 -0.1860 -0.7289 -0.1909
  143OSM   H11S15698   5.708   3.549   7.554  0.4469 -0.8922  0.8021
  143OSM   H11T15699   5.714   3.370   7.566 -0.3564 -0.7673 -1.0398
  143OSM   C12S15700   5.599   3.449   7.724  0.0103 -0.6260  0.0205
  143OSM   H12S15701   5.490   3.469   7.732  0.0999 -0.0019 -0.2024
  143OSM   H12T15702   5.650   3.521   7.792 -0.7306  3.4772 -3.3795
  143OSM   C13S15703   5.633   3.312   7.787 -0.2817  0.6810 -0.0587
  143OSM   H13S15704   5.735   3.330   7.829 -0.3709  2.0435 -0.3700
  143OSM   H13T15705   5.634   3.242   7.701 -1.0197 -0.5745  0.9135
  143OSM   C14S15706   5.532   3.267   7.893  0.7674 -0.0905  0.2693
  143OSM   H14S15707   5.555   3.162   7.919 -2.0894 -0.9663 -0.4331
  143OSM   H14T15708   5.437   3.276   7.836  1.2650  3.0652 -0.2246
  143OSM   C15S15709   5.527   3.355   8.015 -0.3015  0.1601  0.7058
  143OSM   H15S15710   5.513   3.460   7.982 -0.8188  0.3050  1.3745
  143OSM   H15T15711   5.630   3.353   8.058 -0.1533 -0.6050  0.3397
  143OSM   C16S15712   5.433   3.300   8.123 -0.1719  0.2200  0.4615
  143OSM   H16S15713   5.492   3.271   8.213 -0.1707  0.1581  0.4407
  143OSM   H16T15714   5.384   3.211   8.080 -0.6942  0.8202 -0.2125
  143OSM   C17S15715   5.311   3.392   8.154 -0.1142 -1.3291  0.7968
  143OSM   H17S15716   5.248   3.385   8.063 -1.4038 -3.0109  1.7581
  143OSM   H17T15717   5.342   3.498   8.172 -1.0147 -0.7189 -1.0163
  143OSM   C18S15718   5.235   3.334   8.267  0.0389 -0.0627 -1.1091
  143OSM   H18S15719   5.222   3.225   8.247 -3.0854 -0.5812  2.5057
  143OSM   H18T15720   5.130   3.369   8.282  0.4642  0.4455  1.1010
  143OSM   H18U15721   5.289   3.346   8.363 -1.1234 -1.1363 -0.2772
  143OSM    C1F15722   5.344   3.339   6.596 -0.5702  0.2088  0.2227
  143OSM     OF15723   5.318   3.226   6.557  0.5337 -0.2016 -0.4052
  143OSM    C2F15724   5.247   3.446   6.611  0.2943 -0.0628 -0.6527
  143OSM    H2F15725   5.156   3.417   6.554  0.4995  2.9516 -2.7798
  143OSM    H2G15726   5.291   3.540   6.572  0.8406  0.0608  0.2211
  143OSM    C3F15727   5.203   3.490   6.761 -0.2080 -0.3105  0.3014
  143OSM    H3F15728   5.296   3.474   6.819  0.8342 -0.4117 -1.3433
  143OSM    H3G15729   5.118   3.424   6.789 -0.6947  0.3021  0.2788
  143OSM    C4F15730   5.156   3.638   6.785  0.0787  0.0053 -0.1013
  143OSM    H4F15731   5.052   3.655   6.749 -0.7451 -1.9924  1.1183
  143OSM    H4G15732   5.217   3.708   6.724  1.0622 -1.5239 -0.9357
  143OSM    C5F15733   5.167   3.678   6.938  0.1535  0.0959  0.1182
  143OSM    H5F15734   5.274   3.681   6.967 -0.3279 -1.4761  2.3578
  143OSM    H5G15735   5.116   3.602   7.001  0.1550 -1.4649 -1.6838
  143OSM    C6F15736   5.095   3.807   6.971 -1.0710 -0.7725 -0.2202
  143OSM    H6F15737   4.989   3.815   6.938 -1.3589 -1.5204  0.4984
  143OSM    H6G15738   5.121   3.898   6.913 -1.4495  0.3139  1.2525
  143OSM    C7F15739   5.109   3.859   7.117 -0.9357  0.6791  0.1713
  143OSM    H7F15740   5.050   3.953   7.110 -1.9663  0.1142  1.0705
  143OSM    H7G15741   5.214   3.884   7.142  0.1141 -1.7584 -1.5074
  143OSM    C8F15742   5.045   3.771   7.225 -0.3441 -0.0263 -0.5740
  143OSM    H8F15743   5.080   3.666   7.227 -0.1498  0.0081 -1.6456
  143OSM    H8G15744   4.937   3.761   7.202 -0.8308 -0.5699  1.6872
  143OSM    C9F15745   5.049   3.832   7.360 -0.4684  1.2441 -0.3204
  143OSM    H9F15746   5.069   3.939   7.344 -0.8867  1.7264  1.9652
  143OSM   C10F15747   5.052   3.771   7.484  0.6372 -0.1926 -0.4627
  143OSM   H10F15748   5.063   3.828   7.578  3.2938 -0.4799 -0.5431
  143OSM   C11F15749   5.038   3.626   7.510  0.1180  0.9710  0.8312
  143OSM   H11F15750   5.039   3.572   7.413 -0.0738  1.0807  0.7670
  143OSM   H11G15751   4.942   3.598   7.558 -0.1522 -2.4721 -1.3224
  143OSM   C12F15752   5.149   3.563   7.599  0.6099 -0.0245 -0.3352
  143OSM   H12F15753   5.247   3.563   7.545  0.7116 -1.7092 -0.1931
  143OSM   H12G15754   5.130   3.458   7.630  1.3226 -0.1484 -0.2907
  143OSM   C13F15755   5.168   3.641   7.733 -0.7530 -0.3562  0.4832
  143OSM   H13F15756   5.195   3.747   7.711  1.1395 -0.9325 -0.1437
  143OSM   H13G15757   5.262   3.604   7.778  0.6566  1.0274 -1.1739
  143OSM   C14F15758   5.056   3.629   7.837 -0.3839  0.4085  0.7032
  143OSM   H14F15759   5.032   3.521   7.841 -1.4313  0.5782 -0.5518
  143OSM   H14G15760   4.969   3.684   7.796 -0.5400 -0.2289  0.1684
  143OSM   C15F15761   5.083   3.699   7.974 -0.3439 -0.9535  0.2365
  143OSM   H15F15762   5.086   3.808   7.952  2.0953 -1.2105 -1.1971
  143OSM   H15G15763   5.178   3.667   8.022 -0.5728 -0.6356  0.9162
  143OSM   C16F15764   4.977   3.672   8.072  0.5723  0.1409  0.8987
  143OSM   H16F15765   5.003   3.575   8.120 -0.3750 -0.5080  0.1329
  143OSM   H16G15766   4.883   3.642   8.023 -0.1380  0.7128  1.8797
  143OSM   C17F15767   4.957   3.773   8.178  0.2465 -0.5954 -0.3727
  143OSM   H17F15768   4.919   3.864   8.125 -0.4240  0.3234  1.5691
  143OSM   H17G15769   5.059   3.805   8.207 -0.0454  1.5648 -1.4620
  143OSM   C18F15770   4.864   3.741   8.291 -0.2040  0.6034  0.5415
  143OSM   H18F15771   4.919   3.669   8.356  0.0164  0.4138  0.1509
  143OSM   H18G15772   4.769   3.687   8.269  0.8028 -0.9820 -0.0975
  143OSM   H18H15773   4.832   3.825   8.356  0.5394  1.1251  0.2536
  144OSM      N15774   4.581   5.563   5.997 -0.0090 -0.1709  0.4449
  144OSM    C1515775   4.509   5.683   5.926  0.6904  0.4903  0.1691
  144OSM   H15A15776   4.441   5.735   5.992  1.1434  2.4597 -0.8766
  144OSM   H15B15777   4.459   5.642   5.840 -1.2944 -2.5059  2.5117
  144OSM   H15C15778   4.583   5.753   5.893 -1.9381  2.4662 -1.9424
  144OSM    C1415779   4.503   5.438   5.969  0.1902 -0.0051 -0.4489
  144OSM   H14A15780   4.496   5.429   5.862  2.0539  3.0440 -0.9620
  144OSM   H14B15781   4.401   5.445   6.003  1.0199 -0.8546  2.5921
  144OSM   H14C15782   4.549   5.347   6.006 -0.5049 -1.4794 -2.9749
  144OSM    C1315783   4.721   5.545   5.938  0.7203 -0.0327  0.1120
  144OSM   H13A15784   4.726   5.510   5.836  1.8941  0.8824 -0.1558
  144OSM   H13B15785   4.780   5.473   5.993  2.1954  1.1270  0.0752
  144OSM   H13C15786   4.773   5.638   5.949  0.9987 -0.2037  0.2549
  144OSM    C1215787   4.585   5.585   6.153  0.5729 -0.4433  0.0456
  144OSM   H12A15788   4.488   5.612   6.192  1.0593 -0.6672  1.4668
  144OSM   H12B15789   4.650   5.668   6.174  1.2466 -1.2603  1.2876
  144OSM    C1115790   4.644   5.475   6.244 -0.7280  0.6983  0.0782
  144OSM   H11A15791   4.568   5.395   6.252 -0.0416  0.1037  0.6943
  144OSM   H11B15792   4.648   5.517   6.347  1.9970 -0.6730  0.6080
  144OSM      P15793   4.906   5.499   6.236 -0.0318 -0.2672 -0.2646
  144OSM    O1315794   4.996   5.477   6.121  0.2785 -0.0087 -0.1139
  144OSM    O1415795   4.875   5.642   6.266 -0.2556  0.0262 -0.6068
  144OSM    O1115796   4.967   5.429   6.365 -0.4069  0.3104  0.1597
  144OSM    O1215797   4.770   5.424   6.200  0.0497  0.4928  0.4267
  144OSM    C1S15798   4.907   5.307   6.404 -0.4573  0.5007  0.0916
  144OSM    H1S15799   4.932   5.230   6.327 -4.9347  0.0796 -1.2547
  144OSM    H1T15800   4.796   5.314   6.402 -0.4468  1.0894 -2.3767
  144OSM     NF15801   4.896   5.135   6.590 -0.4103  0.9437 -0.4516
  144OSM    HNF15802   4.806   5.120   6.630 -0.2435  0.5942 -0.2006
  144OSM    C2S15803   4.947   5.266   6.549  0.2855 -0.0366  0.0999
  144OSM    H2S15804   5.058   5.267   6.545  0.3624  0.7157  1.5901
  144OSM    C3S15805   4.890   5.372   6.638  0.4391 -0.0774  0.1266
  144OSM    H3S15806   4.779   5.362   6.638  0.4982 -1.1229  1.2363
  144OSM     O315807   4.907   5.508   6.599  0.1395  0.3616 -0.0863
  144OSM    HO315808   4.954   5.506   6.515  1.5362  0.4976  0.6624
  144OSM    C4S15809   4.929   5.360   6.780  0.1331  0.1820  0.2658
  144OSM    H4S15810   4.864   5.304   6.849 -1.4525  0.9845 -0.5190
  144OSM    C5S15811   5.039   5.410   6.831 -0.2447 -0.7906  0.3046
  144OSM    H5S15812   5.109   5.464   6.765 -0.1387 -0.5405  0.6205
  144OSM    C6S15813   5.079   5.403   6.973 -0.0602 -0.1451 -0.2229
  144OSM    H6S15814   4.994   5.378   7.040 -0.3718  0.0866 -0.5332
  144OSM    H6T15815   5.105   5.503   7.012  0.5504 -0.8417  1.2564
  144OSM    C7S15816   5.192   5.305   6.997  0.6506 -0.3519 -0.3715
  144OSM    H7S15817   5.284   5.355   6.960  0.2988  0.7079  0.1629
  144OSM    H7T15818   5.175   5.209   6.944  1.6534 -0.0076 -1.3511
  144OSM    C8S15819   5.217   5.286   7.149 -0.1420 -0.2427 -0.1862
  144OSM    H8S15820   5.294   5.213   7.182  0.7775  0.4851 -0.6736
  144OSM    H8T15821   5.126   5.236   7.189 -1.8081  0.8036 -2.4387
  144OSM    C9S15822   5.244   5.425   7.207  0.4607 -0.2865 -0.1743
  144OSM    H9S15823   5.148   5.480   7.210  1.1586  1.0160  3.0900
  144OSM    H9T15824   5.303   5.492   7.141 -0.2240  2.1083  1.5385
  144OSM   C10S15825   5.306   5.424   7.346 -0.0524 -0.4219  0.0902
  144OSM   H10S15826   5.251   5.353   7.411  1.1202 -2.7807 -1.3362
  144OSM   H10T15827   5.303   5.527   7.388 -1.6421  0.0523 -1.1002
  144OSM   C11S15828   5.448   5.371   7.363 -0.2194  0.1409  0.3689
  144OSM   H11S15829   5.525   5.433   7.312  0.8841 -1.9797 -0.6549
  144OSM   H11T15830   5.452   5.268   7.321 -0.3776  0.0228  0.6424
  144OSM   C12S15831   5.487   5.362   7.511 -0.3444  0.1190  0.2294
  144OSM   H12S15832   5.589   5.318   7.519 -0.6499 -0.2717  2.6471
  144OSM   H12T15833   5.429   5.292   7.574  2.5977 -1.3699  1.4751
  144OSM   C13S15834   5.496   5.496   7.574  0.7053  0.0337  0.1638
  144OSM   H13S15835   5.395   5.543   7.574  0.2378 -0.9307  0.7114
  144OSM   H13T15836   5.567   5.569   7.530  0.5012  0.1226 -0.0190
  144OSM   C14S15837   5.531   5.482   7.721 -1.0435  0.5650 -0.1479
  144OSM   H14S15838   5.456   5.412   7.765  0.5511 -0.7800  0.5168
  144OSM   H14T15839   5.500   5.576   7.772 -0.1019  0.0885  1.3879
  144OSM   C15S15840   5.674   5.443   7.752 -0.0710 -0.0173  0.0875
  144OSM   H15S15841   5.749   5.510   7.706 -0.8019 -0.3195 -1.6135
  144OSM   H15T15842   5.683   5.337   7.720  0.2063 -0.2920  1.0451
  144OSM   C16S15843   5.703   5.433   7.899 -0.0348  0.1210  0.1869
  144OSM   H16S15844   5.621   5.386   7.959 -0.2269 -2.3586 -1.8659
  144OSM   H16T15845   5.725   5.532   7.945 -2.1242  1.3832 -1.3977
  144OSM   C17S15846   5.822   5.348   7.930 -0.5714 -0.0774 -0.2313
  144OSM   H17S15847   5.914   5.391   7.885 -0.7294  0.2032 -0.2866
  144OSM   H17T15848   5.807   5.251   7.879 -0.6576 -0.2281  0.0819
  144OSM   C18S15849   5.848   5.328   8.076 -0.2544 -0.5232  0.0097
  144OSM   H18S15850   5.922   5.246   8.092  0.6784  0.5504  1.5105
  144OSM   H18T15851   5.754   5.304   8.131 -0.9441  0.6853 -0.6008
  144OSM   H18U15852   5.904   5.406   8.131  1.7339 -1.3878 -0.6970
  144OSM    C1F15853   4.963   5.025   6.542  0.1935 -0.5867 -0.0824
  144OSM     OF15854   5.053   5.044   6.464  0.4215 -0.3747 -0.1960
  144OSM    C2F15855   4.903   4.893   6.569 -0.1063  0.0936  0.1591
  144OSM    H2F15856   4.858   4.849   6.477 -0.5055  1.0449 -0.1156
  144OSM    H2G15857   4.827   4.906   6.649 -0.9869 -1.1468 -0.4380
  144OSM    C3F15858   5.014   4.787   6.608 -0.7182 -0.1240  0.0418
  144OSM    H3F15859   5.104   4.782   6.544 -1.1814 -0.8291 -0.5738
  144OSM    H3G15860   4.960   4.690   6.614  1.0326 -1.1436 -0.1971
  144OSM    C4F15861   5.084   4.813   6.746 -0.4639  0.4208 -0.3022
  144OSM    H4F15862   5.158   4.896   6.749 -0.8575  0.7431  1.0364
  144OSM    H4G15863   5.140   4.718   6.756  0.3518  0.9858  0.7133
  144OSM    C5F15864   4.995   4.835   6.870 -0.4617 -0.2789 -0.1062
  144OSM    H5F15865   4.938   4.740   6.877 -1.9571  0.6571  0.9296
  144OSM    H5G15866   4.923   4.919   6.869 -1.0058 -0.7503 -1.3719
  144OSM    C6F15867   5.086   4.846   6.999 -0.6515 -0.8963 -0.3159
  144OSM    H6F15868   5.145   4.940   6.984 -2.6831  0.3681 -0.7881
  144OSM    H6G15869   5.149   4.755   6.999 -2.1823 -2.0421  2.3893
  144OSM    C7F15870   5.012   4.851   7.133  0.2979 -0.1431 -0.2260
  144OSM    H7F15871   4.940   4.767   7.123  2.1928 -1.7856 -0.8144
  144OSM    H7G15872   4.954   4.946   7.131  0.7749  0.1361 -2.0605
  144OSM    C8F15873   5.095   4.830   7.256 -0.3310 -0.6064 -0.0019
  144OSM    H8F15874   5.142   4.729   7.250 -0.3406 -0.5428 -1.3618
  144OSM    H8G15875   5.014   4.825   7.332 -0.9350  0.2620 -0.5793
  144OSM    C9F15876   5.207   4.938   7.259  0.7573  0.1922  0.2270
  144OSM    H9F15877   5.258   4.965   7.165 -0.4598 -1.0311 -0.8190
  144OSM   C10F15878   5.235   5.013   7.361 -0.1108  0.0371  0.3683
  144OSM   H10F15879   5.316   5.088   7.357  0.9171 -1.1120 -2.2617
  144OSM   C11F15880   5.169   5.002   7.498  0.3388 -0.0854  0.3231
  144OSM   H11F15881   5.062   4.976   7.479  0.6685 -0.4555 -1.2086
  144OSM   H11G15882   5.161   5.097   7.554  1.2034  0.6405 -0.7455
  144OSM   C12F15883   5.222   4.893   7.582  0.3942  0.4239 -0.2443
  144OSM   H12F15884   5.333   4.898   7.593  0.1816  0.5780  2.5879
  144OSM   H12G15885   5.189   4.802   7.527  0.8195  0.3589 -0.3922
  144OSM   C13F15886   5.161   4.877   7.727 -0.3386  0.0108  0.4824
  144OSM   H13F15887   5.198   4.779   7.763 -0.3185 -0.8346 -1.6819
  144OSM   H13G15888   5.050   4.872   7.723 -0.2626 -2.3094 -0.3980
  144OSM   C14F15889   5.216   4.985   7.811 -0.1996  0.0187  0.4968
  144OSM   H14F15890   5.155   5.074   7.783 -0.6022 -1.1841 -2.9325
  144OSM   H14G15891   5.316   5.028   7.791 -1.1304  2.3066  0.4491
  144OSM   C15F15892   5.200   4.964   7.965  0.0488  0.8416  0.5934
  144OSM   H15F15893   5.233   4.861   7.990 -1.6786 -0.1348 -0.9309
  144OSM   H15G15894   5.093   4.968   7.992 -0.4137 -0.3187 -0.9906
  144OSM   C16F15895   5.286   5.064   8.055  0.1340 -0.7202 -1.0591
  144OSM   H16F15896   5.251   5.062   8.160  0.4522  0.8507 -0.8911
  144OSM   H16G15897   5.258   5.166   8.020  2.4894 -0.0395 -1.1538
  144OSM   C17F15898   5.432   5.043   8.049 -0.4309  0.1445  0.0958
  144OSM   H17F15899   5.461   5.047   7.942  0.1532 -2.0572  0.1256
  144OSM   H17G15900   5.463   4.942   8.085  3.0097  1.8536  2.5317
  144OSM   C18F15901   5.515   5.151   8.120  0.1064  0.1495 -0.0870
  144OSM   H18F15902   5.492   5.158   8.228 -0.0292 -3.4789  0.2344
  144OSM   H18G15903   5.512   5.247   8.063 -0.6607 -0.9465 -1.9930
  144OSM   H18H15904   5.623   5.123   8.113  0.1128  0.3800 -1.0398
  145SAPE     N15905   3.866   4.162  10.764  0.4511  0.2320 -0.1823
  145SAPE   HN115906   3.970   4.170  10.761  0.4787  1.4587  2.0022
  145SAPE   HN215907   3.837   4.224  10.842  0.1353 -0.5885  0.3554
  145SAPE   HN315908   3.844   4.064  10.787 -1.2742  0.6945  0.2580
  145SAPE   C1215909   3.809   4.201  10.634  0.9791 -0.3043  0.2798
  145SAPE  H12A15910   3.833   4.305  10.604 -0.5641 -0.3104 -1.1183
  145SAPE  H12B15911   3.699   4.207  10.650  0.5710 -0.5748 -2.1398
  145SAPE   C1115912   3.838   4.103  10.519 -0.5598  0.1506 -0.2180
  145SAPE  H11A15913   3.945   4.118  10.492 -0.8782 -0.0985 -1.6825
  145SAPE  H11B15914   3.770   4.113  10.432 -1.5813  0.3676  0.5778
  145SAPE     P15915   3.695   3.900  10.592 -0.0304  0.4685 -0.1223
  145SAPE   O1315916   3.707   3.753  10.578 -0.2461 -0.2210 -0.2241
  145SAPE   O1415917   3.662   3.950  10.725 -0.0202  0.1167 -0.0438
  145SAPE   O1215918   3.833   3.967  10.559  0.4191  0.0375  0.0691
  145SAPE   O1115919   3.597   3.953  10.492  0.1100  0.3093  0.4280
  145SAPE    C115920   3.479   4.019  10.524  0.3666 -0.1293  0.1804
  145SAPE    HA15921   3.497   4.086  10.611  2.3275  1.8414 -1.6076
  145SAPE    HB15922   3.441   4.083  10.442  0.5738  1.3028  1.1649
  145SAPE    C215923   3.354   3.928  10.555 -0.3063 -0.3843 -0.2427
  145SAPE    HS15924   3.370   3.877  10.653 -0.2468  1.4193  0.7312
  145SAPE   O2115925   3.320   3.838  10.446  0.3891  0.0745  0.6194
  145SAPE   C2115926   3.245   3.733  10.478 -0.2960  0.3806 -0.2106
  145SAPE   O2215927   3.222   3.695  10.593 -0.1283  0.1740  0.3126
  145SAPE   C2215928   3.200   3.657  10.351 -0.0260  0.0004  0.4245
  145SAPE   H2R15929   3.125   3.716  10.294 -0.2300  0.2158  0.9111
  145SAPE   H2S15930   3.292   3.654  10.288  1.1962  3.2517  1.8158
  145SAPE    C315931   3.225   4.010  10.589  1.1334 -0.1287  0.6372
  145SAPE    HX15932   3.252   4.097  10.652  0.6953 -1.6634  3.0883
  145SAPE    HY15933   3.151   3.944  10.640  0.9893 -0.8935 -0.5226
  145SAPE   O3115934   3.162   4.068  10.471 -0.2788 -0.4691 -0.1083
  145SAPE   C3115935   3.045   4.025  10.431  0.1404 -0.1423  0.4589
  145SAPE   O3215936   2.976   3.930  10.471  0.0528 -0.6514 -0.0204
  145SAPE   C3215937   2.999   4.121  10.322  0.7585  0.6373  0.4408
  145SAPE   H2X15938   2.971   4.217  10.371 -0.7336  1.5878 -2.0508
  145SAPE   H2Y15939   2.900   4.086  10.287 -0.1348  2.0285  1.4793
  145SAPE   C2315940   3.146   3.525  10.398 -0.5482  0.2642 -0.2861
  145SAPE   H3R15941   3.043   3.533  10.438 -1.4540  0.2680 -2.4606
  145SAPE   H3S15942   3.219   3.483  10.469  2.4593  0.7575 -2.8506
  145SAPE   C2415943   3.126   3.424  10.290 -0.0582  0.5222  0.0410
  145SAPE   H4R15944   3.042   3.458  10.226  0.6693  2.4068  0.0214
  145SAPE   H4S15945   3.103   3.326  10.337 -0.8407 -0.1181 -1.6078
  145SAPE   C2515946   3.251   3.398  10.218 -0.1245  0.2132 -0.0299
  145SAPE   H5R15947   3.341   3.367  10.272 -0.5777 -0.0967  0.5614
  145SAPE   C2615948   3.274   3.421  10.085  0.3667  1.0913 -0.7371
  145SAPE   H6R15949   3.372   3.397  10.042  0.1964 -1.4990  0.1653
  145SAPE   C2715950   3.182   3.483   9.987  0.4894  0.4934 -0.6483
  145SAPE   H7R15951   3.082   3.502  10.030  0.9726  1.5322  0.0714
  145SAPE   H7S15952   3.165   3.414   9.902 -4.8365 -0.4567  0.8335
  145SAPE   C2815953   3.253   3.614   9.948 -0.5286 -0.2920 -0.1165
  145SAPE   H8R15954   3.241   3.690  10.026  0.2940  0.1105 -0.3732
  145SAPE   C2915955   3.334   3.638   9.843 -0.4495 -1.0361 -1.0917
  145SAPE   H9R15956   3.376   3.740   9.839 -0.8539 -0.8841 -1.6765
  145SAPE  C21015957   3.362   3.553   9.720 -0.1124 -0.2380 -0.8559
  145SAPE  H10R15958   3.373   3.622   9.634 -3.7074  0.1024 -1.2037
  145SAPE  H10S15959   3.268   3.501   9.692 -1.9361  2.2666  0.2420
  145SAPE  C21115960   3.470   3.443   9.729 -0.2697 -0.1664 -0.4320
  145SAPE  H11R15961   3.487   3.416   9.834 -1.3655  3.2639  0.7785
  145SAPE  C21215962   3.542   3.382   9.630  0.2859 -0.1199  0.3949
  145SAPE  H12R15963   3.620   3.308   9.651  0.0032 -1.2105 -2.0592
  145SAPE  C21315964   3.524   3.428   9.485  0.1254  0.2851  0.3422
  145SAPE  H13R15965   3.576   3.525   9.471 -0.9070  0.9004  0.7020
  145SAPE  H13S15966   3.417   3.440   9.461 -0.0658 -0.2385  0.9187
  145SAPE  C21415967   3.571   3.323   9.389  0.0289 -0.1762 -0.4124
  145SAPE  H14R15968   3.643   3.254   9.434 -0.1460 -0.1653 -0.1186
  145SAPE  C21515969   3.544   3.310   9.258  0.3457 -0.2734 -0.0310
  145SAPE  H15R15970   3.587   3.226   9.201  1.1304  0.7168 -0.9344
  145SAPE  C21615971   3.455   3.393   9.172 -0.4892 -0.1453 -0.2680
  145SAPE  H16R15972   3.424   3.486   9.223 -2.9287 -1.9484  1.8439
  145SAPE  H16S15973   3.357   3.343   9.160 -0.7404 -0.0891  1.3321
  145SAPE  C21715974   3.533   3.433   9.043  0.9436  0.1020 -0.8794
  145SAPE  H17R15975   3.635   3.474   9.063  0.8737  1.0125 -2.2787
  145SAPE  H17S15976   3.476   3.517   8.998 -0.4268 -0.9371 -1.1418
  145SAPE  C21815977   3.535   3.320   8.939  0.1523  0.6451  0.7980
  145SAPE  H18R15978   3.433   3.274   8.933  1.6228 -2.8994  0.2304
  145SAPE  H18S15979   3.598   3.235   8.974  0.2863  1.8055  3.6034
  145SAPE  C21915980   3.574   3.350   8.795 -0.8513 -0.5145  0.1067
  145SAPE  H19R15981   3.527   3.449   8.775 -0.5107 -0.5307 -0.8586
  145SAPE  H19S15982   3.532   3.280   8.719 -2.5205  0.8739 -0.3239
  145SAPE  C22015983   3.724   3.369   8.778 -0.1030  0.5728  0.2111
  145SAPE  H20R15984   3.772   3.431   8.857 -1.1276  1.0594  0.4631
  145SAPE  H20S15985   3.749   3.429   8.688  2.8956  2.0115  1.8544
  145SAPE  H20T15986   3.778   3.274   8.763  1.8612  1.9716 -2.4669
  145SAPE   C3315987   3.094   4.133  10.199  0.3657 -0.3557 -0.8420
  145SAPE   H3X15988   3.193   4.151  10.247 -0.4911 -0.7179  1.1758
  145SAPE   H3Y15989   3.070   4.225  10.142  1.6697  0.9582  0.6218
  145SAPE   C3415990   3.112   4.002  10.123 -0.3030 -0.2654 -0.5434
  145SAPE   H4X15991   3.012   3.955  10.113 -0.6791  0.6180 -0.9662
  145SAPE   H4Y15992   3.174   3.932  10.183 -1.6630 -0.1784  1.0508
  145SAPE   C3515993   3.183   4.022   9.995  0.4869 -0.4600  0.6539
  145SAPE   H5X15994   3.228   3.925   9.963  1.1073 -0.7994  2.4299
  145SAPE   H5Y15995   3.266   4.095  10.004 -0.4431  0.8900 -1.1186
  145SAPE   C3615996   3.084   4.068   9.885 -0.0788  0.1133  0.3108
  145SAPE   H6X15997   3.035   4.165   9.907 -1.1875  0.2794 -2.4311
  145SAPE   H6Y15998   3.006   3.990   9.873  0.4772 -0.5048  0.6622
  145SAPE   C3715999   3.149   4.090   9.748 -0.1284 -0.2588 -0.5761
  145SAPE   H7X16000   3.220   4.175   9.756  0.3658 -0.8403  2.6574
  145SAPE   H7Y16001   3.075   4.113   9.668  1.8131  1.6370 -1.9448
  145SAPE   C3816002   3.225   3.963   9.686  0.1941 -0.0511  0.3478
  145SAPE   H8X16003   3.158   3.875   9.689  0.7664 -0.5411 -0.8865
  145SAPE   H8Y16004   3.316   3.939   9.746  0.7285 -2.1943 -1.1924
  145SAPE   C3916005   3.265   3.962   9.534 -0.2498  0.3407  0.1566
  145SAPE   H9X16006   3.335   4.046   9.519 -0.0332  0.2063  0.3977
  145SAPE   H9Y16007   3.166   3.970   9.483  0.3886 -0.7830 -1.3205
  145SAPE  C31016008   3.324   3.833   9.474 -0.1578 -0.7306 -0.5572
  145SAPE  H10X16009   3.262   3.743   9.495 -1.5167 -0.0204 -1.4043
  145SAPE  H10Y16010   3.428   3.826   9.511 -0.7409 -0.1322  1.3731
  145SAPE  C31116011   3.335   3.846   9.321  0.1426 -0.4721  0.3661
  145SAPE  H11X16012   3.373   3.751   9.277  3.3201  0.8025  0.1338
  145SAPE  H11Y16013   3.407   3.926   9.296  0.4166 -1.5213 -2.6475
  145SAPE  C31216014   3.205   3.897   9.255 -0.0859  0.5396  0.7442
  145SAPE  H12X16015   3.182   4.001   9.284 -0.8497  0.5558  0.1146
  145SAPE  H12Y16016   3.117   3.835   9.283 -0.2207  0.1601 -0.4883
  145SAPE  C31316017   3.220   3.890   9.104  0.8451 -0.4280  0.0370
  145SAPE  H13X16018   3.248   3.786   9.075  1.1910 -0.1167 -0.7637
  145SAPE  H13Y16019   3.316   3.942   9.085 -0.2863  1.2045 -1.5429
  145SAPE  C31416020   3.096   3.946   9.026  0.1279  0.5848  0.2781
  145SAPE  H14X16021   3.094   4.053   9.057  3.2695  0.2255  2.0968
  145SAPE  H14Y16022   3.003   3.911   9.076 -0.1550  0.8009 -0.0934
  145SAPE  C31516023   3.102   3.940   8.880 -0.6475 -0.0066 -0.1788
  145SAPE  H15X16024   3.168   3.868   8.826  2.2336  1.7523  0.7311
  145SAPE  H15Y16025   3.153   4.035   8.854 -0.6919 -0.0953 -0.5913
  145SAPE  C31616026   2.965   3.942   8.815 -0.9052  0.5501  0.0384
  145SAPE  H16X16027   2.947   4.014   8.733  0.4539 -0.1949 -0.9542
  145SAPE  H16Y16028   2.896   3.962   8.900  1.3940  2.3639  1.6281
  145SAPE  C31716029   2.930   3.806   8.747  0.2893  0.2937 -0.8029
  145SAPE  H17X16030   2.937   3.720   8.818 -0.4607  1.0081  0.1676
  145SAPE  H17Y16031   3.007   3.786   8.669  0.9139  0.5199 -0.2566
  145SAPE  C31816032   2.789   3.808   8.689  0.0987 -0.2324 -0.4305
  145SAPE  H18X16033   2.717   3.855   8.760  1.8006  1.5021  0.2077
  145SAPE  H18Y16034   2.758   3.711   8.643 -3.5410  0.1199  0.9282
  145SAPE  H18Z16035   2.788   3.874   8.600 -0.2817 -2.4899 -2.2234
  146SAPE     N16036   2.694   5.690  10.800  0.0686 -0.0116  0.0619
  146SAPE   HN116037   2.733   5.760  10.866 -1.7156  1.4172 -0.3146
  146SAPE   HN216038   2.624   5.740  10.741  0.1308  0.9628  0.7989
  146SAPE   HN316039   2.643   5.616  10.852  1.3248 -1.5843 -0.8551
  146SAPE   C1216040   2.799   5.630  10.712 -0.0019  0.2424  0.0981
  146SAPE  H12A16041   2.752   5.548  10.655 -1.4136  0.9990  0.1222
  146SAPE  H12B16042   2.873   5.592  10.785 -1.6606 -0.4392  1.4937
  146SAPE   C1116043   2.863   5.735  10.630  0.2514  0.0397 -0.0979
  146SAPE  H11A16044   2.779   5.772  10.568  0.0573 -1.2231 -0.6240
  146SAPE  H11B16045   2.926   5.675  10.560 -1.7980 -0.3205 -1.7415
  146SAPE     P16046   3.086   5.809  10.742  0.2679 -0.2655 -0.1571
  146SAPE   O1316047   3.110   5.884  10.868  0.8238 -0.5753 -0.1889
  146SAPE   O1416048   3.103   5.665  10.765 -0.3739 -0.5811  0.1951
  146SAPE   O1216049   2.934   5.837  10.710 -0.6207  0.1824  0.9584
  146SAPE   O1116050   3.165   5.860  10.621 -0.4320  0.2837  0.0984
  146SAPE    C116051   3.112   5.986  10.564 -0.3752 -0.8204  0.2920
  146SAPE    HA16052   3.034   5.957  10.490  0.5778 -1.4165 -0.5010
  146SAPE    HB16053   3.067   6.053  10.640 -0.1925  0.6260 -0.8419
  146SAPE    C216054   3.232   6.060  10.497 -0.5712 -0.1152  0.5353
  146SAPE    HS16055   3.199   6.163  10.469  2.1535  1.1790  1.7380
  146SAPE   O2116056   3.280   5.992  10.380 -0.3706  0.3027  0.2396
  146SAPE   C2116057   3.196   5.980  10.275  0.4674  0.3000  0.6667
  146SAPE   O2216058   3.086   6.027  10.272 -0.1214 -0.0914  0.6865
  146SAPE   C2216059   3.245   5.886  10.162  0.6580 -0.3264 -0.3083
  146SAPE   H2R16060   3.171   5.803  10.156 -0.2332  0.5396 -1.7752
  146SAPE   H2S16061   3.244   5.937  10.064  0.6463  0.4213  0.0724
  146SAPE    C316062   3.349   6.085  10.601 -0.7156  0.1023 -0.1346
  146SAPE    HX16063   3.392   5.985  10.621 -2.6350 -0.7565 -0.0804
  146SAPE    HY16064   3.301   6.129  10.692  0.4711 -2.0975  1.6653
  146SAPE   O3116065   3.443   6.185  10.556  0.4707 -0.2939 -0.2106
  146SAPE   C3116066   3.554   6.129  10.497  0.5978 -0.3305  0.0029
  146SAPE   O3216067   3.575   6.011  10.490 -0.6340  0.6788  0.0400
  146SAPE   C3216068   3.636   6.248  10.447  0.1416 -0.1693 -0.4591
  146SAPE   H2X16069   3.646   6.316  10.535 -0.1151  1.1692 -1.4308
  146SAPE   H2Y16070   3.577   6.300  10.369  0.3695 -0.2841 -0.7085
  146SAPE   C2316071   3.395   5.842  10.189 -0.0880  0.6665  0.3591
  146SAPE   H3R16072   3.404   5.764  10.268 -1.8719  1.9107  1.8827
  146SAPE   H3S16073   3.463   5.923  10.223  2.0964 -0.2754 -1.4890
  146SAPE   C2416074   3.460   5.782  10.056  0.8616 -0.2342  0.3975
  146SAPE   H4R16075   3.562   5.742  10.075  0.8089 -1.1663 -1.1397
  146SAPE   H4S16076   3.465   5.864   9.981 -0.2373  0.0022  0.5737
  146SAPE   C2516077   3.377   5.666  10.012  0.4941 -0.6913  1.0152
  146SAPE   H5R16078   3.384   5.579  10.079  0.2939 -2.1898 -0.8407
  146SAPE   C2616079   3.287   5.658   9.909  0.4807  0.4859 -0.3984
  146SAPE   H6R16080   3.225   5.570   9.893  2.1623 -0.8632  0.1443
  146SAPE   C2716081   3.265   5.773   9.818  0.8314  0.3254 -0.4223
  146SAPE   H7R16082   3.365   5.814   9.796  1.8977 -1.1020  1.4667
  146SAPE   H7S16083   3.225   5.865   9.866  1.4601  0.0828  0.5810
  146SAPE   C2816084   3.205   5.724   9.685  0.1590 -0.2625 -0.3776
  146SAPE   H8R16085   3.274   5.661   9.627  1.7321  0.3037  0.8024
  146SAPE   C2916086   3.087   5.760   9.641  0.3177  0.0695  0.1386
  146SAPE   H9R16087   3.039   5.700   9.562 -0.6552 -2.5332  2.5558
  146SAPE  C21016088   2.987   5.853   9.711 -0.0793  0.4272 -0.8563
  146SAPE  H10R16089   2.905   5.854   9.636  2.3284 -3.4812 -4.0122
  146SAPE  H10S16090   3.015   5.959   9.726  0.5908 -0.1334  2.6738
  146SAPE  C21116091   2.937   5.796   9.849  0.5240 -0.3012  0.3367
  146SAPE  H11R16092   3.007   5.818   9.931  2.5318 -3.5977 -0.2873
  146SAPE  C21216093   2.844   5.703   9.878 -0.0665 -0.5556  0.0874
  146SAPE  H12R16094   2.817   5.688   9.984 -0.6993  3.8022  0.7415
  146SAPE  C21316095   2.745   5.634   9.786 -0.2311  0.1003 -0.2007
  146SAPE  H13R16096   2.763   5.673   9.684 -0.4139 -1.1442 -0.7177
  146SAPE  H13S16097   2.646   5.661   9.829 -1.3337 -0.9428 -1.9639
  146SAPE  C21416098   2.749   5.483   9.805  0.3482  0.2672  0.0057
  146SAPE  H14R16099   2.799   5.447   9.897  2.0872  0.9534 -0.6372
  146SAPE  C21516100   2.701   5.394   9.719 -0.4843  0.5416 -0.1944
  146SAPE  H15R16101   2.708   5.286   9.741  0.3496  0.6264  0.0124
  146SAPE  C21616102   2.635   5.421   9.581 -0.2772  0.7663 -0.0852
  146SAPE  H16R16103   2.631   5.531   9.566 -2.9809  1.0775  2.2195
  146SAPE  H16S16104   2.530   5.387   9.577 -1.3307  3.7439 -0.1763
  146SAPE  C21716105   2.708   5.353   9.454 -0.1625  0.6707  0.1359
  146SAPE  H17R16106   2.710   5.244   9.474  0.9521  0.8026  0.8095
  146SAPE  H17S16107   2.812   5.392   9.444  0.6463 -1.4024  0.0599
  146SAPE  C21816108   2.631   5.375   9.321  0.9522 -0.9601  0.1682
  146SAPE  H18R16109   2.633   5.480   9.285 -0.3930 -0.4291  1.5200
  146SAPE  H18S16110   2.525   5.344   9.335  0.3745  0.9755  0.3270
  146SAPE  C21916111   2.698   5.279   9.222  0.4066  0.0244 -0.1636
  146SAPE  H19R16112   2.680   5.179   9.268 -0.5987  0.7737  1.1541
  146SAPE  H19S16113   2.807   5.302   9.220  0.1273  1.3927 -0.1173
  146SAPE  C22016114   2.648   5.276   9.083  0.2629 -0.2275  0.7973
  146SAPE  H20R16115   2.643   5.376   9.035 -0.0474 -1.0308 -0.9303
  146SAPE  H20S16116   2.547   5.230   9.077  1.1538 -2.1853 -0.3243
  146SAPE  H20T16117   2.714   5.218   9.015 -2.4486  0.2761 -2.5555
  146SAPE   C3316118   3.764   6.187  10.383  0.5197 -0.2883  0.0849
  146SAPE   H3X16119   3.748   6.108  10.306  2.1290  1.0480 -1.7380
  146SAPE   H3Y16120   3.815   6.131  10.464  1.3272 -0.5678 -0.5936
  146SAPE   C3416121   3.867   6.294  10.338  0.3638 -0.3175 -0.1846
  146SAPE   H4X16122   3.973   6.259  10.337  0.8809  1.1565 -0.0552
  146SAPE   H4Y16123   3.861   6.373  10.415 -0.7378  0.2563 -0.8274
  146SAPE   C3516124   3.840   6.360  10.200  0.6777  0.5555  0.1422
  146SAPE   H5X16125   3.900   6.452  10.187  1.7131 -0.3926 -2.5171
  146SAPE   H5Y16126   3.731   6.381  10.206  0.6504  0.4804 -0.0857
  146SAPE   C3616127   3.862   6.250  10.084 -0.2415  0.1726  0.4431
  146SAPE   H6X16128   3.812   6.154  10.105  0.0877 -0.0368  0.2773
  146SAPE   H6Y16129   3.972   6.235  10.098 -0.1547 -0.6073 -0.9138
  146SAPE   C3716130   3.834   6.299   9.944  0.2221 -0.1246 -0.3487
  146SAPE   H7X16131   3.872   6.402   9.937 -0.4983  0.2420  0.8299
  146SAPE   H7Y16132   3.723   6.288   9.942  0.1075  0.1521  1.9542
  146SAPE   C3816133   3.907   6.214   9.835 -0.2735  1.0949 -0.3842
  146SAPE   H8X16134   3.871   6.111   9.853  0.8834 -0.0886 -4.0818
  146SAPE   H8Y16135   4.017   6.225   9.848 -0.5016  1.1875  1.9598
  146SAPE   C3916136   3.880   6.244   9.690  0.1957 -0.4786 -0.9504
  146SAPE   H9X16137   3.883   6.355   9.681 -0.7458 -0.4644 -1.1245
  146SAPE   H9Y16138   3.776   6.209   9.674  0.1414 -1.1333  0.7033
  146SAPE  C31016139   3.985   6.190   9.593  0.4240 -0.0265  0.3020
  146SAPE  H10X16140   3.995   6.080   9.606  0.3206 -0.4167 -2.3509
  146SAPE  H10Y16141   4.081   6.236   9.625  0.1753 -0.2593  1.4232
  146SAPE  C31116142   3.969   6.223   9.437 -0.0248 -0.3938  0.0057
  146SAPE  H11X16143   3.966   6.331   9.415 -0.7018 -0.5475 -0.7390
  146SAPE  H11Y16144   3.874   6.171   9.411  0.3390 -0.5892 -0.9884
  146SAPE  C31216145   4.072   6.146   9.353  0.0706 -0.9088 -0.0760
  146SAPE  H12X16146   4.065   6.040   9.386  2.4101 -1.2343 -0.4587
  146SAPE  H12Y16147   4.174   6.191   9.359  0.2016 -1.3415  1.3431
  146SAPE  C31316148   4.040   6.143   9.204 -0.2480  0.3422  0.2863
  146SAPE  H13X16149   3.951   6.080   9.182 -1.3517  1.9126  0.0891
  146SAPE  H13Y16150   4.127   6.093   9.158 -0.2597  1.5452 -1.0979
  146SAPE  C31416151   4.001   6.274   9.134 -0.0700  0.1241 -0.2527
  146SAPE  H14X16152   4.064   6.357   9.171 -0.7884  0.2867  0.6191
  146SAPE  H14Y16153   3.896   6.306   9.150  1.0067  3.5782  0.6627
  146SAPE  C31516154   4.016   6.270   8.983 -0.2983  0.2739  0.3359
  146SAPE  H15X16155   3.949   6.191   8.944  0.4344 -0.1594 -0.0632
  146SAPE  H15Y16156   4.120   6.241   8.955  0.2962  2.7982 -0.3271
  146SAPE  C31616157   3.978   6.402   8.926  0.3033 -1.1104  0.9431
  146SAPE  H16X16158   4.039   6.485   8.970  0.5663 -0.2638 -0.9300
  146SAPE  H16Y16159   3.882   6.437   8.968 -0.2925 -1.6394  0.0452
  146SAPE  C31716160   3.978   6.404   8.769  1.0999  0.0193  0.1295
  146SAPE  H17X16161   3.909   6.327   8.729  3.6593 -2.1163 -0.4375
  146SAPE  H17Y16162   4.074   6.374   8.722 -0.2592  0.1633 -2.9724
  146SAPE  C31816163   3.950   6.549   8.710 -0.3382 -0.0442 -0.7209
  146SAPE  H18X16164   3.894   6.607   8.787  2.4481  1.6274  0.1976
  146SAPE  H18Y16165   3.893   6.557   8.615  1.6989 -0.5403 -2.0588
  146SAPE  H18Z16166   4.046   6.601   8.689 -0.7200  0.7226 -0.6050
  147SAPE     N16167   3.795   1.047  10.710 -0.2264  0.0744 -0.2617
  147SAPE   HN116168   3.723   1.022  10.640 -2.2822  0.6172  1.5564
  147SAPE   HN216169   3.882   0.989  10.718  0.7688  1.5322 -0.1695
  147SAPE   HN316170   3.750   1.023  10.801  3.1435 -2.5298  0.9759
  147SAPE   C1216171   3.848   1.193  10.696  0.1651 -0.1170 -0.0125
  147SAPE  H12A16172   3.787   1.261  10.758 -0.0345  0.1385 -0.4834
  147SAPE  H12B16173   3.852   1.224  10.589  1.1730  1.9665  0.5882
  147SAPE   C1116174   3.994   1.208  10.751  0.7372 -0.6821 -0.1909
  147SAPE  H11A16175   3.984   1.227  10.860 -2.7089 -1.6118 -0.2240
  147SAPE  H11B16176   4.037   1.299  10.703 -1.7432  0.6338 -0.1021
  147SAPE     P16177   4.223   1.069  10.735  0.2195  0.1340 -0.0650
  147SAPE   O1316178   4.279   1.139  10.855  0.0831 -0.0831  0.0691
  147SAPE   O1416179   4.250   0.922  10.727  0.4643 -0.5404 -0.3382
  147SAPE   O1216180   4.066   1.088  10.732 -0.6851 -1.2251 -0.1431
  147SAPE   O1116181   4.257   1.139  10.596 -0.8005 -0.4585  0.2235
  147SAPE    C116182   4.290   1.276  10.598 -0.3524 -1.1449  0.2226
  147SAPE    HA16183   4.211   1.332  10.543 -0.3262 -0.8083  0.5212
  147SAPE    HB16184   4.288   1.325  10.697 -1.8349  0.6563 -0.6382
  147SAPE    C216185   4.433   1.307  10.534  0.6867 -0.6285  0.1771
  147SAPE    HS16186   4.430   1.410  10.492 -2.2393 -0.8305 -0.2805
  147SAPE   O2116187   4.470   1.218  10.428  0.4006 -0.0519  0.2090
  147SAPE   C2116188   4.398   1.242  10.321  0.1836  0.4924  0.2946
  147SAPE   O2216189   4.314   1.331  10.311  0.2856  0.2960  0.1670
  147SAPE   C2216190   4.420   1.138  10.221  0.0107 -0.1514  0.2346
  147SAPE   H2R16191   4.491   1.063  10.263  0.4782 -0.9864 -1.8962
  147SAPE   H2S16192   4.329   1.073  10.221  0.7541 -1.2299 -0.1933
  147SAPE    C316193   4.546   1.300  10.641  0.5657  0.5298 -0.2340
  147SAPE    HX16194   4.581   1.196  10.650 -0.0989  0.2680 -0.5919
  147SAPE    HY16195   4.503   1.336  10.737  2.6328  1.6572  0.3499
  147SAPE   O3116196   4.652   1.393  10.609 -0.0723 -0.3738 -0.0833
  147SAPE   C3116197   4.735   1.355  10.515 -0.3070  0.3557  0.0999
  147SAPE   O3216198   4.756   1.241  10.479 -0.1650  0.2037 -0.3312
  147SAPE   C3216199   4.826   1.480  10.481  0.2052  0.4425 -0.7379
  147SAPE   H2X16200   4.907   1.483  10.557 -0.2453  1.7399 -0.2798
  147SAPE   H2Y16201   4.761   1.569  10.493  0.3542  0.4895 -0.2398
  147SAPE   C2316202   4.453   1.198  10.081 -0.0393  1.3747  0.1482
  147SAPE   H3R16203   4.522   1.285  10.087  0.1415  1.4719 -2.3683
  147SAPE   H3S16204   4.366   1.245  10.030  0.0163  0.3318 -0.9549
  147SAPE   C2416205   4.524   1.093   9.991 -0.3623  0.3905 -0.1169
  147SAPE   H4R16206   4.583   1.027  10.059 -0.5815 -0.1663 -0.4629
  147SAPE   H4S16207   4.600   1.138   9.924 -0.8746  0.2538 -0.7977
  147SAPE   C2516208   4.435   1.001   9.917 -0.0369 -0.2734 -0.0960
  147SAPE   H5R16209   4.343   0.980   9.973 -1.4159  3.4212 -0.7365
  147SAPE   C2616210   4.453   0.944   9.794 -0.4235 -0.2313 -0.8164
  147SAPE   H6R16211   4.376   0.870   9.768 -1.2474  0.0668  0.6208
  147SAPE   C2716212   4.558   0.953   9.691 -0.0063 -0.8554 -0.5146
  147SAPE   H7R16213   4.563   0.862   9.628  1.8870 -0.7468 -0.5901
  147SAPE   H7S16214   4.658   0.964   9.738 -1.0392  1.6102  1.3568
  147SAPE   C2816215   4.543   1.071   9.598 -0.3824 -0.1987 -0.7963
  147SAPE   H8R16216   4.475   1.151   9.631  0.5394 -0.3262  1.6565
  147SAPE   C2916217   4.601   1.080   9.477  0.3265  0.0529  0.5925
  147SAPE   H9R16218   4.580   1.173   9.421 -4.0822 -0.9398  0.2432
  147SAPE  C21016219   4.702   0.975   9.425  0.4562 -0.3539 -0.2040
  147SAPE  H10R16220   4.653   0.877   9.408  0.0537 -0.1473 -0.2241
  147SAPE  H10S16221   4.772   0.957   9.510  0.3985 -0.8921 -0.2649
  147SAPE  C21116222   4.762   1.026   9.297 -0.0923 -0.1668 -0.9575
  147SAPE  H11R16223   4.846   1.097   9.306 -0.9069  0.6773  0.3432
  147SAPE  C21216224   4.746   0.972   9.177 -0.1796 -0.1462  0.4033
  147SAPE  H12R16225   4.809   1.006   9.093 -0.8458  0.2851  0.0734
  147SAPE  C21316226   4.674   0.848   9.133  0.2077 -0.1356 -0.3711
  147SAPE  H13R16227   4.704   0.771   9.206 -0.0345  2.2849  2.4687
  147SAPE  H13S16228   4.713   0.809   9.036  0.6171  0.2629 -0.3720
  147SAPE  C21416229   4.521   0.861   9.123  0.0516  0.3030  0.2966
  147SAPE  H14R16230   4.478   0.859   9.224 -2.6696 -0.9324 -0.7693
  147SAPE  C21516231   4.442   0.886   9.016  0.2222 -0.0615  0.1702
  147SAPE  H15R16232   4.334   0.904   9.030  0.0098 -0.0644 -1.2496
  147SAPE  C21616233   4.493   0.895   8.873  0.0198 -0.4350 -0.4551
  147SAPE  H16R16234   4.474   0.801   8.818 -1.4775 -0.5506  0.2315
  147SAPE  H16S16235   4.602   0.918   8.867 -0.3600  1.1537 -2.2008
  147SAPE  C21716236   4.412   1.011   8.802 -0.6613  0.3160 -0.8564
  147SAPE  H17R16237   4.304   0.987   8.812 -0.6967  0.7210 -0.2393
  147SAPE  H17S16238   4.438   1.003   8.694  0.1323 -0.2209 -0.6368
  147SAPE  C21816239   4.450   1.148   8.863  0.9174  0.0368 -0.7716
  147SAPE  H18R16240   4.449   1.137   8.974  2.0239  0.3985 -0.7139
  147SAPE  H18S16241   4.377   1.227   8.835  1.9310  0.5000 -2.2447
  147SAPE  C21916242   4.588   1.203   8.821 -0.1696  0.0604 -0.9502
  147SAPE  H19R16243   4.591   1.218   8.711  0.0695  1.9140 -0.7318
  147SAPE  H19S16244   4.654   1.116   8.838 -0.6594  0.1760  2.3277
  147SAPE  C22016245   4.627   1.327   8.894  0.3941 -0.3256  0.4533
  147SAPE  H20R16246   4.577   1.422   8.864 -1.8504 -0.9814  1.8529
  147SAPE  H20S16247   4.733   1.355   8.881  0.3940  0.0448  1.1698
  147SAPE  H20T16248   4.596   1.311   9.000 -0.1965  1.0989  0.5257
  147SAPE   C3316249   4.884   1.472  10.335 -0.4369  0.3735 -0.4712
  147SAPE   H3X16250   4.931   1.373  10.320 -0.5727  0.1814  0.2934
  147SAPE   H3Y16251   4.967   1.546  10.333  1.1741 -1.2568  1.2027
  147SAPE   C3416252   4.779   1.500  10.221  0.4769 -0.9198 -0.1731
  147SAPE   H4X16253   4.731   1.595  10.251 -0.1377 -1.6461  1.2533
  147SAPE   H4Y16254   4.698   1.425  10.207 -0.4599  0.0871 -0.2860
  147SAPE   C3516255   4.841   1.491  10.078 -0.1160  0.2003 -0.6407
  147SAPE   H5X16256   4.857   1.383  10.057  1.6831  0.1349  0.8275
  147SAPE   H5Y16257   4.942   1.536  10.075  1.0431 -2.1652  0.3983
  147SAPE   C3616258   4.762   1.552   9.963 -0.3682 -0.5194  0.1210
  147SAPE   H6X16259   4.758   1.661   9.984 -0.8155 -0.1769 -1.5849
  147SAPE   H6Y16260   4.662   1.506   9.972  0.0254 -1.3014  0.6814
  147SAPE   C3716261   4.831   1.531   9.825  0.4399 -0.2130 -0.2433
  147SAPE   H7X16262   4.835   1.422   9.804  2.0689  0.1873 -2.3681
  147SAPE   H7Y16263   4.936   1.566   9.826  0.8826 -1.3706  2.5834
  147SAPE   C3816264   4.761   1.612   9.711  0.2436  0.1704  0.2331
  147SAPE   H8X16265   4.764   1.720   9.738 -0.3066  0.6315 -1.4091
  147SAPE   H8Y16266   4.653   1.587   9.710  0.4675 -0.8546 -0.3583
  147SAPE   C3916267   4.818   1.596   9.573  0.1157  0.1666  0.6489
  147SAPE   H9X16268   4.769   1.676   9.513 -3.7725 -0.2040  2.9861
  147SAPE   H9Y16269   4.789   1.504   9.518  0.9181  0.5533 -0.4768
  147SAPE  C31016270   4.968   1.614   9.569  0.0604 -0.8480  0.1834
  147SAPE  H10X16271   5.011   1.537   9.635  0.6359 -1.3982 -0.8102
  147SAPE  H10Y16272   4.987   1.714   9.614 -2.7620 -1.0902  2.1737
  147SAPE  C31116273   5.028   1.607   9.427 -0.1502  0.0852 -0.2691
  147SAPE  H11X16274   5.138   1.608   9.440 -0.2688  1.0427  0.8066
  147SAPE  H11Y16275   5.006   1.700   9.370  0.2311  0.1306 -0.3447
  147SAPE  C31216276   4.996   1.478   9.348 -0.3433  0.0957 -0.9159
  147SAPE  H12X16277   4.886   1.476   9.332 -0.0489 -0.2987 -3.2406
  147SAPE  H12Y16278   5.027   1.387   9.405 -1.0704  0.7890  0.6498
  147SAPE  C31316279   5.051   1.476   9.208 -0.1774  0.3414 -0.2793
  147SAPE  H13X16280   5.160   1.459   9.218 -0.4551 -0.7881  1.3165
  147SAPE  H13Y16281   5.022   1.575   9.166  0.5624  0.7511  0.1474
  147SAPE  C31416282   4.996   1.367   9.116  0.4273  0.0602 -0.4887
  147SAPE  H14X16283   4.889   1.367   9.088  0.7775 -2.0643 -2.1146
  147SAPE  H14Y16284   5.014   1.277   9.179  0.7933 -0.8692 -1.8708
  147SAPE  C31516285   5.081   1.332   8.993  0.4674 -1.0567 -0.4649
  147SAPE  H15X16286   5.055   1.229   8.962 -1.2747 -0.6844 -0.3544
  147SAPE  H15Y16287   5.185   1.334   9.032 -0.0950  0.1647  1.0873
  147SAPE  C31616288   5.079   1.428   8.869  0.4162 -1.2838  0.2285
  147SAPE  H16X16289   5.107   1.529   8.904  0.7963 -1.1830 -0.3525
  147SAPE  H16Y16290   4.973   1.431   8.835  0.0754  1.5756  1.3185
  147SAPE  C31716291   5.171   1.368   8.764  0.3342  0.2048  0.0969
  147SAPE  H17X16292   5.149   1.402   8.660 -0.7835  2.4661  0.9969
  147SAPE  H17Y16293   5.161   1.258   8.768 -0.2137  0.2453 -0.1451
  147SAPE  C31816294   5.316   1.396   8.788  0.0749 -0.2764  0.8222
  147SAPE  H18X16295   5.330   1.501   8.824 -0.3198  0.4854 -1.1118
  147SAPE  H18Y16296   5.376   1.391   8.694 -1.2560 -0.6041 -0.0265
  147SAPE  H18Z16297   5.372   1.331   8.858 -0.6380 -1.4335  0.3291
  148SAPE     N16298   6.492   2.703  10.650  0.1459  0.2372 -0.1190
  148SAPE   HN116299   6.511   2.632  10.577 -0.6144 -1.9348  1.6975
  148SAPE   HN216300   6.537   2.790  10.614 -0.8632  0.3416 -1.1866
  148SAPE   HN316301   6.538   2.680  10.741  0.4508  2.8516  0.4749
  148SAPE   C1216302   6.345   2.723  10.661  0.0459  0.6806  0.2905
  148SAPE  H12A16303   6.331   2.796  10.743  1.2759 -0.2773  1.4181
  148SAPE  H12B16304   6.293   2.632  10.698  2.9785 -1.9590 -1.5394
  148SAPE   C1116305   6.290   2.778  10.525  0.4738  0.3499  0.2506
  148SAPE  H11A16306   6.179   2.791  10.523  0.5385  1.0429  0.7255
  148SAPE  H11B16307   6.307   2.700  10.448  1.2111  1.1962 -0.4592
  148SAPE     P16308   6.322   3.036  10.547  0.1966 -0.2600  0.3203
  148SAPE   O1316309   6.408   3.056  10.669 -0.3554  0.3470  0.6189
  148SAPE   O1416310   6.319   3.133  10.433  0.3000 -0.1268 -0.3543
  148SAPE   O1216311   6.356   2.896  10.482 -0.0099 -0.3554  0.0734
  148SAPE   O1116312   6.180   3.006  10.597  0.2787 -0.2897 -0.2294
  148SAPE    C116313   6.060   3.065  10.546 -1.0816 -0.0994 -0.3669
  148SAPE    HA16314   5.975   3.061  10.618  0.4895 -0.0542  1.5730
  148SAPE    HB16315   6.068   3.171  10.511 -2.5181 -0.2045 -1.0872
  148SAPE    C216316   6.005   2.988  10.417 -0.4746  0.7596  0.0073
  148SAPE    HS16317   6.009   2.880  10.443 -1.1065  0.9453  0.9334
  148SAPE   O2116318   6.083   3.017  10.299 -0.2287 -0.0646  0.2836
  148SAPE   C2116319   6.120   2.905  10.231 -0.0966  0.1467 -0.6111
  148SAPE   O2216320   6.102   2.788  10.259 -0.5717 -0.3927  0.3293
  148SAPE   C2216321   6.201   2.943  10.108  0.4662 -0.0127 -0.1248
  148SAPE   H2R16322   6.252   3.041  10.113 -0.4877  0.4753  0.4353
  148SAPE   H2S16323   6.278   2.864  10.095 -0.1491 -0.2109 -3.3171
  148SAPE    C316324   5.849   3.011  10.396  0.0527 -0.4641  0.4825
  148SAPE    HX16325   5.803   2.972  10.489 -0.1488  0.0924  0.6151
  148SAPE    HY16326   5.806   2.946  10.317  1.2994 -0.4504 -0.2437
  148SAPE   O3116327   5.819   3.151  10.383  0.0219 -0.8166  0.4293
  148SAPE   C3116328   5.694   3.187  10.349 -0.4401  0.0437 -0.2056
  148SAPE   O3216329   5.612   3.104  10.318 -0.0704 -0.3060 -0.3259
  148SAPE   C3216330   5.682   3.337  10.352 -0.3229  0.1019 -0.0884
  148SAPE   H2X16331   5.743   3.379  10.270 -0.8807  1.2244  0.0467
  148SAPE   H2Y16332   5.726   3.375  10.447  0.3324  2.2331 -1.2068
  148SAPE   C2316333   6.109   2.958   9.983  0.2535 -0.2552  0.4960
  148SAPE   H3R16334   6.023   3.025  10.005  0.7548  0.3746  0.5486
  148SAPE   H3S16335   6.075   2.861   9.939  2.5768 -0.7146 -0.4296
  148SAPE   C2416336   6.176   3.020   9.871 -0.2122 -0.6646 -0.2210
  148SAPE   H4R16337   6.272   2.965   9.857  1.5975  2.3727 -0.6547
  148SAPE   H4S16338   6.206   3.124   9.899  0.7935 -1.1678  0.6520
  148SAPE   C2516339   6.100   3.032   9.741 -0.5434  0.1040 -0.1121
  148SAPE   H5R16340   6.001   3.079   9.750  0.2962  1.5723  3.1898
  148SAPE   C2616341   6.143   2.990   9.620  0.4946 -0.3802  0.1754
  148SAPE   H6R16342   6.082   3.013   9.531 -2.3849  3.2627  2.7596
  148SAPE   C2716343   6.267   2.917   9.582 -0.0270  0.5310  0.4249
  148SAPE   H7R16344   6.348   2.915   9.658  1.3212  1.2906 -0.9024
  148SAPE   H7S16345   6.315   2.962   9.492 -0.1266 -1.0313 -0.4436
  148SAPE   C2816346   6.240   2.775   9.554 -0.2160  0.7400  0.0011
  148SAPE   H8R16347   6.213   2.723   9.647  1.5703  0.2932  0.2905
  148SAPE   C2916348   6.260   2.712   9.437  0.4154  0.0034  0.4366
  148SAPE   H9R16349   6.233   2.606   9.430 -1.3206  0.4681 -0.3578
  148SAPE  C21016350   6.310   2.778   9.309  0.9144  0.8431  0.8551
  148SAPE  H10R16351   6.339   2.700   9.236 -0.8540  0.6604  0.2921
  148SAPE  H10S16352   6.398   2.834   9.347  0.0442  2.1154  1.0687
  148SAPE  C21116353   6.210   2.872   9.250  0.2640  0.2745  0.2138
  148SAPE  H11R16354   6.127   2.909   9.313 -0.4484  0.6503 -0.9075
  148SAPE  C21216355   6.188   2.899   9.120  0.1395  0.2161 -1.3348
  148SAPE  H12R16356   6.120   2.983   9.101  0.7249  0.9162 -0.4497
  148SAPE  C21316357   6.275   2.836   9.009  0.7657 -0.7149  0.2655
  148SAPE  H13R16358   6.301   2.730   9.030  1.8770 -0.9625 -2.0030
  148SAPE  H13S16359   6.369   2.895   9.003 -0.6852  1.8145  0.8711
  148SAPE  C21416360   6.205   2.853   8.873  0.3048  0.5577 -0.0440
  148SAPE  H14R16361   6.104   2.812   8.858  0.3139  1.2628 -2.4408
  148SAPE  C21516362   6.272   2.899   8.762  0.0547  0.0056 -0.0208
  148SAPE  H15R16363   6.215   2.914   8.669 -1.1126 -1.4790  0.4219
  148SAPE  C21616364   6.413   2.959   8.757 -0.2526 -0.5969 -0.3911
  148SAPE  H16R16365   6.474   2.883   8.704  1.9495  1.5023 -1.0481
  148SAPE  H16S16366   6.457   2.985   8.856 -0.0681 -2.2424 -0.0135
  148SAPE  C21716367   6.407   3.087   8.667 -0.3287  0.8453 -0.1829
  148SAPE  H17R16368   6.498   3.146   8.691  0.7003 -0.7302 -0.1147
  148SAPE  H17S16369   6.328   3.153   8.709 -2.7236 -2.0345  0.1602
  148SAPE  C21816370   6.401   3.058   8.518  0.0314 -0.1260  0.0969
  148SAPE  H18R16371   6.296   3.032   8.493  0.4755 -1.9296 -0.0830
  148SAPE  H18S16372   6.476   2.982   8.487  0.7908  0.0569  1.4027
  148SAPE  C21916373   6.432   3.187   8.427 -0.8704  0.3920  0.1205
  148SAPE  H19R16374   6.368   3.269   8.467  0.3354  0.9995  0.8607
  148SAPE  H19S16375   6.395   3.156   8.327  0.3671  0.0892 -0.2516
  148SAPE  C22016376   6.573   3.227   8.423  0.0727 -0.7118 -0.0730
  148SAPE  H20R16377   6.620   3.241   8.523 -1.4940  3.3624  0.2735
  148SAPE  H20S16378   6.575   3.320   8.363 -0.0317 -0.5849  0.1202
  148SAPE  H20T16379   6.634   3.148   8.374 -1.4963 -2.3985  0.5653
  148SAPE   C3316380   5.528   3.393  10.340 -0.1314  0.1547  0.5841
  148SAPE   H3X16381   5.514   3.436  10.441  1.9360  0.7513  0.6743
  148SAPE   H3Y16382   5.453   3.314  10.356 -0.4849  0.6031  1.1648
  148SAPE   C3416383   5.505   3.486  10.221  0.2070  0.2091 -0.0743
  148SAPE   H4X16384   5.586   3.561  10.211  0.5888 -0.4678 -2.9167
  148SAPE   H4Y16385   5.409   3.536  10.242  0.1994  0.3558 -0.4536
  148SAPE   C3516386   5.482   3.414  10.086  0.2911  0.2172  0.0348
  148SAPE   H5X16387   5.408   3.331  10.084 -0.5894  0.9212  1.5259
  148SAPE   H5Y16388   5.574   3.375  10.038 -0.7725  0.2754 -2.1667
  148SAPE   C3616389   5.428   3.503   9.979  1.0701 -0.5031  0.5743
  148SAPE   H6X16390   5.493   3.591   9.960 -1.6181  1.9618  1.9400
  148SAPE   H6Y16391   5.326   3.532  10.013  1.5606  1.2287  0.6910
  148SAPE   C3716392   5.426   3.432   9.848 -0.2507  0.2627  0.1923
  148SAPE   H7X16393   5.368   3.337   9.859 -1.1049  0.8252  0.6532
  148SAPE   H7Y16394   5.523   3.408   9.800 -0.4135 -0.8549  0.3901
  148SAPE   C3816395   5.357   3.513   9.730  0.2296  0.9046 -0.8942
  148SAPE   H8X16396   5.409   3.611   9.725  0.9718  0.5088 -1.1830
  148SAPE   H8Y16397   5.254   3.534   9.764  0.4763 -2.5992  2.7205
  148SAPE   C3916398   5.354   3.434   9.596  0.2684  0.0028 -0.4394
  148SAPE   H9X16399   5.316   3.332   9.619 -0.5246 -0.7659 -4.4272
  148SAPE   H9Y16400   5.458   3.427   9.557  0.6093  0.5356  0.3574
  148SAPE  C31016401   5.272   3.519   9.499 -0.1959 -0.1682 -0.1703
  148SAPE  H10X16402   5.332   3.607   9.469  0.6998 -1.2635 -1.7249
  148SAPE  H10Y16403   5.173   3.547   9.543 -1.5577 -1.3828 -2.2677
  148SAPE  C31116404   5.250   3.438   9.368  0.1564 -0.4946  0.2991
  148SAPE  H11X16405   5.198   3.341   9.382 -2.1461  0.4300 -1.1901
  148SAPE  H11Y16406   5.349   3.423   9.320 -1.0917 -2.9969 -1.7490
  148SAPE  C31216407   5.144   3.512   9.283  0.4989  0.4138 -0.3498
  148SAPE  H12X16408   5.186   3.613   9.263 -0.9329  0.9821 -0.6053
  148SAPE  H12Y16409   5.050   3.539   9.335  0.5677  0.9292 -0.4847
  148SAPE  C31316410   5.126   3.454   9.141  0.3461 -0.0942  0.1247
  148SAPE  H13X16411   5.119   3.344   9.141  0.5990 -0.1155  0.9233
  148SAPE  H13Y16412   5.215   3.485   9.082 -0.2901  1.4376 -0.0818
  148SAPE  C31416413   5.007   3.502   9.063 -0.3044  0.4185  0.1696
  148SAPE  H14X16414   5.029   3.611   9.054 -0.3192  0.2761 -2.3771
  148SAPE  H14Y16415   4.914   3.498   9.124 -0.0841 -1.0471  0.4384
  148SAPE  C31516416   4.994   3.443   8.926  0.2431  0.0169 -0.1295
  148SAPE  H15X16417   4.900   3.487   8.885 -0.4603  0.1590  1.5585
  148SAPE  H15Y16418   4.974   3.337   8.949  1.3035 -0.1693 -0.0176
  148SAPE  C31616419   5.115   3.438   8.833 -0.5888  0.2003 -0.8793
  148SAPE  H16X16420   5.192   3.370   8.876 -1.4854  0.7474  1.7729
  148SAPE  H16Y16421   5.165   3.537   8.841 -0.8473  0.3531 -1.1280
  148SAPE  C31716422   5.091   3.409   8.686  1.0147  0.1801  0.0711
  148SAPE  H17X16423   5.008   3.338   8.668  1.2991  0.2031 -1.4245
  148SAPE  H17Y16424   5.182   3.356   8.649  0.2146 -0.8093 -0.5276
  148SAPE  C31816425   5.085   3.531   8.611  0.3486 -0.4108  0.1384
  148SAPE  H18X16426   5.094   3.510   8.502 -1.8005  1.2715 -0.4406
  148SAPE  H18Y16427   5.174   3.597   8.625 -0.4868  0.9794 -0.9148
  148SAPE  H18Z16428   5.007   3.602   8.647  0.2684 -0.2097 -0.4134
  149SAPE     N16429   1.884   5.980  11.099 -0.1260 -0.5525  0.0212
  149SAPE   HN116430   1.961   5.962  11.032  0.1966  1.9160 -0.3580
  149SAPE   HN216431   1.819   6.048  11.056  0.1450 -0.2771  0.0427
  149SAPE   HN316432   1.926   6.022  11.185 -0.3239 -0.0374 -0.1310
  149SAPE   C1216433   1.812   5.854  11.125 -0.3790 -0.1478 -0.1612
  149SAPE  H12A16434   1.776   5.851  11.230  2.3726 -2.7711  0.8611
  149SAPE  H12B16435   1.884   5.771  11.115 -0.3978  0.0062 -1.8817
  149SAPE   C1116436   1.694   5.846  11.028  0.5757 -0.5132  0.0791
  149SAPE  H11A16437   1.631   5.760  11.059  2.8548 -2.1633  0.4434
  149SAPE  H11B16438   1.737   5.827  10.927  1.9715  2.9351 -0.1149
  149SAPE     P16439   1.461   5.983  11.054  0.5631  0.1257 -0.0210
  149SAPE   O1316440   1.431   5.978  11.201  0.3453 -0.3679  0.3496
  149SAPE   O1416441   1.417   6.106  10.987  0.3426 -0.4948  0.5066
  149SAPE   O1216442   1.616   5.967  11.033 -0.3127 -0.4505 -0.1260
  149SAPE   O1116443   1.406   5.856  10.984 -0.4630 -0.2817  0.2800
  149SAPE    C116444   1.362   5.836  10.850 -0.1359  0.3511  0.7329
  149SAPE    HA16445   1.262   5.882  10.844 -0.8405 -1.3411 -2.3026
  149SAPE    HB16446   1.430   5.894  10.784  1.0330  0.0054  1.6022
  149SAPE    C216447   1.357   5.686  10.810  0.3478  0.1625  0.3797
  149SAPE    HS16448   1.447   5.658  10.752 -1.9553 -2.7112 -2.1249
  149SAPE   O2116449   1.240   5.644  10.737  0.0307 -0.2330  1.1395
  149SAPE   C2116450   1.263   5.651  10.606 -0.5041  0.0806  0.1436
  149SAPE   O2216451   1.371   5.663  10.548  0.0727  0.5996 -0.1872
  149SAPE   C2216452   1.124   5.640  10.544 -0.6544 -0.7623  0.6584
  149SAPE   H2R16453   1.077   5.541  10.563 -1.8180 -0.4179 -0.3107
  149SAPE   H2S16454   1.059   5.717  10.592 -2.2919 -1.7768  0.1342
  149SAPE    C316455   1.367   5.592  10.931  0.1385 -0.9127 -0.3729
  149SAPE    HX16456   1.278   5.610  10.995  0.1913 -0.9975 -0.2754
  149SAPE    HY16457   1.463   5.610  10.983  1.5945  1.6714 -3.5996
  149SAPE   O3116458   1.358   5.458  10.880  0.3640  0.6164  0.5780
  149SAPE   C3116459   1.338   5.367  10.963 -0.6964 -0.4530 -0.0727
  149SAPE   O3216460   1.315   5.380  11.080  0.3708  0.7095  0.0007
  149SAPE   C3216461   1.358   5.236  10.890  0.0694  0.5391 -0.3078
  149SAPE   H2X16462   1.381   5.157  10.964 -0.9752  0.7524  0.2716
  149SAPE   H2Y16463   1.448   5.239  10.825  1.2917 -2.3228  1.1286
  149SAPE   C2316464   1.125   5.691  10.397 -0.0824 -0.1866  0.6580
  149SAPE   H3R16465   1.180   5.625  10.327  0.3494  0.1443  0.6779
  149SAPE   H3S16466   1.181   5.786  10.385  0.1041 -0.3471  0.2395
  149SAPE   C2416467   0.984   5.716  10.333 -0.4013  0.2507  0.3985
  149SAPE   H4R16468   0.996   5.786  10.247 -1.9066  0.9211  0.7046
  149SAPE   H4S16469   0.934   5.780  10.409 -2.0305 -1.1911  0.5921
  149SAPE   C2516470   0.900   5.593  10.303  0.3618 -0.1258 -0.1170
  149SAPE   H5R16471   0.846   5.555  10.391  1.4316  1.6519  1.3891
  149SAPE   C2616472   0.895   5.531  10.187  0.7112 -0.0059 -0.1046
  149SAPE   H6R16473   0.829   5.444  10.175  0.5556  0.3667 -2.4131
  149SAPE   C2716474   0.972   5.575  10.063 -0.1061 -0.1818  0.2641
  149SAPE   H7R16475   1.020   5.673  10.082 -0.7673  0.3352 -0.6606
  149SAPE   H7S16476   0.902   5.585   9.977  1.0156 -2.2072 -0.9696
  149SAPE   C2816477   1.078   5.474  10.009 -0.5977  0.2796 -0.7383
  149SAPE   H8R16478   1.169   5.454  10.067 -0.7267 -2.5700 -1.3532
  149SAPE   C2916479   1.081   5.414   9.896 -0.0857  0.3316  0.1395
  149SAPE   H9R16480   1.166   5.345   9.884 -0.2473 -0.3521  2.4586
  149SAPE  C21016481   0.984   5.420   9.779 -0.1801 -0.3630 -0.2787
  149SAPE  H10R16482   0.886   5.444   9.826 -1.0490 -1.6529 -1.3466
  149SAPE  H10S16483   0.979   5.315   9.744 -0.4093 -0.7005  0.7409
  149SAPE  C21116484   1.012   5.531   9.674 -0.3064  0.3036  0.2247
  149SAPE  H11R16485   1.064   5.623   9.706  0.2723  0.3323 -0.7763
  149SAPE  C21216486   0.992   5.507   9.544 -0.5228 -0.7422  0.2453
  149SAPE  H12R16487   1.005   5.597   9.483 -0.0241  0.1443  1.5979
  149SAPE  C21316488   0.953   5.386   9.466 -0.3554 -0.2428 -0.0090
  149SAPE  H13R16489   0.880   5.407   9.384  0.0561 -2.2632 -0.9569
  149SAPE  H13S16490   0.906   5.314   9.537 -1.7534 -0.0847 -0.7273
  149SAPE  C21416491   1.070   5.318   9.403 -0.1125  0.3627 -0.9563
  149SAPE  H14R16492   1.141   5.287   9.481 -1.6542  0.1652  0.4288
  149SAPE  C21516493   1.120   5.329   9.275  0.0834 -0.4601  0.3011
  149SAPE  H15R16494   1.214   5.278   9.249  1.1280  2.0251 -1.2058
  149SAPE  C21616495   1.061   5.414   9.162 -0.2374  0.4084  0.8230
  149SAPE  H16R16496   1.123   5.500   9.131  0.0942 -0.5716 -1.4258
  149SAPE  H16S16497   0.961   5.449   9.196 -0.6417 -0.3699  0.4709
  149SAPE  C21716498   1.019   5.346   9.028  0.2603  0.2118 -0.6366
  149SAPE  H17R16499   0.942   5.403   8.973 -1.2440  1.0123  2.1050
  149SAPE  H17S16500   0.981   5.247   9.060  2.0688 -0.1334  0.6290
  149SAPE  C21816501   1.137   5.331   8.942 -0.5488 -0.3122  0.2795
  149SAPE  H18R16502   1.211   5.258   8.984  2.0361  1.0081 -1.6444
  149SAPE  H18S16503   1.200   5.422   8.930 -1.4766  0.1366 -1.6253
  149SAPE  C21916504   1.101   5.276   8.805 -0.4538 -0.2485  0.8335
  149SAPE  H19R16505   1.032   5.347   8.755  0.4523 -1.1601 -1.9421
  149SAPE  H19S16506   1.054   5.176   8.819 -0.3237 -0.4745 -0.2577
  149SAPE  C22016507   1.223   5.255   8.707 -0.2674  0.1342  0.5957
  149SAPE  H20R16508   1.288   5.171   8.738 -1.2367 -0.7874  0.2066
  149SAPE  H20S16509   1.286   5.346   8.697 -1.8658  1.2598  0.3331
  149SAPE  H20T16510   1.181   5.235   8.606  2.4685 -1.0295 -0.4190
  149SAPE   C3316511   1.230   5.190  10.819 -0.5933 -0.4318 -0.5595
  149SAPE   H3X16512   1.143   5.188  10.889 -0.0322 -1.4551  0.1252
  149SAPE   H3Y16513   1.255   5.086  10.790  0.4907 -0.8534  1.6531
  149SAPE   C3416514   1.202   5.273  10.687 -0.3848  0.2842  0.3394
  149SAPE   H4X16515   1.301   5.275  10.636 -0.3047 -1.3643  0.3559
  149SAPE   H4Y16516   1.168   5.372  10.722  0.4537  0.9172 -0.5672
  149SAPE   C3516517   1.099   5.209  10.592 -0.4212 -0.2323  0.7233
  149SAPE   H5X16518   0.998   5.225  10.635 -0.8293  0.5007 -0.4391
  149SAPE   H5Y16519   1.127   5.101  10.596  2.4354  0.3637 -0.3456
  149SAPE   C3616520   1.097   5.260  10.453 -0.1435 -0.0592  0.3929
  149SAPE   H6X16521   1.196   5.273  10.405 -0.8491  2.0093 -0.5999
  149SAPE   H6Y16522   1.040   5.355  10.447  0.4082  0.3210  1.1183
  149SAPE   C3716523   1.025   5.151  10.365 -0.5670  0.1496  0.0687
  149SAPE   H7X16524   0.917   5.148  10.390 -0.9139 -2.4500 -1.4502
  149SAPE   H7Y16525   1.063   5.051  10.394 -0.2957  0.1403 -0.3173
  149SAPE   C3816526   1.030   5.171  10.212 -0.2908  0.0915  0.2228
  149SAPE   H8X16527   1.127   5.223  10.197 -0.2083 -0.3988 -1.0156
  149SAPE   H8Y16528   0.948   5.242  10.191  1.3581  2.0779  0.1417
  149SAPE   C3916529   1.018   5.050  10.121 -0.1942 -0.6991  0.8701
  149SAPE   H9X16530   0.918   5.001  10.129 -0.3968 -0.8728 -1.8952
  149SAPE   H9Y16531   1.095   4.976  10.151  0.7179 -0.2032 -0.2059
  149SAPE  C31016532   1.036   5.091   9.968  0.4429 -0.2509  0.0284
  149SAPE  H10X16533   1.140   5.130   9.959  0.2862  0.8816  2.4419
  149SAPE  H10Y16534   0.965   5.173   9.944  0.1383 -0.6490 -0.4259
  149SAPE  C31116535   0.999   4.978   9.870  0.3578  0.1783 -0.7156
  149SAPE  H11X16536   0.888   4.979   9.869  0.3341 -0.8890  0.0819
  149SAPE  H11Y16537   1.031   4.882   9.915 -2.2226  0.7335  2.7581
  149SAPE  C31216538   1.050   5.001   9.729  0.8294 -0.0620 -0.0861
  149SAPE  H12X16539   1.161   4.998   9.724  0.7750 -2.7353 -3.5528
  149SAPE  H12Y16540   1.027   5.108   9.710  1.3342  0.4200  1.8053
  149SAPE  C31316541   0.988   4.919   9.621 -0.2612  0.4341  0.0476
  149SAPE  H13X16542   0.879   4.942   9.622 -0.2079  0.7855 -0.7661
  149SAPE  H13Y16543   0.993   4.811   9.646  0.8051  0.7020  1.0548
  149SAPE  C31416544   1.035   4.924   9.479 -0.6946  0.1157  0.7253
  149SAPE  H14X16545   0.980   5.000   9.420  1.3924  0.3150 -1.0790
  149SAPE  H14Y16546   1.004   4.824   9.442 -3.1204  1.2672 -0.6180
  149SAPE  C31516547   1.184   4.945   9.452 -0.2038  0.5198 -0.4461
  149SAPE  H15X16548   1.235   4.882   9.528 -1.0856 -1.8294 -1.6947
  149SAPE  H15Y16549   1.207   5.048   9.486  1.9910 -0.9533  3.1291
  149SAPE  C31616550   1.233   4.919   9.306  0.8615  1.0397 -0.1764
  149SAPE  H16X16551   1.173   4.982   9.237  1.8901 -0.4123 -2.4770
  149SAPE  H16Y16552   1.231   4.811   9.281  1.7429  0.3711  2.2614
  149SAPE  C31716553   1.379   4.955   9.283  0.2676  0.5990 -0.2749
  149SAPE  H17X16554   1.444   4.885   9.339 -2.4503  0.7758  3.5236
  149SAPE  H17Y16555   1.403   5.056   9.325 -0.2140 -0.1009  1.8359
  149SAPE  C31816556   1.418   4.970   9.129 -0.6884  0.0989  0.2932
  149SAPE  H18X16557   1.395   4.885   9.061 -0.2387  0.1483  0.0785
  149SAPE  H18Y16558   1.526   4.990   9.118 -1.4197  3.8061 -2.5646
  149SAPE  H18Z16559   1.367   5.060   9.087  0.1485 -0.0012 -0.9842
  150SAPE     N16560   2.153   5.655  10.904  0.7171  0.1689 -0.1590
  150SAPE   HN116561   2.120   5.754  10.913  1.5748  0.4742 -0.2532
  150SAPE   HN216562   2.084   5.605  10.963  2.0744  1.7536  2.9775
  150SAPE   HN316563   2.243   5.645  10.955  0.5956 -1.8693 -0.2667
  150SAPE   C1216564   2.137   5.600  10.769 -0.2130 -0.2706 -0.4137
  150SAPE  H12A16565   2.039   5.637  10.732  0.1045 -0.0225 -1.0160
  150SAPE  H12B16566   2.120   5.490  10.775 -0.8471 -0.2544 -1.6728
  150SAPE   C1116567   2.260   5.634  10.675 -0.4160  0.5691 -0.1842
  150SAPE  H11A16568   2.251   5.570  10.585 -0.3512 -1.2059  1.0138
  150SAPE  H11B16569   2.351   5.599  10.729 -0.2964  0.3772 -0.5086
  150SAPE     P16570   2.386   5.819  10.552  0.1562 -0.3365  0.2097
  150SAPE   O1316571   2.365   5.962  10.519  0.5459 -0.2961  0.4476
  150SAPE   O1416572   2.515   5.784  10.617  0.3068 -0.2622  0.0237
  150SAPE   O1216573   2.270   5.777  10.644  0.4271 -0.2308 -0.5208
  150SAPE   O1116574   2.361   5.735  10.421  0.2500 -0.2186  0.2610
  150SAPE    C116575   2.451   5.633  10.375 -0.2291 -0.9219  0.3348
  150SAPE    HA16576   2.463   5.556  10.455 -2.5929 -1.2595  0.4448
  150SAPE    HB16577   2.405   5.588  10.284  0.0844 -1.0619  0.2441
  150SAPE    C216578   2.586   5.693  10.328  0.4965 -0.7542 -0.2555
  150SAPE    HS16579   2.649   5.718  10.416  2.1699  0.5069 -1.7496
  150SAPE   O2116580   2.556   5.806  10.247  0.1265 -0.2044 -0.1754
  150SAPE   C2116581   2.654   5.902  10.233 -0.5373 -0.3580  0.5564
  150SAPE   O2216582   2.769   5.901  10.273 -0.7258 -0.8950 -0.4360
  150SAPE   C2216583   2.582   6.030  10.198  0.3603  0.1366  0.4012
  150SAPE   H2R16584   2.472   6.012  10.187  0.4893 -0.0547 -0.6908
  150SAPE   H2S16585   2.603   6.104  10.278  0.6601  0.8431 -0.3166
  150SAPE    C316586   2.671   5.592  10.251  0.2210  0.6111 -0.0834
  150SAPE    HX16587   2.706   5.509  10.317 -0.1044  1.4925  1.2164
  150SAPE    HY16588   2.766   5.641  10.219  1.9685 -1.4955  1.5257
  150SAPE   O3116589   2.595   5.540  10.133 -0.4201 -0.9350 -0.2453
  150SAPE   C3116590   2.567   5.414  10.134 -0.0776  0.2992 -0.5782
  150SAPE   O3216591   2.606   5.331  10.218 -0.4753  0.1983 -0.1127
  150SAPE   C3216592   2.495   5.362  10.007 -0.1593 -0.1971 -0.1203
  150SAPE   H2X16593   2.530   5.425   9.922 -1.3692  0.2553 -0.3015
  150SAPE   H2Y16594   2.387   5.388  10.008 -0.1466 -0.0445 -1.2952
  150SAPE   C2316595   2.642   6.081  10.067 -0.1938  0.5133 -0.2037
  150SAPE   H3R16596   2.748   6.100  10.097 -0.6401 -2.0353  3.6379
  150SAPE   H3S16597   2.594   6.178  10.045  0.4849  1.0605  0.6425
  150SAPE   C2416598   2.617   6.000   9.944  0.9720 -0.0371  0.6609
  150SAPE   H4R16599   2.636   5.892   9.959 -0.9466 -0.2934  1.5888
  150SAPE   H4S16600   2.691   6.023   9.865  0.3915 -1.1193 -0.2371
  150SAPE   C2516601   2.475   6.012   9.886 -0.2417 -0.1426 -0.3860
  150SAPE   H5R16602   2.409   6.034   9.971 -0.1307  0.9066 -0.5518
  150SAPE   C2616603   2.437   5.985   9.762  0.7700 -0.3909  0.6012
  150SAPE   H6R16604   2.331   5.970   9.740  0.7556  0.5801 -0.0205
  150SAPE   C2716605   2.528   5.954   9.647  0.1252  0.0549 -0.9043
  150SAPE   H7R16606   2.550   5.845   9.646  0.7937  0.1731 -0.1380
  150SAPE   H7S16607   2.625   6.007   9.659 -1.2872  2.7281 -0.4872
  150SAPE   C2816608   2.483   5.999   9.512 -0.2094  0.1013  0.1201
  150SAPE   H8R16609   2.393   6.062   9.517  0.3088  0.7671  1.5812
  150SAPE   C2916610   2.538   5.955   9.394  0.0272 -0.2074  0.0847
  150SAPE   H9R16611   2.503   6.003   9.302  3.8959  2.2644 -0.3347
  150SAPE  C21016612   2.658   5.868   9.382 -0.1977 -0.0757  0.1406
  150SAPE  H10R16613   2.667   5.793   9.464  3.0330 -0.8961 -0.8219
  150SAPE  H10S16614   2.745   5.930   9.413 -0.5648 -0.3469  1.8184
  150SAPE  C21116615   2.665   5.792   9.244  0.6499  0.4512 -0.0163
  150SAPE  H11R16616   2.564   5.780   9.202  0.9294  1.8582 -1.1694
  150SAPE  C21216617   2.763   5.723   9.190 -0.6815 -0.1819 -0.2241
  150SAPE  H12R16618   2.747   5.669   9.096 -0.4381 -2.8466  1.1816
  150SAPE  C21316619   2.902   5.718   9.247 -0.4196 -0.3528  0.2362
  150SAPE  H13R16620   2.904   5.639   9.325 -0.8914 -1.2522 -0.6379
  150SAPE  H13S16621   2.914   5.809   9.310 -2.5537  0.5573 -0.5631
  150SAPE  C21416622   3.014   5.696   9.154 -0.4722  0.3796  0.1222
  150SAPE  H14R16623   3.003   5.610   9.087  0.0395  0.9771 -0.7646
  150SAPE  C21516624   3.138   5.744   9.161  0.0889 -0.1113  0.1109
  150SAPE  H15R16625   3.208   5.712   9.082  0.5333  0.2517  0.3481
  150SAPE  C21616626   3.194   5.844   9.257 -0.9258 -0.2947  0.3945
  150SAPE  H16R16627   3.138   5.842   9.353 -1.8606  1.8237 -0.0385
  150SAPE  H16S16628   3.166   5.945   9.221 -2.8844 -1.0412 -0.3483
  150SAPE  C21716629   3.341   5.816   9.295 -0.9934 -0.2257  0.6074
  150SAPE  H17R16630   3.391   5.811   9.196  3.0069 -2.0501  2.4689
  150SAPE  H17S16631   3.349   5.714   9.339 -1.5498 -0.3467  0.4270
  150SAPE  C21816632   3.405   5.914   9.390  0.0068 -0.1424 -0.6084
  150SAPE  H18R16633   3.349   5.920   9.485 -1.1049 -1.0488 -1.1810
  150SAPE  H18S16634   3.412   6.019   9.353  0.6556 -0.4463 -1.3902
  150SAPE  C21916635   3.553   5.880   9.422  0.2736 -0.5058  0.9550
  150SAPE  H19R16636   3.608   5.966   9.466  1.6651 -2.2473  2.8146
  150SAPE  H19S16637   3.600   5.855   9.324  0.9594 -0.2419  1.2083
  150SAPE  C22016638   3.567   5.761   9.513 -0.1210 -0.5621 -0.1358
  150SAPE  H20R16639   3.489   5.686   9.487  1.3498 -2.2910  0.2364
  150SAPE  H20S16640   3.558   5.793   9.619  3.0776  1.8044 -0.4372
  150SAPE  H20T16641   3.663   5.706   9.502 -0.3529 -0.5860 -2.4017
  150SAPE   C3316642   2.513   5.216   9.977 -0.1860  0.5611 -0.4169
  150SAPE   H3X16643   2.470   5.141  10.047  0.7125 -0.4374 -0.9277
  150SAPE   H3Y16644   2.621   5.191   9.966 -0.1705  0.9284 -1.1579
  150SAPE   C3416645   2.451   5.170   9.841  0.2233 -0.5087  0.3800
  150SAPE   H4X16646   2.472   5.065   9.812  1.9503  0.1420 -0.8813
  150SAPE   H4Y16647   2.496   5.227   9.757  2.9485 -0.5392  1.6983
  150SAPE   C3516648   2.295   5.183   9.840  0.7126  0.3703  0.1107
  150SAPE   H5X16649   2.261   5.285   9.867  0.6522  0.3975 -0.0662
  150SAPE   H5Y16650   2.253   5.105   9.908  1.1687  1.0858  1.2329
  150SAPE   C3616651   2.238   5.160   9.697 -0.0483 -0.4522  0.2786
  150SAPE   H6X16652   2.288   5.229   9.626  0.8848 -0.9585  0.4203
  150SAPE   H6Y16653   2.132   5.194   9.688  0.0815 -0.3269 -1.0620
  150SAPE   C3716654   2.249   5.015   9.642 -0.1544 -0.4092  0.1298
  150SAPE   H7X16655   2.166   4.950   9.679 -0.2353 -0.0301  0.6325
  150SAPE   H7Y16656   2.345   4.965   9.665 -0.8455 -1.4661  0.8433
  150SAPE   C3816657   2.223   5.006   9.492 -0.0203  0.0067  0.0468
  150SAPE   H8X16658   2.124   5.048   9.465 -1.1075 -1.1512  1.9883
  150SAPE   H8Y16659   2.211   4.896   9.486 -2.0944  0.2146 -0.4454
  150SAPE   C3916660   2.343   5.062   9.407 -0.6677 -0.0929  0.5091
  150SAPE   H9X16661   2.436   5.024   9.453 -1.4319 -1.0902  1.2812
  150SAPE   H9Y16662   2.342   5.173   9.413  0.8862 -0.0628  0.4754
  150SAPE  C31016663   2.324   5.037   9.264  0.1682 -0.1353 -0.2613
  150SAPE  H10X16664   2.396   5.105   9.213  0.5002 -0.2303  0.0749
  150SAPE  H10Y16665   2.215   5.052   9.250  0.2063  3.3897  1.9422
  150SAPE  C31116666   2.351   4.889   9.226 -0.3550 -0.1317 -0.2373
  150SAPE  H11X16667   2.348   4.819   9.312 -2.0463 -1.0788 -1.0172
  150SAPE  H11Y16668   2.448   4.875   9.173  1.0149  0.3665  1.9995
  150SAPE  C31216669   2.232   4.839   9.135 -0.2916  0.1432  0.3055
  150SAPE  H12X16670   2.203   4.923   9.068  2.4321 -0.7923 -2.2549
  150SAPE  H12Y16671   2.150   4.807   9.202 -0.9508  1.9339  0.3921
  150SAPE  C31316672   2.291   4.720   9.057 -0.5745  0.4439 -0.1219
  150SAPE  H13X16673   2.344   4.656   9.131  1.7179  0.6177 -1.5097
  150SAPE  H13Y16674   2.374   4.751   8.990 -1.0058  0.2291 -0.7736
  150SAPE  C31416675   2.191   4.649   8.967 -0.7362  0.1534 -0.2281
  150SAPE  H14X16676   2.104   4.624   9.031  0.3338  0.5439  1.4390
  150SAPE  H14Y16677   2.235   4.556   8.926 -1.7560  0.1325 -1.3386
  150SAPE  C31516678   2.149   4.742   8.853 -0.0070  0.3690  1.0459
  150SAPE  H15X16679   2.222   4.770   8.774 -0.8687  2.6232  0.9729
  150SAPE  H15Y16680   2.092   4.828   8.894 -0.4893  1.2704 -1.3549
  150SAPE  C31616681   2.043   4.672   8.764  0.1233 -0.1666 -0.7734
  150SAPE  H16X16682   1.994   4.749   8.702 -1.9069  0.4543  1.4663
  150SAPE  H16Y16683   1.963   4.623   8.823 -0.0577 -1.1933 -1.8282
  150SAPE  C31716684   2.107   4.584   8.664  0.1020 -0.3483  0.3440
  150SAPE  H17X16685   2.182   4.524   8.720  1.8468  2.3407  1.0988
  150SAPE  H17Y16686   2.171   4.637   8.590  0.6145 -0.7637  0.4806
  150SAPE  C31816687   1.997   4.501   8.597  0.6924  0.6209 -0.9650
  150SAPE  H18X16688   1.936   4.574   8.540 -3.3276 -1.0577  0.7990
  150SAPE  H18Y16689   1.941   4.449   8.678  1.0824  2.3510  0.4952
  150SAPE  H18Z16690   2.033   4.420   8.531  1.4039 -0.3316  0.5247
  151SAPE     N16691   5.907   2.156  10.639 -0.0401 -0.0122 -0.1390
  151SAPE   HN116692   5.842   2.085  10.680  0.8921  0.8757  3.1888
  151SAPE   HN216693   5.999   2.148  10.687 -1.2227 -2.6210  2.0084
  151SAPE   HN316694   5.863   2.250  10.643 -1.1672 -0.5454  0.8203
  151SAPE   C1216695   5.925   2.146  10.493  0.5052 -0.4037 -0.3059
  151SAPE  H12A16696   5.823   2.127  10.452  0.7102  2.4440 -2.4331
  151SAPE  H12B16697   5.993   2.060  10.472 -1.3690 -1.4310 -2.7072
  151SAPE   C1116698   5.969   2.280  10.436  0.5501  0.1379 -0.2135
  151SAPE  H11A16699   5.893   2.358  10.458  0.8280 -0.3143  2.8468
  151SAPE  H11B16700   5.973   2.273  10.325  0.3151 -2.1520 -0.1095
  151SAPE     P16701   6.227   2.295  10.429 -0.2372 -0.2110 -0.5375
  151SAPE   O1316702   6.336   2.378  10.491  0.0699  0.2877  0.8386
  151SAPE   O1416703   6.242   2.147  10.439  0.3981  0.2243 -0.4398
  151SAPE   O1216704   6.095   2.327  10.492  0.4161 -0.3725 -0.4977
  151SAPE   O1116705   6.215   2.342  10.277  0.1921 -0.1062 -0.6643
  151SAPE    C116706   6.174   2.478  10.246 -0.5614 -0.0960 -0.1993
  151SAPE    HA16707   6.063   2.479  10.259 -0.5341 -2.7771  0.8023
  151SAPE    HB16708   6.222   2.553  10.313  0.3198 -0.6928 -0.1458
  151SAPE    C216709   6.207   2.505  10.104  0.5367 -0.4871  0.3566
  151SAPE    HS16710   6.160   2.603  10.078 -0.5954 -1.3997 -1.2960
  151SAPE   O2116711   6.152   2.404  10.018  0.4947  0.3561  0.0223
  151SAPE   C2116712   6.025   2.420   9.990  0.5078 -0.4010  0.0217
  151SAPE   O2216713   5.956   2.515  10.022  0.5864 -0.6656 -0.0137
  151SAPE   C2216714   5.986   2.306   9.895  0.6070 -0.2983  0.3155
  151SAPE   H2R16715   6.083   2.270   9.855  1.0506 -1.1803  2.0944
  151SAPE   H2S16716   5.930   2.238   9.962 -1.1412  2.1686  1.5158
  151SAPE    C316717   6.359   2.508  10.085  0.7450  0.2316  0.0655
  151SAPE    HX16718   6.397   2.421  10.143 -1.6236 -0.5205  0.6120
  151SAPE    HY16719   6.390   2.591  10.151 -1.1709  0.0562  1.2383
  151SAPE   O3116720   6.397   2.518   9.943 -0.4541 -0.3648 -0.2703
  151SAPE   C3116721   6.428   2.409   9.874  0.2726  0.7239  0.1982
  151SAPE   O3216722   6.405   2.296   9.910  0.2197  0.8252  0.0830
  151SAPE   C3216723   6.485   2.447   9.734 -0.4733 -0.0208 -0.3510
  151SAPE   H2X16724   6.595   2.452   9.747 -0.6174  1.3129  0.5715
  151SAPE   H2Y16725   6.440   2.547   9.714 -0.7317 -0.1707 -0.5254
  151SAPE   C2316726   5.889   2.338   9.781  0.5951 -0.2941 -0.0491
  151SAPE   H3R16727   5.802   2.399   9.814  0.2670 -0.5880 -0.3555
  151SAPE   H3S16728   5.848   2.237   9.757 -2.0440  0.5870  0.4783
  151SAPE   C2416729   5.939   2.396   9.654  0.1773  0.4659 -0.1257
  151SAPE   H4R16730   5.968   2.502   9.673 -2.3943  1.4337 -1.1587
  151SAPE   H4S16731   5.851   2.396   9.587  0.1376 -0.8974 -0.1072
  151SAPE   C2516732   6.048   2.312   9.587 -0.0575  0.1673  0.2735
  151SAPE   H5R16733   6.120   2.267   9.657  1.4258 -0.3263 -1.4820
  151SAPE   C2616734   6.070   2.290   9.451  0.3726 -0.2675  0.0242
  151SAPE   H6R16735   6.125   2.201   9.418 -0.9183 -1.2194  0.3721
  151SAPE   C2716736   5.973   2.329   9.339  0.4547 -0.6746  0.4586
  151SAPE   H7R16737   5.867   2.320   9.373  0.1243 -1.8256 -0.7800
  151SAPE   H7S16738   5.975   2.250   9.261  1.0270  0.7859 -1.0818
  151SAPE   C2816739   5.993   2.468   9.283 -0.2357 -0.4708  0.0945
  151SAPE   H8R16740   5.987   2.546   9.361  2.2131 -0.7362  0.6179
  151SAPE   C2916741   6.033   2.510   9.165  0.2214  0.1295  0.1002
  151SAPE   H9R16742   6.044   2.619   9.155  2.4228 -0.0587  0.1366
  151SAPE  C21016743   6.068   2.431   9.040 -0.0445  0.5567 -0.8481
  151SAPE  H10R16744   5.980   2.447   8.973 -1.2973 -0.7116  0.4019
  151SAPE  H10S16745   6.072   2.320   9.051  0.8422  0.4933 -1.6647
  151SAPE  C21116746   6.195   2.476   8.969 -0.2313  0.6031 -0.2751
  151SAPE  H11R16747   6.283   2.478   9.035  0.0733 -0.6159 -0.6224
  151SAPE  C21216748   6.214   2.497   8.842 -1.0918  0.2447  0.3935
  151SAPE  H12R16749   6.310   2.536   8.805 -0.4090 -2.9545 -1.6206
  151SAPE  C21316750   6.109   2.483   8.732 -0.3444  0.3321 -0.1493
  151SAPE  H13R16751   6.136   2.570   8.668 -0.1691  0.1967 -0.2615
  151SAPE  H13S16752   6.006   2.515   8.755  0.2838  0.4526  2.9087
  151SAPE  C21416753   6.118   2.350   8.659  1.0447 -0.2302  0.4135
  151SAPE  H14R16754   6.095   2.261   8.720  1.4885 -0.8247 -0.2740
  151SAPE  C21516755   6.161   2.333   8.530  0.0673 -0.2723 -0.8242
  151SAPE  H15R16756   6.152   2.233   8.484 -0.3866 -1.2168  1.1945
  151SAPE  C21616757   6.206   2.443   8.444 -0.0402  0.2289  0.5202
  151SAPE  H16R16758   6.139   2.532   8.449 -2.5570 -1.6044  1.7228
  151SAPE  H16S16759   6.199   2.416   8.336 -4.0688  0.2408  0.6066
  151SAPE  C21716760   6.356   2.470   8.449 -0.1720 -0.7196 -0.5525
  151SAPE  H17R16761   6.410   2.374   8.440  2.1452  0.1129  2.4071
  151SAPE  H17S16762   6.379   2.521   8.546  0.2893  0.6135 -1.3403
  151SAPE  C21816763   6.411   2.562   8.339  0.1559  0.1800  0.9158
  151SAPE  H18R16764   6.407   2.509   8.241  0.2050  4.3005 -1.5616
  151SAPE  H18S16765   6.520   2.580   8.349  0.8363 -1.5889 -2.1219
  151SAPE  C21916766   6.340   2.696   8.332  0.2124 -0.7411 -0.8608
  151SAPE  H19R16767   6.410   2.774   8.296 -0.6355 -0.5090 -2.0718
  151SAPE  H19S16768   6.301   2.721   8.433 -1.8151 -4.3444 -0.5686
  151SAPE  C22016769   6.221   2.700   8.239 -0.4065 -0.4708  0.5912
  151SAPE  H20R16770   6.249   2.718   8.133 -2.0913 -3.5401 -0.4898
  151SAPE  H20S16771   6.153   2.781   8.272  0.5056  1.7454 -2.5279
  151SAPE  H20T16772   6.168   2.602   8.246 -1.5159  0.0930  0.2994
  151SAPE   C3316773   6.439   2.345   9.630 -0.8564 -0.0299  0.1041
  151SAPE   H3X16774   6.328   2.346   9.625 -0.8284  0.2003 -0.5593
  151SAPE   H3Y16775   6.457   2.243   9.669 -0.0498 -0.2828 -0.9180
  151SAPE   C3416776   6.503   2.360   9.493  0.7139  0.0150 -0.3129
  151SAPE   H4X16777   6.611   2.333   9.497  0.5566 -0.5028  2.1313
  151SAPE   H4Y16778   6.488   2.466   9.462 -0.9286  0.2714  1.2169
  151SAPE   C3516779   6.441   2.265   9.387 -0.0999 -0.3581 -0.4256
  151SAPE   H5X16780   6.335   2.296   9.376 -0.2843 -1.1389 -1.0093
  151SAPE   H5Y16781   6.454   2.167   9.437 -1.3422  0.4135  1.5176
  151SAPE   C3616782   6.525   2.271   9.259  0.1816  0.7355 -0.8402
  151SAPE   H6X16783   6.629   2.239   9.282 -0.0309  2.1466  2.7730
  151SAPE   H6Y16784   6.548   2.375   9.227 -0.1091  1.5141  1.2971
  151SAPE   C3716785   6.452   2.195   9.137  0.7629 -0.2589  0.2803
  151SAPE   H7X16786   6.357   2.244   9.105  0.8118 -0.2107  0.2075
  151SAPE   H7Y16787   6.426   2.091   9.165  1.3406 -0.5861 -0.3494
  151SAPE   C3816788   6.542   2.191   9.016  0.3989  0.1433 -0.8820
  151SAPE   H8X16789   6.637   2.136   9.035 -0.8782 -2.1756 -0.8364
  151SAPE   H8Y16790   6.562   2.294   8.980 -0.7374  0.6460 -0.1030
  151SAPE   C3916791   6.466   2.111   8.908 -0.4005 -0.3863 -0.5041
  151SAPE   H9X16792   6.388   2.176   8.864 -0.6441 -1.5355 -1.8526
  151SAPE   H9Y16793   6.418   2.021   8.953 -0.4581 -0.4818 -0.7502
  151SAPE  C31016794   6.560   2.079   8.794  0.5122  0.0638  0.2115
  151SAPE  H10X16795   6.651   2.024   8.827 -1.2489 -1.2578  3.3130
  151SAPE  H10Y16796   6.597   2.180   8.764  0.4291 -0.2008 -0.7948
  151SAPE  C31116797   6.483   2.034   8.671  0.0196  0.0774  0.8633
  151SAPE  H11X16798   6.402   2.104   8.641 -0.9509 -1.8639 -1.3381
  151SAPE  H11Y16799   6.415   1.948   8.687  0.4499 -0.4878 -0.2303
  151SAPE  C31216800   6.570   2.010   8.554  0.3862  0.2471 -0.2587
  151SAPE  H12X16801   6.647   1.941   8.594  0.0587 -0.2890 -0.5445
  151SAPE  H12Y16802   6.615   2.109   8.529  0.8482  0.2872  0.6916
  151SAPE  C31316803   6.515   1.936   8.429  0.6156 -0.3511 -0.1549
  151SAPE  H13X16804   6.433   2.002   8.394  1.2468 -0.0420 -1.0841
  151SAPE  H13Y16805   6.463   1.844   8.464  0.3681  0.7907  2.8153
  151SAPE  C31416806   6.612   1.910   8.306 -0.5047 -0.5646  0.9443
  151SAPE  H14X16807   6.553   1.907   8.212  1.5502 -0.2044 -0.4256
  151SAPE  H14Y16808   6.663   1.813   8.320 -0.1967 -0.8121 -1.4198
  151SAPE  C31516809   6.726   2.021   8.287  0.1763 -0.1945 -0.3736
  151SAPE  H15X16810   6.791   2.006   8.376 -0.3959 -0.8105 -0.0497
  151SAPE  H15Y16811   6.683   2.123   8.295  2.7166  1.1561 -2.4956
  151SAPE  C31616812   6.815   2.001   8.158  0.8599  0.3834  0.9478
  151SAPE  H16X16813   6.760   2.014   8.062  2.2778 -1.5728 -0.2003
  151SAPE  H16Y16814   6.856   1.898   8.150 -0.3020 -0.0491  0.2666
  151SAPE  C31716815   6.933   2.096   8.157 -0.3112 -0.8114  0.1624
  151SAPE  H17X16816   6.988   2.072   8.250 -1.3224 -2.4542  0.3753
  151SAPE  H17Y16817   6.903   2.203   8.162  0.7208 -0.4780 -0.3608
  151SAPE  C31816818   7.020   2.071   8.027  0.0248  0.3130 -0.1071
  151SAPE  H18X16819   6.961   2.091   7.935  0.3164 -3.3177 -1.2375
  151SAPE  H18Y16820   7.032   1.961   8.013 -2.0282 -0.4768  3.2001
  151SAPE  H18Z16821   7.116   2.127   8.027 -1.0196  2.2173 -1.0970
  152SAPE     N16822   2.116   0.765  10.618  0.4527  0.5830 -0.2261
  152SAPE   HN116823   2.111   0.845  10.684 -1.6973  0.6277 -0.3612
  152SAPE   HN216824   2.069   0.793  10.530 -0.3385  0.5388  0.1783
  152SAPE   HN316825   2.065   0.684  10.660 -0.9374  1.9568  0.8716
  152SAPE   C1216826   2.248   0.729  10.558 -0.0743 -0.7299 -0.6122
  152SAPE  H12A16827   2.236   0.638  10.495  0.2945 -1.5881  0.5188
  152SAPE  H12B16828   2.327   0.706  10.633 -1.6626 -0.0327  1.3373
  152SAPE   C1116829   2.296   0.850  10.482  0.6578 -0.3324 -0.1419
  152SAPE  H11A16830   2.233   0.862  10.391 -0.4624 -2.3128  0.3118
  152SAPE  H11B16831   2.397   0.826  10.442  1.2533  2.4475 -0.4936
  152SAPE     P16832   2.429   1.024  10.625  0.4612  0.1151 -0.2351
  152SAPE   O1316833   2.411   1.172  10.647  0.0801  0.4525  0.2041
  152SAPE   O1416834   2.464   0.944  10.741 -0.6525  0.2456 -0.1250
  152SAPE   O1216835   2.290   0.975  10.551 -0.3353  0.0098  0.3996
  152SAPE   O1116836   2.536   0.999  10.518 -0.2171 -0.0273 -0.1559
  152SAPE    C116837   2.533   1.058  10.388  0.3335  0.2916 -0.2984
  152SAPE    HA16838   2.444   1.033  10.326 -0.3372  1.5953  0.1097
  152SAPE    HB16839   2.545   1.167  10.401  2.3371 -0.1257  1.9886
  152SAPE    C216840   2.651   1.006  10.301 -0.5746  0.2398  0.3280
  152SAPE    HS16841   2.740   1.060  10.339  0.8641 -1.4299 -0.5220
  152SAPE   O2116842   2.625   1.028  10.161  0.2316 -0.5199 -0.3606
  152SAPE   C2116843   2.630   1.157  10.127  0.4511  0.5206 -0.2437
  152SAPE   O2216844   2.680   1.249  10.187 -0.4913 -0.1556 -0.0758
  152SAPE   C2216845   2.558   1.183   9.989 -0.1591 -0.0483 -0.5110
  152SAPE   H2R16846   2.575   1.290   9.962  1.3845 -0.1202  0.0429
  152SAPE   H2S16847   2.604   1.124   9.907 -1.0819 -1.9067  0.2697
  152SAPE    C316848   2.677   0.852  10.325 -0.3217 -0.6038  0.5699
  152SAPE    HX16849   2.591   0.785  10.305 -1.7497  1.1594  0.5764
  152SAPE    HY16850   2.698   0.849  10.434  1.9584  0.3198  0.2159
  152SAPE   O3116851   2.792   0.813  10.249 -0.1823 -0.1378  0.1217
  152SAPE   C3116852   2.823   0.685  10.253 -0.6885 -0.5863  0.2929
  152SAPE   O3216853   2.758   0.604  10.311 -0.2389  0.2725 -0.5367
  152SAPE   C3216854   2.959   0.660  10.184  0.4600  0.1692  0.1519
  152SAPE   H2X16855   2.977   0.551  10.196  0.5428  0.2781  1.0861
  152SAPE   H2Y16856   3.042   0.712  10.237 -0.0550  2.0368 -0.8102
  152SAPE   C2316857   2.404   1.144  10.003 -0.4962  0.4187 -0.2615
  152SAPE   H3R16858   2.343   1.192  10.083 -0.7023 -1.5429  0.8113
  152SAPE   H3S16859   2.405   1.037  10.033 -0.1730  0.6368  0.5363
  152SAPE   C2416860   2.329   1.168   9.873  0.0200 -0.2857  0.1271
  152SAPE   H4R16861   2.223   1.136   9.872 -0.1004 -0.0662 -2.8364
  152SAPE   H4S16862   2.384   1.115   9.793  1.5309  1.8887 -0.3954
  152SAPE   C2516863   2.326   1.319   9.854  0.0436  0.2354  0.8917
  152SAPE   H5R16864   2.320   1.376   9.948 -1.5525 -0.7093  1.4118
  152SAPE   C2616865   2.346   1.382   9.733 -0.4182 -1.2924 -0.3644
  152SAPE   H6R16866   2.365   1.489   9.745  1.1412 -1.7796  2.4385
  152SAPE   C2716867   2.385   1.313   9.609 -0.0763  0.2135 -0.1769
  152SAPE   H7R16868   2.350   1.370   9.520  1.2562 -1.4430 -1.8488
  152SAPE   H7S16869   2.334   1.215   9.596  3.7661 -1.7250 -2.5131
  152SAPE   C2816870   2.536   1.289   9.599 -0.5690 -0.2474  0.2743
  152SAPE   H8R16871   2.578   1.221   9.675  0.4487  0.4233  0.3366
  152SAPE   C2916872   2.619   1.351   9.506  0.3243  0.1120 -0.0872
  152SAPE   H9R16873   2.726   1.328   9.518  0.1050 -0.9592 -0.1237
  152SAPE  C21016874   2.575   1.451   9.405  0.6876 -0.1583  0.3008
  152SAPE  H10R16875   2.656   1.526   9.390 -1.4451  2.3208  0.3792
  152SAPE  H10S16876   2.487   1.505   9.447  0.6255  0.3724 -0.4904
  152SAPE  C21116877   2.543   1.383   9.272  0.1215 -0.7503  0.7230
  152SAPE  H11R16878   2.444   1.337   9.253  0.5767 -1.7307  0.6719
  152SAPE  C21216879   2.635   1.366   9.176 -0.1239 -0.2911 -0.5171
  152SAPE  H12R16880   2.605   1.327   9.078 -1.5728  1.7025 -0.9270
  152SAPE  C21316881   2.783   1.408   9.170  0.2395 -0.2501 -0.2639
  152SAPE  H13R16882   2.851   1.370   9.249 -0.0551  2.0258  1.2013
  152SAPE  H13S16883   2.788   1.519   9.180 -3.9667 -0.0169  1.6573
  152SAPE  C21416884   2.854   1.375   9.037  0.2094  0.0530  0.5551
  152SAPE  H14R16885   2.922   1.289   9.041 -0.8742 -0.7888  2.6779
  152SAPE  C21516886   2.840   1.434   8.921  0.0282  0.6990 -0.1604
  152SAPE  H15R16887   2.899   1.396   8.837  1.4451 -0.7628  1.4230
  152SAPE  C21616888   2.746   1.553   8.898  0.0562  0.0406  0.2929
  152SAPE  H16R16889   2.808   1.631   8.849 -0.5905 -0.1641 -0.8753
  152SAPE  H16S16890   2.685   1.593   8.981  1.9199  1.6705  0.9562
  152SAPE  C21716891   2.654   1.502   8.792  0.0220  0.3580  0.3569
  152SAPE  H17R16892   2.560   1.559   8.777 -2.6716 -3.3865  1.4185
  152SAPE  H17S16893   2.620   1.402   8.828  0.5688  0.1527  0.3151
  152SAPE  C21816894   2.722   1.480   8.649 -0.2786 -0.1806 -0.0844
  152SAPE  H18R16895   2.807   1.410   8.644 -0.5747 -0.4355 -3.2867
  152SAPE  H18S16896   2.770   1.577   8.623 -0.8813  0.9690  2.7158
  152SAPE  C21916897   2.629   1.426   8.541  0.8950 -0.6190 -0.1644
  152SAPE  H19R16898   2.547   1.500   8.533  0.8292 -0.4748  1.5470
  152SAPE  H19S16899   2.592   1.327   8.576  0.1935 -1.0260 -1.9478
  152SAPE  C22016900   2.706   1.419   8.413 -0.3424  0.6394 -0.3567
  152SAPE  H20R16901   2.637   1.379   8.335  1.5594 -0.7943 -1.3953
  152SAPE  H20S16902   2.791   1.347   8.414  1.6379  2.7330 -3.0238
  152SAPE  H20T16903   2.744   1.520   8.386 -1.7975  0.6685 -2.4917
  152SAPE   C3316904   2.947   0.716  10.037  0.9777  0.3003 -0.2413
  152SAPE   H3X16905   2.962   0.826  10.033  0.4062  0.4581  1.2346
  152SAPE   H3Y16906   2.846   0.692   9.999  0.1062  1.4238  1.2650
  152SAPE   C3416907   3.045   0.649   9.941  0.1499  0.7008  0.8837
  152SAPE   H4X16908   3.029   0.540   9.936  0.0019  0.7934 -1.3124
  152SAPE   H4Y16909   3.148   0.677   9.972  0.3923 -0.0158  0.7237
  152SAPE   C3516910   3.038   0.713   9.808  0.7680  0.1325 -0.0591
  152SAPE   H5X16911   3.070   0.820   9.813  0.3599  0.2063  1.6706
  152SAPE   H5Y16912   2.931   0.714   9.778  1.1608  0.1457 -1.4970
  152SAPE   C3616913   3.120   0.653   9.691 -0.0402 -0.1442 -0.4833
  152SAPE   H6X16914   3.086   0.548   9.688  2.1162 -0.8792 -1.7745
  152SAPE   H6Y16915   3.229   0.651   9.714 -0.2406 -2.8506  0.6428
  152SAPE   C3716916   3.109   0.726   9.562  0.1178  0.5162  0.3715
  152SAPE   H7X16917   3.148   0.830   9.561  0.2276  0.5317 -2.6937
  152SAPE   H7Y16918   3.004   0.723   9.526  0.6010  0.8850 -1.1216
  152SAPE   C3816919   3.185   0.661   9.444  0.1164 -0.1934  0.2957
  152SAPE   H8X16920   3.161   0.554   9.425  2.0111 -0.2708 -2.1765
  152SAPE   H8Y16921   3.291   0.665   9.479  0.7412 -0.7020 -1.4172
  152SAPE   C3916922   3.162   0.728   9.310 -0.5232 -0.5763  0.8002
  152SAPE   H9X16923   3.201   0.831   9.326 -1.8078  0.0267  0.2432
  152SAPE   H9Y16924   3.053   0.722   9.287 -0.4909 -1.3009  0.8105
  152SAPE  C31016925   3.265   0.673   9.205  0.0491  0.0096 -0.9835
  152SAPE  H10X16926   3.280   0.565   9.221 -1.4918 -0.0356  0.5082
  152SAPE  H10Y16927   3.363   0.724   9.212  0.8492 -1.4753 -1.1013
  152SAPE  C31116928   3.204   0.698   9.064 -0.6927 -0.5751  0.3721
  152SAPE  H11X16929   3.288   0.668   8.998 -0.0023  3.3966 -0.8464
  152SAPE  H11Y16930   3.186   0.804   9.035 -0.1149 -0.9678 -1.6281
  152SAPE  C31216931   3.094   0.601   9.024 -0.1504  0.1108 -0.6092
  152SAPE  H12X16932   2.996   0.636   9.063  0.5524 -0.3706  1.7349
  152SAPE  H12Y16933   3.123   0.504   9.070 -0.1321 -0.1886 -1.2298
  152SAPE  C31316934   3.095   0.587   8.872 -0.5083 -0.7711 -0.2714
  152SAPE  H13X16935   3.198   0.582   8.832  0.1360  0.3797  1.1427
  152SAPE  H13Y16936   3.054   0.685   8.841  0.7808  0.8179  2.6393
  152SAPE  C31416937   3.012   0.471   8.829  0.5534  0.0532 -0.2518
  152SAPE  H14X16938   2.912   0.479   8.875  0.2444  2.0710 -1.1611
  152SAPE  H14Y16939   3.054   0.379   8.874 -0.8832  0.2186  1.5687
  152SAPE  C31516940   3.008   0.468   8.676  0.2693 -0.1951  0.0848
  152SAPE  H15X16941   3.102   0.428   8.634  0.3663  0.9117 -0.7775
  152SAPE  H15Y16942   3.003   0.572   8.637 -0.1183 -0.5285 -0.7831
  152SAPE  C31616943   2.885   0.384   8.622  0.3334  0.2399  0.5701
  152SAPE  H16X16944   2.791   0.441   8.633 -0.9152 -1.3839 -1.1495
  152SAPE  H16Y16945   2.870   0.281   8.662 -0.7747  0.4656  0.7700
  152SAPE  C31716946   2.896   0.364   8.470  0.1106  0.4906 -0.3005
  152SAPE  H17X16947   2.982   0.298   8.447  0.7401  2.3552 -4.2601
  152SAPE  H17Y16948   2.925   0.461   8.422 -0.0134 -0.7229 -3.0404
  152SAPE  C31816949   2.777   0.306   8.399  0.5289 -0.6888  0.3548
  152SAPE  H18X16950   2.802   0.281   8.293  2.3057  2.3817 -0.0836
  152SAPE  H18Y16951   2.690   0.376   8.392  1.8493  0.9079 -0.9469
  152SAPE  H18Z16952   2.743   0.221   8.460  1.5744  0.8348  3.2300
  153SAPE     N16953   0.897   0.772  10.463 -0.4934 -0.8430 -0.0548
  153SAPE   HN116954   0.984   0.767  10.522 -0.0440  0.9789 -0.4853
  153SAPE   HN216955   0.841   0.856  10.489 -1.1779 -1.3587  0.1618
  153SAPE   HN316956   0.835   0.689  10.463 -0.2656 -1.0251 -1.0673
  153SAPE   C1216957   0.951   0.784  10.325  0.2931  0.7008 -0.1150
  153SAPE  H12A16958   0.891   0.858  10.268 -0.8983  0.2791  0.5734
  153SAPE  H12B16959   0.943   0.679  10.290  2.3932 -1.3284  4.6050
  153SAPE   C1116960   1.107   0.814  10.333 -0.4625 -0.0299  0.4565
  153SAPE  H11A16961   1.108   0.905  10.396 -2.6696 -0.8661  1.8356
  153SAPE  H11B16962   1.145   0.838  10.232 -1.5395  2.0869  0.4998
  153SAPE     P16963   1.223   0.707  10.535  0.1215  0.3311  0.0820
  153SAPE   O1316964   1.116   0.768  10.613  0.2792  0.1228 -0.5902
  153SAPE   O1416965   1.267   0.566  10.569 -0.3822  0.1536 -0.1950
  153SAPE   O1216966   1.176   0.700  10.391  0.5436  0.5230  0.2761
  153SAPE   O1116967   1.343   0.803  10.520 -0.2524  0.1165  0.3462
  153SAPE    C116968   1.445   0.784  10.417  0.1640 -0.6771  0.1443
  153SAPE    HA16969   1.516   0.706  10.452  0.7202  0.1352  0.8297
  153SAPE    HB16970   1.407   0.757  10.316 -0.6609  4.1598 -1.0640
  153SAPE    C216971   1.522   0.916  10.393  0.6314  0.0067 -0.0387
  153SAPE    HS16972   1.536   0.964  10.493 -1.1586 -1.3699  0.9395
  153SAPE   O2116973   1.452   1.006  10.299  0.0497 -0.1571 -0.4796
  153SAPE   C2116974   1.355   1.078  10.353 -0.7704 -0.5939 -0.1812
  153SAPE   O2216975   1.326   1.081  10.469 -0.2492 -0.1718 -0.9574
  153SAPE   C2216976   1.273   1.159  10.244 -0.4501  0.1179  0.0230
  153SAPE   H2R16977   1.334   1.187  10.155 -2.2478  1.6004 -0.8184
  153SAPE   H2S16978   1.202   1.076  10.222 -2.1692  1.2161  1.1686
  153SAPE    C316979   1.668   0.886  10.343 -0.1127 -0.2170 -0.6966
  153SAPE    HX16980   1.733   0.834  10.416  0.2849  0.3414 -0.6466
  153SAPE    HY16981   1.707   0.989  10.323 -0.6952  0.0791 -0.3433
  153SAPE   O3116982   1.655   0.815  10.212 -0.1056 -0.5042 -0.0569
  153SAPE   C3116983   1.763   0.778  10.155 -0.0820 -0.0791  0.3211
  153SAPE   O3216984   1.878   0.797  10.195  0.0296 -0.7048 -0.3683
  153SAPE   C3216985   1.730   0.732  10.015  0.2154  0.3364  0.1599
  153SAPE   H2X16986   1.638   0.787   9.985  0.9746  1.4741 -0.1184
  153SAPE   H2Y16987   1.714   0.622  10.012 -2.1324  0.6217  0.0943
  153SAPE   C2316988   1.196   1.273  10.308 -0.2124  0.4644  0.0904
  153SAPE   H3R16989   1.267   1.358  10.325  0.6172 -0.2386  0.1982
  153SAPE   H3S16990   1.151   1.248  10.407  2.3030  0.0013  1.2056
  153SAPE   C2416991   1.088   1.339  10.214 -0.4542  0.3151 -0.3694
  153SAPE   H4R16992   1.143   1.372  10.123 -1.7343  0.4325 -1.1143
  153SAPE   H4S16993   1.047   1.420  10.279 -1.1095 -1.0806  1.0192
  153SAPE   C2516994   0.975   1.249  10.187  0.2998 -0.0335  0.4153
  153SAPE   H5R16995   0.887   1.246  10.253  1.1784 -0.1733  1.6166
  153SAPE   C2616996   0.958   1.188  10.071  0.4430  0.1549  0.2556
  153SAPE   H6R16997   0.865   1.132  10.055  1.5238 -1.1977 -1.7666
  153SAPE   C2716998   1.050   1.217   9.948  0.4971 -0.4821 -1.1791
  153SAPE   H7R16999   1.159   1.213   9.971  0.1761  0.9109  0.8257
  153SAPE   H7S17000   1.039   1.322   9.916  1.1771 -0.5312 -1.5839
  153SAPE   C2817001   1.016   1.120   9.832 -0.1689  0.6890  0.3129
  153SAPE   H8R17002   1.058   1.019   9.844 -1.7466  0.0531  0.6768
  153SAPE   C2917003   0.927   1.134   9.731  0.0542  0.5301 -0.4882
  153SAPE   H9R17004   0.920   1.051   9.659 -0.1343 -0.1221  0.2605
  153SAPE  C21017005   0.829   1.248   9.708 -0.2978  0.1220 -0.0051
  153SAPE  H10R17006   0.875   1.349   9.709  0.4662 -0.2214  0.1741
  153SAPE  H10S17007   0.750   1.253   9.786  1.1742  3.7851  1.4765
  153SAPE  C21117008   0.776   1.244   9.566  0.0599 -0.1836 -0.8370
  153SAPE  H11R17009   0.671   1.213   9.558 -0.0867  0.1450 -0.2564
  153SAPE  C21217010   0.851   1.266   9.460 -0.6123 -0.2581  0.4595
  153SAPE  H12R17011   0.805   1.264   9.360 -1.5369 -0.2074  0.8706
  153SAPE  C21317012   0.995   1.319   9.460 -0.2028  0.1492  0.4866
  153SAPE  H13R17013   1.027   1.325   9.566 -0.8558  0.8553  0.6588
  153SAPE  H13S17014   1.010   1.422   9.422  1.8565 -0.4451 -0.4115
  153SAPE  C21417015   1.086   1.213   9.401  0.0908 -0.4438 -0.3597
  153SAPE  H14R17016   1.098   1.125   9.467 -0.1018 -0.2772 -0.1009
  153SAPE  C21517017   1.149   1.214   9.281 -0.0198  0.0982  0.4303
  153SAPE  H15R17018   1.202   1.125   9.243  0.8108  1.1715 -0.9826
  153SAPE  C21617019   1.148   1.325   9.176 -0.2761 -0.0854 -0.2166
  153SAPE  H16R17020   1.211   1.405   9.220 -1.0342  0.5075 -0.1873
  153SAPE  H16S17021   1.049   1.375   9.168 -0.5857 -0.3692  1.4479
  153SAPE  C21717022   1.204   1.290   9.037  0.5576  0.2406 -0.1924
  153SAPE  H17R17023   1.298   1.231   9.042  0.7920  0.5013 -1.2216
  153SAPE  H17S17024   1.219   1.387   8.985  0.2559 -0.9290 -2.6097
  153SAPE  C21817025   1.107   1.213   8.953  0.1095 -0.3012 -0.0751
  153SAPE  H18R17026   1.006   1.258   8.942  0.9286  1.5765 -0.2434
  153SAPE  H18S17027   1.088   1.113   8.997  0.3776 -0.3671 -0.1087
  153SAPE  C21917028   1.152   1.206   8.809  0.0682  0.3423  0.1752
  153SAPE  H19R17029   1.082   1.133   8.764  2.6800 -0.4533 -2.9393
  153SAPE  H19S17030   1.256   1.168   8.798  0.3648  0.8000  1.2291
  153SAPE  C22017031   1.128   1.329   8.733 -0.0945  0.2011  0.7217
  153SAPE  H20R17032   1.035   1.381   8.766  0.1348  0.6365  0.6961
  153SAPE  H20S17033   1.119   1.301   8.626  1.4709  1.3032  0.2582
  153SAPE  H20T17034   1.211   1.403   8.743 -0.2909  0.7235 -1.1782
  153SAPE   C3317035   1.849   0.758   9.912 -0.6626 -0.8254 -0.3548
  153SAPE   H3X17036   1.909   0.841   9.956 -2.6325  1.0854 -1.0528
  153SAPE   H3Y17037   1.817   0.798   9.813  0.7124 -0.0372 -0.5084
  153SAPE   C3417038   1.936   0.628   9.887  0.2584  0.1070  0.3179
  153SAPE   H4X17039   1.870   0.553   9.839  0.3334  0.7090 -0.7405
  153SAPE   H4Y17040   1.964   0.598   9.991  0.2920  1.0946  0.6070
  153SAPE   C3517041   2.052   0.647   9.807  0.0201  0.2000  0.4779
  153SAPE   H5X17042   2.122   0.562   9.794 -0.5142 -0.0685 -0.9104
  153SAPE   H5Y17043   2.110   0.729   9.855 -3.3046  2.1352  1.5298
  153SAPE   C3617044   2.029   0.692   9.656  0.2730  0.5958  0.2425
  153SAPE   H6X17045   2.130   0.701   9.610  0.0525 -3.2430 -1.3325
  153SAPE   H6Y17046   1.989   0.796   9.660  2.6386  1.5894 -0.0169
  153SAPE   C3717047   1.960   0.592   9.557  0.7864  0.4693  0.3122
  153SAPE   H7X17048   1.861   0.559   9.595  1.1195 -1.2815 -0.2524
  153SAPE   H7Y17049   2.033   0.511   9.537 -0.1754 -0.4072  0.2760
  153SAPE   C3817050   1.924   0.659   9.420  0.6219 -0.3179  0.1489
  153SAPE   H8X17051   2.024   0.659   9.372  0.7864 -1.5755  0.4382
  153SAPE   H8Y17052   1.881   0.757   9.447  0.4558 -0.5263  0.6602
  153SAPE   C3917053   1.826   0.576   9.335 -0.2404 -0.1268  0.1825
  153SAPE   H9X17054   1.724   0.592   9.375 -0.0380  1.1627  0.2030
  153SAPE   H9Y17055   1.847   0.466   9.337  5.1927  0.6211  0.3764
  153SAPE  C31017056   1.822   0.628   9.192 -0.0389 -0.1309  0.0944
  153SAPE  H10X17057   1.917   0.600   9.141 -0.6781  1.2158 -1.9389
  153SAPE  H10Y17058   1.814   0.739   9.199  2.1744 -0.0301  2.2360
  153SAPE  C31117059   1.702   0.575   9.102  0.0899 -0.4767  0.3876
  153SAPE  H11X17060   1.707   0.632   9.007  1.6795  0.6530  1.0890
  153SAPE  H11Y17061   1.613   0.608   9.160  0.7808 -0.3220  1.3935
  153SAPE  C31217062   1.701   0.426   9.086 -0.5827  0.0095  0.2186
  153SAPE  H12X17063   1.689   0.380   9.187  1.3940  0.9539  0.9261
  153SAPE  H12Y17064   1.799   0.386   9.052 -0.5949  1.3649 -1.4842
  153SAPE  C31317065   1.592   0.373   8.991  0.0978 -0.1173  0.3114
  153SAPE  H13X17066   1.577   0.266   9.016  0.8146 -1.2915 -3.5757
  153SAPE  H13Y17067   1.631   0.371   8.887 -1.1129 -0.1895 -0.1505
  153SAPE  C31417068   1.459   0.449   8.992  0.2827 -0.0647 -0.7144
  153SAPE  H14X17069   1.477   0.552   8.955 -1.2461 -0.3700 -2.4598
  153SAPE  H14Y17070   1.413   0.458   9.093 -0.9732  2.5645 -1.4349
  153SAPE  C31517071   1.343   0.385   8.904 -0.8797  0.5195  0.2464
  153SAPE  H15X17072   1.245   0.437   8.901 -1.1517 -0.0072 -2.0745
  153SAPE  H15Y17073   1.336   0.280   8.940  1.1819  0.7926  1.6512
  153SAPE  C31617074   1.388   0.378   8.756 -0.4905 -0.2227  0.1096
  153SAPE  H16X17075   1.483   0.321   8.745 -0.2382  0.5139 -1.9125
  153SAPE  H16Y17076   1.401   0.479   8.713  0.2659 -0.6241 -0.6243
  153SAPE  C31717077   1.281   0.306   8.668  0.2685 -0.1241  0.1503
  153SAPE  H17X17078   1.313   0.283   8.564 -1.7808 -3.1445  0.0444
  153SAPE  H17Y17079   1.199   0.380   8.659  0.0602 -0.0899  1.8756
  153SAPE  C31817080   1.233   0.165   8.715  0.7179 -0.0294 -0.0012
  153SAPE  H18X17081   1.197   0.154   8.819  1.7116 -0.2282  0.3383
  153SAPE  H18Y17082   1.315   0.090   8.706 -0.7775 -1.6641 -0.6828
  153SAPE  H18Z17083   1.152   0.127   8.650 -0.4049  0.4090  1.1046
  154SAPE     N17084   2.415   1.434  10.562 -0.4366  0.8324  0.7088
  154SAPE   HN117085   2.408   1.446  10.458  0.2838  1.0651  0.6879
  154SAPE   HN217086   2.507   1.478  10.581 -1.0256  1.5721  1.9989
  154SAPE   HN317087   2.420   1.333  10.584  1.2758  0.7312 -0.0149
  154SAPE   C1217088   2.317   1.508  10.647  0.0621  0.3506  0.1855
  154SAPE  H12A17089   2.335   1.479  10.753  2.0679 -0.3122 -0.2761
  154SAPE  H12B17090   2.213   1.474  10.630 -0.2092  0.4808  1.5272
  154SAPE   C1117091   2.337   1.654  10.620  0.1273  0.1437 -0.5931
  154SAPE  H11A17092   2.255   1.697  10.682  0.7957 -2.0575  2.0202
  154SAPE  H11B17093   2.318   1.674  10.512 -1.3835 -2.0163 -0.7750
  154SAPE     P17094   2.493   1.856  10.650  0.1209  0.0171 -0.2793
  154SAPE   O1317095   2.364   1.928  10.682  0.5155  0.1011  0.4608
  154SAPE   O1417096   2.614   1.887  10.726 -0.3834 -0.1784 -0.8470
  154SAPE   O1217097   2.459   1.702  10.667 -0.1165  0.0059  0.4499
  154SAPE   O1117098   2.534   1.880  10.500  0.2498 -0.1317 -0.1664
  154SAPE    C117099   2.610   1.784  10.425 -0.1655  0.3183  0.4786
  154SAPE    HA17100   2.699   1.832  10.379  1.6048 -0.3652  2.9451
  154SAPE    HB17101   2.655   1.697  10.478  0.1910 -0.6755 -1.3514
  154SAPE    C217102   2.530   1.729  10.307  0.5228  0.0337 -0.4571
  154SAPE    HS17103   2.471   1.647  10.353  0.9125  0.5420  0.9937
  154SAPE   O2117104   2.621   1.675  10.208 -0.0055 -0.1701  0.1047
  154SAPE   C2117105   2.594   1.576  10.124 -0.9159  0.0987  0.0521
  154SAPE   O2217106   2.495   1.504  10.131  0.0836 -0.6274 -0.2475
  154SAPE   C2217107   2.709   1.579  10.017  0.4060  0.3294 -0.2072
  154SAPE   H2R17108   2.769   1.672  10.028  1.8217 -0.2686 -2.1954
  154SAPE   H2S17109   2.778   1.493  10.031 -1.8759 -1.5921 -0.0981
  154SAPE    C317110   2.429   1.837  10.253 -0.1416 -0.2177 -0.7692
  154SAPE    HX17111   2.482   1.925  10.209  1.8641 -0.8501  0.2296
  154SAPE    HY17112   2.366   1.882  10.333  1.4426  0.2831  0.2463
  154SAPE   O3117113   2.353   1.783  10.148  0.1842 -0.3020  0.2626
  154SAPE   C3117114   2.235   1.730  10.184  0.0289  0.2632  0.4356
  154SAPE   O3217115   2.193   1.705  10.295  0.6022 -0.1418 -0.5433
  154SAPE   C3217116   2.176   1.676  10.051 -0.1612 -0.1330  0.0418
  154SAPE   H2X17117   2.238   1.591  10.014 -2.1544 -1.2002 -1.0339
  154SAPE   H2Y17118   2.179   1.762   9.981 -1.6717  1.4204  1.7704
  154SAPE   C2317119   2.658   1.568   9.869 -0.4586 -0.0808  0.1468
  154SAPE   H3R17120   2.557   1.522   9.871 -0.1324 -0.8114  0.1288
  154SAPE   H3S17121   2.728   1.508   9.807 -0.2528  1.4826 -1.2321
  154SAPE   C2417122   2.626   1.697   9.797 -0.3745 -0.2431 -0.1096
  154SAPE   H4R17123   2.605   1.663   9.693  0.8516  0.2272 -0.5369
  154SAPE   H4S17124   2.722   1.753   9.784  0.0688 -1.3044 -1.8422
  154SAPE   C2517125   2.521   1.786   9.857  0.0463 -0.0226  0.1173
  154SAPE   H5R17126   2.525   1.798   9.966 -1.3178 -0.5685  0.2400
  154SAPE   C2617127   2.414   1.832   9.794 -0.4481 -1.0686 -0.4828
  154SAPE   H6R17128   2.355   1.899   9.858  1.0638  0.6731 -0.8241
  154SAPE   C2717129   2.377   1.809   9.646 -0.5695  0.5306 -0.1927
  154SAPE   H7R17130   2.343   1.704   9.632  1.9297 -0.5633  1.2648
  154SAPE   H7S17131   2.467   1.814   9.581 -0.6642  0.7532 -0.3087
  154SAPE   C2817132   2.272   1.906   9.591  0.4182  0.1074  0.8529
  154SAPE   H8R17133   2.220   1.977   9.657 -1.5023 -1.0395  0.6466
  154SAPE   C2917134   2.245   1.916   9.457  0.2091  0.1761 -0.4098
  154SAPE   H9R17135   2.177   1.996   9.423 -1.0688 -0.4683  0.5233
  154SAPE  C21017136   2.309   1.826   9.348  0.0308  0.1625  0.0278
  154SAPE  H10R17137   2.294   1.723   9.389 -0.2199 -0.4668 -1.5720
  154SAPE  H10S17138   2.416   1.853   9.346 -0.5980  3.2843  2.3140
  154SAPE  C21117139   2.239   1.842   9.217 -0.0209  0.2997 -0.7880
  154SAPE  H11R17140   2.130   1.852   9.222 -0.0937 -0.2560 -1.1810
  154SAPE  C21217141   2.298   1.850   9.096 -0.1845  0.2397  0.0266
  154SAPE  H12R17142   2.231   1.870   9.010 -2.3328  1.5328  1.8932
  154SAPE  C21317143   2.448   1.845   9.072 -0.6811 -0.0005  0.4408
  154SAPE  H13R17144   2.458   1.799   8.971 -2.7141  0.5491 -0.0596
  154SAPE  H13S17145   2.502   1.782   9.146 -0.9658 -0.8283 -0.0432
  154SAPE  C21417146   2.496   1.993   9.086 -0.3306  0.1240  0.4081
  154SAPE  H14R17147   2.421   2.071   9.107  0.7423  1.4474 -0.5215
  154SAPE  C21517148   2.622   2.032   9.093  0.1517 -0.6636  0.2331
  154SAPE  H15R17149   2.634   2.140   9.114 -1.4050 -0.5383  0.6455
  154SAPE  C21617150   2.736   1.944   9.078  0.3686  0.5539  0.2448
  154SAPE  H16R17151   2.799   1.990   8.998  2.2802 -1.6674  0.3697
  154SAPE  H16S17152   2.716   1.839   9.048  0.0147 -0.1563  2.7053
  154SAPE  C21717153   2.818   1.930   9.213  0.9071 -0.2122 -0.6398
  154SAPE  H17R17154   2.852   2.032   9.242  1.1800 -0.2549 -0.8032
  154SAPE  H17S17155   2.915   1.887   9.180  1.0851  0.0649 -0.4932
  154SAPE  C21817156   2.747   1.851   9.318  0.1352 -0.1868 -0.0763
  154SAPE  H18R17157   2.712   1.756   9.271 -0.7311  0.9111 -1.7687
  154SAPE  H18S17158   2.655   1.893   9.364 -1.3613 -1.7086 -1.4957
  154SAPE  C21917159   2.839   1.817   9.435 -0.6895  0.5205 -0.0933
  154SAPE  H19R17160   2.943   1.817   9.395 -1.3189 -2.0839 -1.9996
  154SAPE  H19S17161   2.827   1.711   9.467 -0.3437 -0.0372 -1.6902
  154SAPE  C22017162   2.832   1.902   9.561 -0.1208  0.3387 -0.4388
  154SAPE  H20R17163   2.911   1.869   9.632 -0.4231  0.5683  0.0087
  154SAPE  H20S17164   2.730   1.897   9.604  0.5514  0.2259  1.2464
  154SAPE  H20T17165   2.846   2.009   9.533 -0.5395  0.2353 -1.0416
  154SAPE   C3317166   2.030   1.615  10.069 -0.3975 -0.2827  0.5917
  154SAPE   H3X17167   1.955   1.698  10.068 -0.9086 -0.6947 -1.6960
  154SAPE   H3Y17168   2.014   1.547  10.155 -0.5877 -0.8210  0.1338
  154SAPE   C3417169   2.002   1.532   9.945  0.2089 -0.0692  0.4769
  154SAPE   H4X17170   1.896   1.500   9.951  0.2821 -0.5395 -0.5505
  154SAPE   H4Y17171   2.070   1.444   9.945  0.6834  0.2923  0.4941
  154SAPE   C3517172   2.028   1.601   9.818 -0.0225 -0.2730 -0.2631
  154SAPE   H5X17173   2.136   1.628   9.809  1.5113 -4.3911  2.5071
  154SAPE   H5Y17174   1.970   1.695   9.813  0.6294  0.0931 -1.1332
  154SAPE   C3617175   1.986   1.514   9.699 -0.3541  0.6120 -0.5935
  154SAPE   H6X17176   1.875   1.501   9.700 -0.1225 -1.7297  0.4758
  154SAPE   H6Y17177   2.025   1.411   9.712  0.3422  1.0710  1.3763
  154SAPE   C3717178   2.031   1.566   9.565  0.5105  0.4075 -1.0758
  154SAPE   H7X17179   2.140   1.571   9.546  0.9390  3.2651  1.3701
  154SAPE   H7Y17180   1.988   1.668   9.563 -1.5552 -0.3362  0.9219
  154SAPE   C3817181   1.966   1.480   9.456 -0.3578 -0.3986 -0.0198
  154SAPE   H8X17182   1.856   1.489   9.471 -0.3963  0.0807 -0.5681
  154SAPE   H8Y17183   2.006   1.378   9.474  1.8515  0.5412  0.7333
  154SAPE   C3917184   1.992   1.528   9.322  0.0742 -0.1656 -0.1993
  154SAPE   H9X17185   2.099   1.555   9.326  0.7496 -2.6997  0.8775
  154SAPE   H9Y17186   1.921   1.609   9.295 -0.8246 -1.1879 -1.0301
  154SAPE  C31017187   1.988   1.418   9.218 -0.4066 -0.0739  0.9329
  154SAPE  H10X17188   1.932   1.327   9.250 -0.9643 -0.4969 -1.1339
  154SAPE  H10Y17189   2.093   1.394   9.192 -0.6212  0.2456 -0.2618
  154SAPE  C31117190   1.920   1.454   9.078 -0.5782 -0.0451 -0.4067
  154SAPE  H11X17191   1.816   1.491   9.094 -0.8480 -0.0588 -1.9616
  154SAPE  H11Y17192   1.920   1.353   9.031 -2.9589 -1.2717  1.9735
  154SAPE  C31217193   1.989   1.576   9.008  0.8549  0.7572  0.1888
  154SAPE  H12X17194   1.989   1.663   9.077  0.7135  0.4034  0.6418
  154SAPE  H12Y17195   1.920   1.601   8.925  0.0027 -0.4141  0.5187
  154SAPE  C31317196   2.133   1.560   8.957  0.2292 -0.2321 -0.1868
  154SAPE  H13X17197   2.202   1.553   9.043 -0.9179 -0.4899  0.7322
  154SAPE  H13Y17198   2.167   1.648   8.899 -0.8561  0.1500 -0.2667
  154SAPE  C31417199   2.154   1.430   8.883 -0.2708 -0.4910  0.5400
  154SAPE  H14X17200   2.136   1.351   8.958  0.1213 -0.3967  0.7383
  154SAPE  H14Y17201   2.257   1.425   8.841 -0.8623  0.7289 -1.2281
  154SAPE  C31517202   2.061   1.416   8.758 -0.0791  0.5096 -0.1207
  154SAPE  H15X17203   1.957   1.422   8.797  0.0857  1.4872  0.2148
  154SAPE  H15Y17204   2.068   1.307   8.742 -1.1690  0.0156  2.3073
  154SAPE  C31617205   2.084   1.517   8.645 -0.3111  1.4900  0.0073
  154SAPE  H16X17206   2.165   1.590   8.668  1.4282 -0.3894  0.1318
  154SAPE  H16Y17207   1.990   1.574   8.631  0.0125  1.6327 -1.8241
  154SAPE  C31717208   2.108   1.447   8.518 -0.0278  0.4943 -0.3134
  154SAPE  H17X17209   2.090   1.525   8.441  1.8886 -0.0250 -1.3318
  154SAPE  H17Y17210   2.028   1.373   8.496 -0.0208  0.3615  0.0970
  154SAPE  C31817211   2.244   1.390   8.500 -0.3590  0.3751 -0.6050
  154SAPE  H18X17212   2.320   1.442   8.563  1.2817 -2.5868  0.0239
  154SAPE  H18Y17213   2.282   1.398   8.396 -0.1219  1.4635 -0.4569
  154SAPE  H18Z17214   2.249   1.283   8.529  1.5235  0.1665 -1.5662
  155SAPE     N17215   2.559   2.663  11.090  0.0547  0.6339 -0.3380
  155SAPE   HN117216   2.656   2.634  11.070 -0.6988 -0.0465 -3.4636
  155SAPE   HN217217   2.540   2.677  11.192  1.6061 -0.6309  0.1639
  155SAPE   HN317218   2.488   2.598  11.051  1.3475 -1.9297  1.3324
  155SAPE   C1217219   2.539   2.802  11.041 -0.5569 -1.0219  0.2063
  155SAPE  H12A17220   2.629   2.861  11.068 -1.3028  0.4065 -0.3243
  155SAPE  H12B17221   2.446   2.844  11.084 -0.0540  2.4386 -1.7422
  155SAPE   C1117222   2.529   2.810  10.884 -0.4050  0.0898 -0.2928
  155SAPE  H11A17223   2.499   2.915  10.868 -0.4544 -0.0284 -1.0003
  155SAPE  H11B17224   2.444   2.745  10.854 -1.7101  0.6966  1.8245
  155SAPE     P17225   2.671   2.712  10.686  0.0621 -0.0022  0.1991
  155SAPE   O1317226   2.743   2.583  10.704 -0.5306  0.1280 -0.4037
  155SAPE   O1417227   2.547   2.711  10.613  0.0524  0.3445  0.3304
  155SAPE   O1217228   2.665   2.789  10.829  0.5249 -0.0862 -0.3034
  155SAPE   O1117229   2.775   2.807  10.606  0.0286  0.5599 -0.6042
  155SAPE    C117230   2.745   2.935  10.562  0.0553 -0.4524  0.8766
  155SAPE    HA17231   2.653   2.975  10.610  0.6005 -0.5151  1.9999
  155SAPE    HB17232   2.829   2.995  10.602 -2.4642  3.0359  1.4179
  155SAPE    C217233   2.745   2.952  10.416 -0.3222 -0.6290  0.9150
  155SAPE    HS17234   2.706   3.050  10.382 -1.7487 -1.4313  0.1404
  155SAPE   O2117235   2.663   2.856  10.356 -0.3311  0.0336  0.9372
  155SAPE   C2117236   2.531   2.881  10.352 -0.0842  0.2280 -0.9760
  155SAPE   O2217237   2.475   2.984  10.387  0.4168  0.1599 -0.2622
  155SAPE   C2217238   2.464   2.763  10.284  0.6254 -0.6116 -0.4895
  155SAPE   H2R17239   2.534   2.678  10.271 -0.3213 -2.0863  2.8084
  155SAPE   H2S17240   2.396   2.715  10.358 -0.1915  0.8838 -0.2242
  155SAPE    C317241   2.895   2.939  10.364  0.1955  0.7603 -0.4991
  155SAPE    HX17242   2.929   2.834  10.375 -1.3572  0.4306  1.8576
  155SAPE    HY17243   2.960   3.000  10.431 -0.4777 -0.8266  1.6791
  155SAPE   O3117244   2.908   2.970  10.223 -0.0641  0.2279 -0.0074
  155SAPE   C3117245   2.893   3.096  10.189  0.1951 -0.0967 -0.9897
  155SAPE   O3217246   2.882   3.196  10.258  0.0737 -0.4071 -0.1095
  155SAPE   C3217247   2.885   3.106  10.038  0.1388  0.1794  0.3180
  155SAPE   H2X17248   2.783   3.072  10.009  1.4582 -2.3390 -1.9168
  155SAPE   H2Y17249   2.962   3.035  10.000  0.3458 -0.0849  1.2048
  155SAPE   C2317250   2.379   2.809  10.157 -0.5387  0.9587 -0.0079
  155SAPE   H3R17251   2.286   2.865  10.181 -0.8225  1.1822 -1.5213
  155SAPE   H3S17252   2.348   2.720  10.099  2.2483  1.0960 -1.9335
  155SAPE   C2417253   2.456   2.906  10.066  0.0160 -0.1967  0.5194
  155SAPE   H4R17254   2.463   3.000  10.125 -0.2007 -0.2811  0.6815
  155SAPE   H4S17255   2.387   2.926   9.981  1.2355  1.3287 -0.1559
  155SAPE   C2517256   2.593   2.858  10.022 -0.0435  0.1448 -0.3126
  155SAPE   H5R17257   2.663   2.839  10.105  1.3549 -2.1377 -1.9116
  155SAPE   C2617258   2.643   2.843   9.896  0.5713 -0.1273  0.1637
  155SAPE   H6R17259   2.743   2.800   9.879  1.1816  1.8481 -1.6762
  155SAPE   C2717260   2.568   2.868   9.761 -0.8850 -0.1079 -0.2351
  155SAPE   H7R17261   2.637   2.919   9.689 -2.4593  0.4608 -1.4051
  155SAPE   H7S17262   2.492   2.948   9.778 -0.1492  0.0319  2.8998
  155SAPE   C2817263   2.510   2.743   9.700  0.0082  0.0674 -0.1896
  155SAPE   H8R17264   2.522   2.647   9.751  2.4770 -0.0711 -0.9419
  155SAPE   C2917265   2.442   2.732   9.585  0.1061  0.2179 -0.5774
  155SAPE   H9R17266   2.403   2.630   9.569 -3.0852  1.1818  0.2339
  155SAPE  C21017267   2.395   2.833   9.485 -0.0089 -0.2768  0.4285
  155SAPE  H10R17268   2.438   2.934   9.503 -0.0298 -0.1324 -0.2898
  155SAPE  H10S17269   2.284   2.842   9.476  0.1604  1.1917 -0.7117
  155SAPE  C21117270   2.453   2.784   9.348  0.1545  0.2545 -0.4041
  155SAPE  H11R17271   2.562   2.778   9.332  0.3634 -1.2191  1.2392
  155SAPE  C21217272   2.372   2.740   9.245 -0.4824  0.5435  0.3939
  155SAPE  H12R17273   2.418   2.696   9.156 -1.2255  3.6548 -1.6861
  155SAPE  C21317274   2.222   2.737   9.250  0.3276 -0.2903  0.0925
  155SAPE  H13R17275   2.180   2.687   9.339 -1.3453  1.4536  0.3508
  155SAPE  H13S17276   2.201   2.665   9.167 -0.4310 -0.6852  0.6241
  155SAPE  C21417277   2.143   2.867   9.245  0.8283 -0.3532 -0.0097
  155SAPE  H14R17278   2.134   2.923   9.339 -1.0756 -0.6705  0.0282
  155SAPE  C21517279   2.068   2.917   9.144  0.5174 -0.0542  0.0608
  155SAPE  H15R17280   2.003   3.003   9.165 -1.9588 -1.6214 -0.7745
  155SAPE  C21617281   2.039   2.851   9.015 -0.3221  0.4343 -0.6095
  155SAPE  H16R17282   1.936   2.811   9.010 -0.3904  0.6120 -0.6104
  155SAPE  H16S17283   2.104   2.763   8.993  0.2141  0.3444  1.1728
  155SAPE  C21717284   2.069   2.949   8.905  0.1804 -0.7119  0.0717
  155SAPE  H17R17285   1.999   3.035   8.901  0.2430 -0.4969  2.1587
  155SAPE  H17S17286   2.063   2.896   8.808 -1.3113  0.2506 -0.4054
  155SAPE  C21817287   2.212   3.006   8.908  0.0649 -0.8192  0.0215
  155SAPE  H18R17288   2.286   2.936   8.953  0.3740  0.0622  0.9261
  155SAPE  H18S17289   2.223   3.089   8.981 -0.0219 -2.0480  1.4813
  155SAPE  C21917290   2.263   3.052   8.771  0.5486 -0.1605  0.6863
  155SAPE  H19R17291   2.192   3.125   8.727  0.4377 -1.4701 -1.4728
  155SAPE  H19S17292   2.250   2.969   8.698 -0.7370 -2.0310  2.9057
  155SAPE  C22017293   2.400   3.118   8.769  0.0282 -0.0513 -0.3937
  155SAPE  H20R17294   2.488   3.053   8.788 -0.6718 -0.7440  0.5848
  155SAPE  H20S17295   2.396   3.200   8.845 -0.8992 -1.5160  1.2044
  155SAPE  H20T17296   2.398   3.157   8.665 -2.6097  2.0625  0.3333
  155SAPE   C3317297   2.890   3.243   9.970  0.2506 -0.2897  0.1366
  155SAPE   H3X17298   2.996   3.278   9.972  0.4554 -0.6855 -1.8404
  155SAPE   H3Y17299   2.821   3.299  10.037 -1.1392 -1.5142 -0.2155
  155SAPE   C3417300   2.854   3.248   9.824  0.2141  0.3947  0.1316
  155SAPE   H4X17301   2.864   3.345   9.772 -1.2375  0.5945  0.1740
  155SAPE   H4Y17302   2.744   3.230   9.818  0.6035 -2.2204 -0.4552
  155SAPE   C3517303   2.920   3.149   9.734 -0.1209 -0.4038  0.1359
  155SAPE   H5X17304   2.894   3.049   9.776 -1.2063 -1.1367 -2.1223
  155SAPE   H5Y17305   3.030   3.165   9.733  0.1003 -1.8522 -0.5706
  155SAPE   C3617306   2.845   3.165   9.595 -0.0988  0.2672 -0.0672
  155SAPE   H6X17307   2.820   3.272   9.579  0.1166  0.3416  0.0920
  155SAPE   H6Y17308   2.755   3.101   9.592  0.3452 -0.3933  0.4481
  155SAPE   C3717309   2.932   3.134   9.473  0.1590 -0.2558 -0.5939
  155SAPE   H7X17310   3.019   3.202   9.478 -0.8424  0.9780  1.2004
  155SAPE   H7Y17311   2.875   3.158   9.380  0.4985 -0.6304 -0.9017
  155SAPE   C3817312   2.948   2.983   9.460  0.1192  0.0744  0.0278
  155SAPE   H8X17313   2.956   2.948   9.566  2.4362  3.5637  1.1592
  155SAPE   H8Y17314   3.038   2.952   9.404  0.5431  1.9320 -0.3482
  155SAPE   C3917315   2.825   2.903   9.400 -0.3260 -0.4879 -0.5825
  155SAPE   H9X17316   2.732   2.941   9.447  0.2267  1.2320 -0.8293
  155SAPE   H9Y17317   2.835   2.794   9.421 -0.9749 -0.1938  1.5401
  155SAPE  C31017318   2.814   2.934   9.244 -1.1503 -0.9327 -0.3451
  155SAPE  H10X17319   2.809   3.043   9.223  0.4017 -0.5123  1.2249
  155SAPE  H10Y17320   2.717   2.896   9.209 -1.8789  0.5994 -0.0912
  155SAPE  C31117321   2.925   2.886   9.156 -0.0107 -0.1718  0.4611
  155SAPE  H11X17322   3.017   2.945   9.171  0.2659  0.1191 -1.9782
  155SAPE  H11Y17323   2.894   2.904   9.051 -2.3080 -0.0547  1.0897
  155SAPE  C31217324   2.943   2.735   9.167  0.2492  0.0516 -0.4367
  155SAPE  H12X17325   2.938   2.706   9.274 -2.6349  1.0052 -0.2207
  155SAPE  H12Y17326   3.049   2.723   9.136  0.8515  1.6303  0.8444
  155SAPE  C31317327   2.840   2.652   9.091  0.1339 -0.1891  0.1191
  155SAPE  H13X17328   2.826   2.696   8.990 -1.1719 -1.7957 -0.4496
  155SAPE  H13Y17329   2.743   2.669   9.141 -1.7591  0.5598 -3.4796
  155SAPE  C31417330   2.877   2.505   9.089 -0.4080  0.3950 -0.3760
  155SAPE  H14X17331   2.972   2.504   9.031 -0.9072 -0.9551 -1.2372
  155SAPE  H14Y17332   2.793   2.449   9.043 -0.0781 -1.1750  0.8397
  155SAPE  C31517333   2.908   2.435   9.222 -0.9610 -0.7128  0.6268
  155SAPE  H15X17334   2.823   2.463   9.288 -0.9338  1.3656 -0.1715
  155SAPE  H15Y17335   2.990   2.492   9.270 -1.9864  1.9253 -0.5786
  155SAPE  C31617336   2.945   2.285   9.217 -0.1775 -0.4293  0.0780
  155SAPE  H16X17337   2.877   2.243   9.140  0.9658  2.0754 -2.4917
  155SAPE  H16Y17338   2.924   2.243   9.318  0.0783  0.4067  0.4910
  155SAPE  C31717339   3.085   2.250   9.167  0.7909  0.3678 -0.7141
  155SAPE  H17X17340   3.156   2.308   9.229 -1.4400  1.6513  0.8051
  155SAPE  H17Y17341   3.088   2.279   9.060 -2.5509  0.2863 -0.9544
  155SAPE  C31817342   3.119   2.100   9.185 -0.8190 -1.1250  0.3561
  155SAPE  H18X17343   3.098   2.067   9.289  0.4327  1.7801  1.6294
  155SAPE  H18Y17344   3.229   2.089   9.177 -0.6898  1.2916 -3.3589
  155SAPE  H18Z17345   3.080   2.039   9.101 -0.0639 -2.1706  0.7338
  156SAPE     N17346   1.258   6.600  10.867  0.2829 -0.4027 -0.0743
  156SAPE   HN117347   1.233   6.596  10.967 -0.0707 -0.2200 -0.1556
  156SAPE   HN217348   1.331   6.527  10.854  1.1645  0.1395  1.5445
  156SAPE   HN317349   1.309   6.690  10.858 -0.4279  0.0365  0.2743
  156SAPE   C1217350   1.144   6.598  10.768  0.2382 -0.2878  0.3030
  156SAPE  H12A17351   1.075   6.674  10.810  0.6187  0.5526 -0.5551
  156SAPE  H12B17352   1.090   6.501  10.765 -0.1153 -0.0705 -0.5585
  156SAPE   C1117353   1.178   6.632  10.621 -0.2562  0.0208 -0.5490
  156SAPE  H11A17354   1.100   6.588  10.555 -0.2994 -0.7282 -0.0095
  156SAPE  H11B17355   1.269   6.579  10.587  0.0195 -0.6610  1.1824
  156SAPE     P17356   1.085   6.864  10.550  0.2541 -0.1967  0.0927
  156SAPE   O1317357   0.957   6.817  10.603  0.5804  0.0029 -0.8197
  156SAPE   O1417358   1.126   7.002  10.587 -0.5789  0.1681 -0.5605
  156SAPE   O1217359   1.201   6.769  10.606 -0.1732 -0.7289  0.2316
  156SAPE   O1117360   1.090   6.843  10.389 -0.0007  0.3043  0.3618
  156SAPE    C117361   1.196   6.781  10.312 -0.0695  0.5399  0.2805
  156SAPE    HA17362   1.294   6.777  10.364 -0.3380 -2.1464  0.7122
  156SAPE    HB17363   1.172   6.673  10.298 -0.1499  0.7436 -1.3999
  156SAPE    C217364   1.198   6.855  10.177 -0.5205  0.4216 -0.4360
  156SAPE    HS17365   1.289   6.820  10.124 -0.8156  0.6514 -1.1047
  156SAPE   O2117366   1.219   6.998  10.202 -0.1123 -0.4188  0.9730
  156SAPE   C2117367   1.334   7.031  10.261 -0.6696 -0.7282  0.5251
  156SAPE   O2217368   1.429   6.959  10.285  0.1155  0.2402  0.5104
  156SAPE   C2217369   1.337   7.185  10.279  0.3382  0.0713  0.4244
  156SAPE   H2R17370   1.239   7.229  10.252  0.3213 -1.2338 -1.9681
  156SAPE   H2S17371   1.363   7.212  10.383 -0.1423  1.5894  0.1687
  156SAPE    C317372   1.068   6.839  10.089 -0.2745 -0.0042  0.4403
  156SAPE    HX17373   0.992   6.887  10.154 -0.8424  0.3071 -0.4255
  156SAPE    HY17374   1.024   6.738  10.074  0.8013 -0.8927  2.8032
  156SAPE   O3117375   1.077   6.923   9.972 -0.6335 -0.0481  0.0378
  156SAPE   C3117376   1.125   6.864   9.869 -0.4196 -0.0041  0.5427
  156SAPE   O3217377   1.161   6.747   9.860 -0.7725 -0.2467 -0.3124
  156SAPE   C3217378   1.134   6.964   9.753  0.3035 -0.5403  0.2631
  156SAPE   H2X17379   1.194   6.923   9.669  2.9682 -1.3964  2.4408
  156SAPE   H2Y17380   1.165   7.068   9.779  1.0904 -1.0230  1.3074
  156SAPE   C2317381   1.443   7.247  10.194 -0.0497 -0.2225 -0.0953
  156SAPE   H3R17382   1.544   7.203  10.209 -0.7196 -2.3848 -1.4357
  156SAPE   H3S17383   1.454   7.354  10.222 -0.1728  0.1573 -1.4531
  156SAPE   C2417384   1.408   7.252  10.044  0.1765 -0.7999  0.0034
  156SAPE   H4R17385   1.478   7.329  10.003 -2.6306  1.5861 -0.6827
  156SAPE   H4S17386   1.303   7.285  10.027 -0.0582 -2.0319 -1.0637
  156SAPE   C2517387   1.428   7.118   9.968 -0.2823 -0.0405 -0.1159
  156SAPE   H5R17388   1.436   7.031  10.035 -1.3667 -1.0364 -1.2319
  156SAPE   C2617389   1.435   7.114   9.831  0.2609 -0.5255 -0.2361
  156SAPE   H6R17390   1.446   7.014   9.785 -1.0967 -1.1468  0.7093
  156SAPE   C2717391   1.421   7.235   9.736  0.4048  0.2093  0.3331
  156SAPE   H7R17392   1.437   7.333   9.784 -0.4068  0.4606  0.1050
  156SAPE   H7S17393   1.313   7.243   9.713 -0.1131 -3.2972  1.0028
  156SAPE   C2817394   1.495   7.229   9.602 -0.8995  0.2691 -0.1372
  156SAPE   H8R17395   1.582   7.296   9.600 -0.1141 -0.7040 -2.8784
  156SAPE   C2917396   1.478   7.170   9.487  0.2410  0.0135  0.3390
  156SAPE   H9R17397   1.554   7.195   9.412 -0.7911 -2.4584 -1.7156
  156SAPE  C21017398   1.383   7.061   9.454 -0.3507  1.1061 -0.5040
  156SAPE  H10R17399   1.286   7.090   9.499  0.5897  2.6249  0.6575
  156SAPE  H10S17400   1.428   6.972   9.505 -0.4660  1.0719 -0.4599
  156SAPE  C21117401   1.366   7.029   9.308 -0.3704  0.5228  0.4523
  156SAPE  H11R17402   1.421   7.088   9.233 -0.1364 -1.0623 -0.6755
  156SAPE  C21217403   1.305   6.924   9.259 -0.1598  0.5639  0.0492
  156SAPE  H12R17404   1.304   6.910   9.150  0.6651 -3.0688  0.3834
  156SAPE  C21317405   1.239   6.819   9.346  0.4960  0.4528  0.3944
  156SAPE  H13R17406   1.253   6.833   9.455 -0.2773 -0.3920  0.6172
  156SAPE  H13S17407   1.289   6.723   9.322  0.4385  0.3425  0.7127
  156SAPE  C21417408   1.093   6.811   9.320  0.1895  0.5523  0.4720
  156SAPE  H14R17409   1.031   6.865   9.392 -0.2949  1.0695 -0.3233
  156SAPE  C21517410   1.031   6.751   9.215 -0.0056 -0.0091 -0.0439
  156SAPE  H15R17411   0.921   6.753   9.220  0.0591 -0.2315  2.1390
  156SAPE  C21617412   1.089   6.684   9.092  0.1153 -0.6307  0.1273
  156SAPE  H16R17413   1.193   6.648   9.108  0.9309  0.2262 -2.7911
  156SAPE  H16S17414   1.108   6.759   9.014 -2.3679 -1.9324 -1.8758
  156SAPE  C21717415   1.001   6.577   9.035 -0.1123  0.7205  0.1594
  156SAPE  H17R17416   1.039   6.549   8.935  0.0205  0.8323  0.1788
  156SAPE  H17S17417   0.894   6.608   9.034 -0.1257  0.7886  1.7742
  156SAPE  C21817418   1.001   6.455   9.125 -0.1755  0.2427 -0.5326
  156SAPE  H18R17419   0.980   6.500   9.225 -2.4219  1.4746 -1.4880
  156SAPE  H18S17420   1.108   6.427   9.127 -0.3486 -0.4362 -0.6288
  156SAPE  C21917421   0.912   6.334   9.090  0.0055  0.4791  0.2456
  156SAPE  H19R17422   0.929   6.292   8.988 -3.5114 -1.3788  0.2993
  156SAPE  H19S17423   0.807   6.371   9.092 -0.0331  0.3522  0.4537
  156SAPE  C22017424   0.929   6.220   9.196 -0.4947 -0.0104  0.1962
  156SAPE  H20R17425   1.033   6.228   9.235 -0.3897  0.6592 -0.1978
  156SAPE  H20S17426   0.912   6.120   9.152 -1.6249 -0.0111  0.6010
  156SAPE  H20T17427   0.858   6.235   9.280 -1.5675  0.3547 -0.7570
  156SAPE   C3317428   0.988   6.991   9.704  0.3485  0.8036 -0.4361
  156SAPE   H3X17429   0.933   7.034   9.790  2.2204 -1.7876  2.2510
  156SAPE   H3Y17430   0.934   6.897   9.680 -0.6477 -0.0290  4.1039
  156SAPE   C3417431   0.976   7.090   9.591 -0.1118 -0.8222  0.4946
  156SAPE   H4X17432   1.023   7.056   9.496 -1.8864 -0.8177 -0.4240
  156SAPE   H4Y17433   1.029   7.179   9.631 -0.0404 -1.1340  1.1006
  156SAPE   C3517434   0.829   7.127   9.544 -0.2351 -0.5603  0.3115
  156SAPE   H5X17435   0.768   7.161   9.630  0.5617  0.5575  0.4598
  156SAPE   H5Y17436   0.778   7.035   9.507  0.3649 -1.7206  2.2666
  156SAPE   C3617437   0.828   7.235   9.435 -0.3141  0.9843 -0.2797
  156SAPE   H6X17438   0.897   7.322   9.449  0.0173  0.5564  0.8647
  156SAPE   H6Y17439   0.727   7.281   9.444  0.0301  1.5226  1.1785
  156SAPE   C3717440   0.840   7.183   9.291 -0.4626 -0.3737  0.6091
  156SAPE   H7X17441   0.764   7.102   9.287 -0.9421  0.1220 -1.0031
  156SAPE   H7Y17442   0.944   7.144   9.294 -0.6111 -0.8039  0.2157
  156SAPE   C3817443   0.819   7.293   9.190 -0.6310  0.0331  0.0092
  156SAPE   H8X17444   0.853   7.393   9.224 -0.8305  0.3205 -0.6218
  156SAPE   H8Y17445   0.709   7.312   9.181 -0.7600 -0.3481  0.7028
  156SAPE   C3917446   0.890   7.265   9.059 -0.1869  0.6746  0.6394
  156SAPE   H9X17447   0.998   7.261   9.085 -0.7727 -1.7700  3.1153
  156SAPE   H9Y17448   0.876   7.343   8.981  0.2936  0.2464  0.1116
  156SAPE  C31017449   0.849   7.132   8.993  0.1169  0.5311  0.2914
  156SAPE  H10X17450   0.744   7.123   8.960  0.6996 -3.1127 -0.9608
  156SAPE  H10Y17451   0.870   7.050   9.066 -1.8445 -2.0629 -1.8644
  156SAPE  C31117452   0.947   7.095   8.885  0.5169  0.0216  0.0204
  156SAPE  H11X17453   0.969   6.988   8.906 -0.9772  0.0794  2.2308
  156SAPE  H11Y17454   1.045   7.139   8.916 -0.5160  1.2957  1.6395
  156SAPE  C31217455   0.886   7.113   8.745  0.3335 -0.0104 -0.3230
  156SAPE  H12X17456   0.789   7.060   8.736 -0.1684  1.0644 -1.7655
  156SAPE  H12Y17457   0.966   7.084   8.673 -0.4818  1.4543 -1.9075
  156SAPE  C31317458   0.852   7.263   8.709 -0.1590 -0.5729  0.0807
  156SAPE  H13X17459   0.944   7.323   8.691 -0.2808 -0.8334 -1.5469
  156SAPE  H13Y17460   0.794   7.309   8.792  0.8183  1.5997 -0.3690
  156SAPE  C31417461   0.766   7.273   8.580 -0.0335  0.3515  0.4233
  156SAPE  H14X17462   0.693   7.191   8.563  1.0324 -0.7276  0.8948
  156SAPE  H14Y17463   0.834   7.257   8.493 -1.2212 -1.8991 -0.1609
  156SAPE  C31517464   0.701   7.407   8.557 -0.2215 -0.2262  0.3274
  156SAPE  H15X17465   0.782   7.483   8.561 -0.1730 -0.0181 -2.5504
  156SAPE  H15Y17466   0.619   7.430   8.629  0.0103  1.9336 -0.0445
  156SAPE  C31617467   0.652   7.420   8.412 -0.8088  0.6333 -0.1096
  156SAPE  H16X17468   0.735   7.433   8.339 -0.9108 -2.3632 -0.8976
  156SAPE  H16Y17469   0.587   7.510   8.420  1.6101  2.3698  1.2694
  156SAPE  C31717470   0.560   7.308   8.365  0.2881 -0.5318  0.3224
  156SAPE  H17X17471   0.484   7.296   8.446  1.0187  0.4894  1.1841
  156SAPE  H17Y17472   0.614   7.212   8.352 -0.5956 -1.2928  1.9248
  156SAPE  C31817473   0.486   7.350   8.232 -0.2048 -0.9408  0.4072
  156SAPE  H18X17474   0.566   7.353   8.154  0.4016  1.3577  1.0196
  156SAPE  H18Y17475   0.434   7.449   8.233  0.2334 -0.5159 -3.4003
  156SAPE  H18Z17476   0.407   7.280   8.197  0.4435 -1.0048 -1.0055
  157SAPE     N17477   5.930   1.320  11.067  0.0962  0.0884  0.0572
  157SAPE   HN117478   5.860   1.386  11.107 -1.0901 -1.6001  0.8961
  157SAPE   HN217479   5.964   1.247  11.134  0.2653 -1.1800 -1.3615
  157SAPE   HN317480   6.005   1.369  11.015 -1.7779  2.1934 -0.7932
  157SAPE   C1217481   5.839   1.260  10.957 -0.2086  0.6435 -0.1422
  157SAPE  H12A17482   5.764   1.194  11.007  1.4045 -0.2175  1.2542
  157SAPE  H12B17483   5.916   1.202  10.902  0.1918 -0.3727  1.4112
  157SAPE   C1117484   5.775   1.361  10.866  0.3257  0.1929  0.4937
  157SAPE  H11A17485   5.731   1.441  10.929  0.1080 -0.3422  1.0207
  157SAPE  H11B17486   5.697   1.304  10.811  1.5255 -0.2830 -0.7809
  157SAPE     P17487   5.892   1.368  10.631  0.2787 -0.2073 -0.1631
  157SAPE   O1317488   5.918   1.488  10.550 -0.2896 -0.3171  0.0970
  157SAPE   O1417489   5.993   1.256  10.625 -0.5538 -0.8199  0.0505
  157SAPE   O1217490   5.881   1.411  10.785 -0.7078 -0.1805 -0.3370
  157SAPE   O1117491   5.744   1.314  10.589 -0.1983  0.6469 -0.1378
  157SAPE    C117492   5.720   1.173  10.555 -0.1320  0.6111 -0.4773
  157SAPE    HA17493   5.797   1.103  10.595 -1.3840  0.2492  1.4493
  157SAPE    HB17494   5.620   1.142  10.593  1.0182 -2.4852  0.2736
  157SAPE    C217495   5.722   1.167  10.400 -0.0260  0.4049 -0.0217
  157SAPE    HS17496   5.687   1.068  10.363 -0.5105  1.2159 -1.8891
  157SAPE   O2117497   5.853   1.192  10.353 -0.1195 -0.4277 -0.0330
  157SAPE   C2117498   5.953   1.108  10.367 -0.2100  0.8621 -0.3071
  157SAPE   O2217499   5.936   0.993  10.410  0.0196 -0.0107 -0.1771
  157SAPE   C2217500   6.088   1.170  10.312 -0.2105  0.7972  0.4494
  157SAPE   H2R17501   6.066   1.254  10.243 -0.7422  0.5759  0.3464
  157SAPE   H2S17502   6.144   1.231  10.387  3.2788  1.1683 -2.2026
  157SAPE    C317503   5.620   1.264  10.330 -0.0271  0.2433 -0.4443
  157SAPE    HX17504   5.644   1.370  10.348  0.7027  0.1148 -0.6378
  157SAPE    HY17505   5.521   1.242  10.376 -0.0396 -0.2374 -0.6883
  157SAPE   O3117506   5.616   1.224  10.187  0.0894 -0.4564 -0.4614
  157SAPE   C3117507   5.690   1.285  10.103  0.4298  0.2732 -0.3819
  157SAPE   O3217508   5.768   1.376  10.128  0.0619 -0.0300 -0.3968
  157SAPE   C3217509   5.646   1.247   9.958 -0.1956  0.4065  0.1586
  157SAPE   H2X17510   5.545   1.202   9.953 -0.3389  0.6885  0.4373
  157SAPE   H2Y17511   5.722   1.180   9.915  1.0496  1.1121  1.1833
  157SAPE   C2317512   6.195   1.072  10.257  0.0529 -0.1905 -0.8048
  157SAPE   H3R17513   6.207   0.988  10.329  1.2974  0.3861 -0.3051
  157SAPE   H3S17514   6.295   1.120  10.260  0.5250 -0.9545 -2.5855
  157SAPE   C2417515   6.164   1.023  10.116  0.0831  0.9908  0.1612
  157SAPE   H4R17516   6.257   0.982  10.070 -0.6262  0.4958 -0.8652
  157SAPE   H4S17517   6.138   1.108  10.049  2.9899  1.5555 -0.3901
  157SAPE   C2517518   6.057   0.910  10.112 -0.1606 -0.1738  0.3552
  157SAPE   H5R17519   6.064   0.840  10.195  1.3775 -2.0645 -1.2671
  157SAPE   C2617520   5.963   0.886  10.015 -0.3586 -0.2516 -0.8282
  157SAPE   H6R17521   5.907   0.792  10.021  0.4406 -0.7707 -1.2780
  157SAPE   C2717522   5.950   0.971   9.893  0.0678  0.1129  0.2269
  157SAPE   H7R17523   5.978   1.076   9.913 -1.5944  0.5513  0.3888
  157SAPE   H7S17524   5.841   0.969   9.872 -0.2507  1.0145  1.6351
  157SAPE   C2817525   6.042   0.932   9.772  0.0043  0.1978  0.0767
  157SAPE   H8R17526   6.143   0.905   9.804 -0.7133 -1.8241  0.7832
  157SAPE   C2917527   5.992   0.893   9.650  0.1128 -0.1435 -0.0124
  157SAPE   H9R17528   6.066   0.882   9.569 -1.6406  0.6199 -1.7840
  157SAPE  C21017529   5.846   0.885   9.613  0.8904  0.3360  0.1940
  157SAPE  H10R17530   5.808   0.968   9.551 -0.3384 -0.4778 -0.1864
  157SAPE  H10S17531   5.779   0.876   9.702  2.9725 -0.4951  1.7779
  157SAPE  C21117532   5.825   0.758   9.528 -0.1919 -0.5728  0.2606
  157SAPE  H11R17533   5.818   0.663   9.583  4.6625 -0.1298  2.1457
  157SAPE  C21217534   5.825   0.755   9.394 -0.3698  0.2068  0.2630
  157SAPE  H12R17535   5.809   0.659   9.343  1.7622  0.1101 -0.3232
  157SAPE  C21317536   5.820   0.880   9.313  0.0096  0.8254  0.1245
  157SAPE  H13R17537   5.890   0.955   9.354 -1.4250  2.8091 -0.8884
  157SAPE  H13S17538   5.719   0.927   9.311 -0.2523  0.4441 -3.6689
  157SAPE  C21417539   5.857   0.858   9.171  0.2922 -0.0128 -0.1080
  157SAPE  H14R17540   5.912   0.764   9.154  0.7801  0.5998 -2.2678
  157SAPE  C21517541   5.819   0.932   9.067  0.7936  0.1341 -0.1644
  157SAPE  H15R17542   5.863   0.898   8.972 -2.1521 -0.7129 -1.3307
  157SAPE  C21617543   5.729   1.061   9.065 -0.2675  0.2896  0.6123
  157SAPE  H16R17544   5.789   1.141   9.016 -0.1994 -0.5658 -0.7704
  157SAPE  H16S17545   5.710   1.097   9.168 -2.7419  0.7750  0.0415
  157SAPE  C21717546   5.594   1.060   8.991 -0.6150 -0.1760 -0.2867
  157SAPE  H17R17547   5.533   1.150   9.012  0.0907  0.1379  0.4741
  157SAPE  H17S17548   5.540   0.973   9.033 -0.5726 -0.8136 -1.5027
  157SAPE  C21817549   5.613   1.033   8.841 -0.3457  0.4276 -0.3613
  157SAPE  H18R17550   5.511   1.020   8.799 -0.2884  1.2991 -0.8077
  157SAPE  H18S17551   5.677   0.944   8.827  1.0145  1.4003 -0.5016
  157SAPE  C21917552   5.684   1.145   8.763  0.1258 -0.0880  0.0849
  157SAPE  H19R17553   5.793   1.153   8.784  0.1628  2.9725 -0.7195
  157SAPE  H19S17554   5.629   1.241   8.779 -0.7933 -0.5940  0.0126
  157SAPE  C22017555   5.675   1.134   8.602 -0.5188  0.3791 -0.1827
  157SAPE  H20R17556   5.633   1.032   8.591  2.1468 -0.9120  0.7038
  157SAPE  H20S17557   5.782   1.133   8.573 -0.8152  1.4912 -1.3861
  157SAPE  H20T17558   5.610   1.216   8.563 -0.4105 -0.2029 -1.6393
  157SAPE   C3317559   5.644   1.368   9.860  0.5884 -0.1802  0.2898
  157SAPE   H3X17560   5.571   1.444   9.893  0.0318 -0.0058 -1.2567
  157SAPE   H3Y17561   5.589   1.337   9.769  1.9207 -0.3152 -0.5046
  157SAPE   C3417562   5.777   1.430   9.818 -0.0331  1.0459 -0.1983
  157SAPE   H4X17563   5.853   1.350   9.829 -1.4851 -0.4901 -0.8133
  157SAPE   H4Y17564   5.802   1.518   9.880  3.9560  0.5887 -0.9049
  157SAPE   C3517565   5.784   1.481   9.668  0.0116 -0.1147  0.1030
  157SAPE   H5X17566   5.883   1.526   9.649  0.8450 -1.7049  0.5093
  157SAPE   H5Y17567   5.703   1.557   9.660 -1.3188 -1.5863 -1.2993
  157SAPE   C3617568   5.756   1.375   9.560 -0.2457 -0.1109 -0.6374
  157SAPE   H6X17569   5.653   1.340   9.582  0.0939 -0.3704  0.6272
  157SAPE   H6Y17570   5.827   1.292   9.580 -3.5596 -2.8109  0.9197
  157SAPE   C3717571   5.763   1.433   9.421  0.1878 -0.7204 -0.9176
  157SAPE   H7X17572   5.863   1.479   9.406 -0.6975  1.0755 -1.5000
  157SAPE   H7Y17573   5.691   1.518   9.418  1.5710  0.4941 -0.6149
  157SAPE   C3817574   5.727   1.340   9.306  0.4509 -0.5108  0.3306
  157SAPE   H8X17575   5.618   1.319   9.307  0.4760 -0.9142 -1.7141
  157SAPE   H8Y17576   5.770   1.239   9.324  0.6938 -0.3809  0.4953
  157SAPE   C3917577   5.754   1.398   9.167  0.0626 -0.6747  0.5217
  157SAPE   H9X17578   5.754   1.309   9.099 -2.0718  1.2620 -2.2315
  157SAPE   H9Y17579   5.857   1.439   9.174 -0.4841  1.0454 -0.9308
  157SAPE  C31017580   5.652   1.513   9.126 -0.0246 -0.4071  0.3714
  157SAPE  H10X17581   5.682   1.606   9.179 -1.0697  0.3146 -0.2600
  157SAPE  H10Y17582   5.552   1.489   9.169  0.3647 -1.9985  0.4378
  157SAPE  C31117583   5.651   1.556   8.978  0.1564 -0.2447  0.5933
  157SAPE  H11X17584   5.608   1.475   8.915 -1.5886  1.1767 -0.1274
  157SAPE  H11Y17585   5.749   1.582   8.933 -0.1288 -0.7384 -0.3425
  157SAPE  C31217586   5.557   1.679   8.962  0.6335 -0.4656 -0.0416
  157SAPE  H12X17587   5.565   1.742   9.053 -0.7614 -1.3038  0.6976
  157SAPE  H12Y17588   5.451   1.648   8.971  0.5779  0.1731  2.0899
  157SAPE  C31317589   5.581   1.773   8.840 -0.0488  0.3423  0.2959
  157SAPE  H13X17590   5.568   1.710   8.749 -3.5196  2.1326 -0.5838
  157SAPE  H13Y17591   5.684   1.814   8.846  0.1207 -0.2535  2.0360
  157SAPE  C31417592   5.486   1.896   8.832 -0.0753 -0.1495  0.4842
  157SAPE  H14X17593   5.503   1.958   8.922  0.7866  0.5866 -0.1651
  157SAPE  H14Y17594   5.380   1.863   8.826 -0.0095 -0.4661  1.0399
  157SAPE  C31517595   5.520   1.994   8.714 -0.4419 -0.5491 -0.3053
  157SAPE  H15X17596   5.619   2.039   8.733 -0.7956 -0.1126  0.5739
  157SAPE  H15Y17597   5.457   2.085   8.724 -1.0093 -0.9987  0.3060
  157SAPE  C31617598   5.532   1.930   8.573  0.4271  0.1105 -0.5537
  157SAPE  H16X17599   5.436   1.885   8.541  0.2163  0.2559 -0.1335
  157SAPE  H16Y17600   5.605   1.848   8.580 -0.8468 -1.0402 -0.3577
  157SAPE  C31717601   5.573   2.038   8.466 -0.8885 -0.0878  0.2905
  157SAPE  H17X17602   5.671   2.073   8.504 -1.0445  0.4239  0.2265
  157SAPE  H17Y17603   5.507   2.122   8.496  1.0474  1.3765  0.6631
  157SAPE  C31817604   5.589   1.991   8.325  0.2759  0.6301  0.6329
  157SAPE  H18X17605   5.491   1.971   8.276  0.4423  1.9575 -0.3170
  157SAPE  H18Y17606   5.657   1.904   8.324 -0.0934  0.3347  0.9836
  157SAPE  H18Z17607   5.640   2.059   8.253 -1.7943  0.4950 -1.0669
  158SAPE     N17608   0.494   2.201  10.468  0.2325 -0.0717 -1.0439
  158SAPE   HN117609   0.398   2.199  10.430 -0.8787  1.1845  1.4380
  158SAPE   HN217610   0.557   2.249  10.401 -1.7630  3.0157 -0.8926
  158SAPE   HN317611   0.528   2.105  10.489  1.3796  0.4473 -0.3999
  158SAPE   C1217612   0.497   2.276  10.598  0.3344  0.4202 -0.7738
  158SAPE  H12A17613   0.595   2.327  10.610  0.0857  0.7708 -0.1790
  158SAPE  H12B17614   0.478   2.198  10.674  0.9829  0.3451 -0.6783
  158SAPE   C1117615   0.389   2.382  10.587 -0.5564 -1.1614 -0.1884
  158SAPE  H11A17616   0.425   2.473  10.534 -0.6172 -1.1654 -0.2374
  158SAPE  H11B17617   0.373   2.431  10.686 -0.5354  0.5891 -1.0019
  158SAPE     P17618   0.125   2.402  10.570 -0.0048 -0.2684  0.1830
  158SAPE   O1317619   0.026   2.379  10.460 -0.3009  0.4338  0.3319
  158SAPE   O1417620   0.086   2.367  10.712 -0.0016 -0.0662 -0.0478
  158SAPE   O1217621   0.261   2.332  10.532 -0.2353 -0.0255  0.0463
  158SAPE   O1117622   0.178   2.549  10.577 -0.1552  0.0904 -0.1587
  158SAPE    C117623   0.133   2.634  10.471 -0.0239  0.3044  0.5224
  158SAPE    HA17624   0.024   2.623  10.449  0.2153 -1.9494  0.2270
  158SAPE    HB17625   0.152   2.741  10.495 -2.0733  0.6239  0.9653
  158SAPE    C217626   0.218   2.621  10.343  0.3175  0.4149 -0.2920
  158SAPE    HS17627   0.223   2.512  10.323  0.4847  0.0640  1.4847
  158SAPE   O2117628   0.350   2.670  10.363 -0.3884  0.2337  1.1625
  158SAPE   C2117629   0.449   2.616  10.284 -0.4973  0.2911  0.3756
  158SAPE   O2217630   0.432   2.521  10.211  0.6841  0.0839  0.0841
  158SAPE   C2217631   0.579   2.701  10.302  0.2590 -0.8125  0.1361
  158SAPE   H2R17632   0.556   2.796  10.355 -0.3039 -0.9816  0.2025
  158SAPE   H2S17633   0.639   2.639  10.373  0.8251  1.7231  2.0067
  158SAPE    C317634   0.156   2.696  10.229  0.2255  0.7867  0.5422
  158SAPE    HX17635   0.172   2.804  10.253  0.6700  0.5894  1.1836
  158SAPE    HY17636   0.049   2.668  10.229  0.6789 -1.0907 -0.5068
  158SAPE   O3117637   0.214   2.667  10.104 -0.3685  0.3917  0.5158
  158SAPE   C3117638   0.180   2.560  10.036  0.1603 -0.5997  0.7069
  158SAPE   O3217639   0.090   2.481  10.075 -0.0760 -0.0981  0.9511
  158SAPE   C3217640   0.249   2.565   9.903  0.6579 -0.6307  0.3662
  158SAPE   H2X17641   0.357   2.577   9.925  0.0928  2.5425  1.9379
  158SAPE   H2Y17642   0.221   2.664   9.863 -2.1535 -1.6015 -0.2917
  158SAPE   C2317643   0.676   2.707  10.176 -0.3157 -0.0208 -0.5235
  158SAPE   H3R17644   0.694   2.610  10.125  3.8902  1.4933 -2.3504
  158SAPE   H3S17645   0.767   2.752  10.219 -1.0469  1.5519 -0.5559
  158SAPE   C2417646   0.619   2.804  10.069  0.7870 -0.1065 -0.2820
  158SAPE   H4R17647   0.616   2.908  10.108  0.4170 -0.6124  1.0710
  158SAPE   H4S17648   0.522   2.766  10.032  1.0394  0.7059 -1.8667
  158SAPE   C2517649   0.723   2.809   9.958  0.1691 -0.1095 -0.3199
  158SAPE   H5R17650   0.824   2.849   9.979  0.8199 -2.3091  1.1244
  158SAPE   C2617651   0.700   2.790   9.828  0.1877 -0.3829  0.4991
  158SAPE   H6R17652   0.788   2.813   9.766  0.1472  1.3430  1.0174
  158SAPE   C2717653   0.580   2.742   9.749  0.3824  0.0361 -0.0131
  158SAPE   H7R17654   0.501   2.714   9.822  0.7083  1.5717  0.9894
  158SAPE   H7S17655   0.611   2.649   9.698  1.7166 -0.1464  1.1021
  158SAPE   C2817656   0.532   2.846   9.648 -0.1510 -0.4892 -0.0676
  158SAPE   H8R17657   0.473   2.931   9.686 -0.7562  1.1142 -4.0640
  158SAPE   C2917658   0.556   2.849   9.508  0.2657  0.2647 -0.2444
  158SAPE   H9R17659   0.511   2.920   9.437  3.8681  0.3553 -2.6997
  158SAPE  C21017660   0.635   2.757   9.428 -0.7175 -0.2439  0.6279
  158SAPE  H10R17661   0.731   2.741   9.481  0.0451 -1.6725 -1.0704
  158SAPE  H10S17662   0.675   2.806   9.336  0.8086  1.5408  2.1448
  158SAPE  C21117663   0.573   2.623   9.402 -0.0477 -0.1170  0.5218
  158SAPE  H11R17664   0.555   2.553   9.485 -2.2344 -1.5510 -1.0628
  158SAPE  C21217665   0.543   2.577   9.282  0.2083 -0.6876  0.0819
  158SAPE  H12R17666   0.512   2.471   9.287  1.7638 -1.1078  2.0462
  158SAPE  C21317667   0.541   2.637   9.143 -0.1142  0.1982 -0.2673
  158SAPE  H13R17668   0.564   2.556   9.070  1.0082  0.5403 -0.2966
  158SAPE  H13S17669   0.626   2.708   9.136 -0.3857  0.6988  1.1198
  158SAPE  C21417670   0.415   2.715   9.111 -0.3814  0.3449 -0.5877
  158SAPE  H14R17671   0.355   2.750   9.196 -0.0288 -1.3600  0.4304
  158SAPE  C21517672   0.369   2.726   8.982  0.1575 -0.2384 -0.5925
  158SAPE  H15R17673   0.289   2.797   8.958 -0.8695 -1.4941 -1.0453
  158SAPE  C21617674   0.427   2.659   8.860  0.6903  0.6207  1.1125
  158SAPE  H16R17675   0.345   2.651   8.786  0.8745  0.4066  0.9321
  158SAPE  H16S17676   0.455   2.557   8.891  1.4880 -0.3503 -2.3549
  158SAPE  C21717677   0.547   2.741   8.808 -0.0353 -0.0909  0.2606
  158SAPE  H17R17678   0.624   2.744   8.887  1.5266 -2.1540 -1.0830
  158SAPE  H17S17679   0.519   2.846   8.783 -0.3386 -0.9521 -3.5692
  158SAPE  C21817680   0.614   2.683   8.687  0.5622 -0.0042 -0.6510
  158SAPE  H18R17681   0.674   2.591   8.704  0.1706 -0.0065  0.8297
  158SAPE  H18S17682   0.693   2.751   8.648  0.1116 -0.9560 -3.4989
  158SAPE  C21917683   0.527   2.668   8.565 -0.1897  0.9992  0.4824
  158SAPE  H19R17684   0.445   2.595   8.580 -1.3965  2.5050  1.3921
  158SAPE  H19S17685   0.588   2.627   8.481 -1.0407  0.9502 -0.1211
  158SAPE  C22017686   0.449   2.801   8.520 -0.1108 -0.2079 -0.4394
  158SAPE  H20R17687   0.398   2.842   8.609  2.7615  2.3272  0.1883
  158SAPE  H20S17688   0.378   2.783   8.436 -1.8796 -0.9513  1.1523
  158SAPE  H20T17689   0.518   2.881   8.485 -0.9424  1.3707  1.3651
  158SAPE   C3317690   0.217   2.449   9.808  0.2547  0.0685  0.3763
  158SAPE   H3X17691   0.107   2.434   9.808  0.2978 -0.6400 -1.7669
  158SAPE   H3Y17692   0.260   2.356   9.850  0.8880 -0.3203 -1.0564
  158SAPE   C3417693   0.251   2.484   9.667  0.0395  0.2291 -0.0632
  158SAPE   H4X17694   0.361   2.495   9.656 -0.1191  0.0509 -2.2121
  158SAPE   H4Y17695   0.207   2.584   9.649 -0.0062  0.2552  0.1879
  158SAPE   C3517696   0.205   2.374   9.575 -0.4757 -0.2502  0.8226
  158SAPE   H5X17697   0.098   2.347   9.586  0.2990 -3.7201  1.3020
  158SAPE   H5Y17698   0.276   2.289   9.589 -0.8028 -0.5382  0.7460
  158SAPE   C3617699   0.244   2.419   9.426 -0.3205  0.2539  0.0863
  158SAPE   H6X17700   0.353   2.421   9.407  0.1548  0.0730  2.4431
  158SAPE   H6Y17701   0.212   2.526   9.425  1.3403  0.7822 -0.0398
  158SAPE   C3717702   0.186   2.322   9.319  0.1999 -0.4322 -0.0860
  158SAPE   H7X17703   0.078   2.317   9.346  0.2430  3.5178  1.6183
  158SAPE   H7Y17704   0.229   2.221   9.334  0.7352 -0.5535 -2.1298
  158SAPE   C3817705   0.195   2.384   9.183 -1.1142  0.3039  0.0277
  158SAPE   H8X17706   0.302   2.373   9.156 -1.3194  0.5573 -0.9434
  158SAPE   H8Y17707   0.164   2.490   9.172 -0.7462  0.1835 -3.0210
  158SAPE   C3917708   0.108   2.316   9.072 -0.6373  0.5012 -0.1484
  158SAPE   H9X17709  -0.001   2.322   9.090 -0.8982 -2.5456 -0.2077
  158SAPE   H9Y17710   0.147   2.214   9.053  2.8051  1.4388  1.0369
  158SAPE  C31017711   0.134   2.395   8.940  0.3333 -0.0143 -0.6971
  158SAPE  H10X17712   0.244   2.395   8.930  0.4370  2.0757 -0.0351
  158SAPE  H10Y17713   0.107   2.501   8.960  2.4854  0.5116 -0.3388
  158SAPE  C31117714   0.056   2.351   8.818 -0.1073  0.7991  0.3964
  158SAPE  H11X17715  -0.050   2.329   8.842 -0.1898  0.2368 -0.4572
  158SAPE  H11Y17716   0.087   2.250   8.785  1.1902  1.1739  0.3896
  158SAPE  C31217717   0.078   2.458   8.708  0.6583 -0.8407  0.2345
  158SAPE  H12X17718   0.173   2.512   8.728 -0.8534  2.0861  0.0361
  158SAPE  H12Y17719  -0.003   2.533   8.710  0.3585 -1.1742  0.7798
  158SAPE  C31317720   0.086   2.401   8.567  0.0211  0.1394  1.1604
  158SAPE  H13X17721  -0.013   2.360   8.541  1.0631 -1.0072 -1.2432
  158SAPE  H13Y17722   0.150   2.311   8.567 -0.2605 -0.0664  1.7218
  158SAPE  C31417723   0.113   2.500   8.451 -0.0951  0.1693  0.0723
  158SAPE  H14X17724   0.190   2.563   8.500 -0.0083  1.5730 -1.7700
  158SAPE  H14Y17725   0.025   2.562   8.426 -0.4869  0.5957  2.2930
  158SAPE  C31517726   0.171   2.432   8.330  0.0840  0.2019  0.5858
  158SAPE  H15X17727   0.100   2.358   8.288  0.2637 -1.2791  2.7437
  158SAPE  H15Y17728   0.264   2.376   8.353  1.0918  1.8587  0.7511
  158SAPE  C31617729   0.195   2.535   8.219 -0.0680 -0.2392  0.4439
  158SAPE  H16X17730   0.263   2.619   8.247  1.5425 -1.2120 -0.3915
  158SAPE  H16Y17731   0.096   2.578   8.193  0.9063  0.7770 -1.8744
  158SAPE  C31717732   0.253   2.464   8.099  0.1911 -0.5991 -0.7331
  158SAPE  H17X17733   0.185   2.380   8.072 -1.5909  0.6456 -0.3080
  158SAPE  H17Y17734   0.338   2.403   8.136  1.0942 -0.0989 -1.9340
  158SAPE  C31817735   0.284   2.559   7.981 -0.4602  0.3606  0.0682
  158SAPE  H18X17736   0.190   2.596   7.935 -0.6674 -0.3568 -0.0985
  158SAPE  H18Y17737   0.344   2.507   7.903 -1.1296 -2.3727  1.2881
  158SAPE  H18Z17738   0.337   2.650   8.017  0.8052 -0.0947 -0.5999
  159SAPE     N17739   0.668   0.700   6.203  0.4599  0.4717  0.2891
  159SAPE   HN117740   0.714   0.755   6.127 -4.7526 -0.1809 -4.0267
  159SAPE   HN217741   0.671   0.605   6.159 -0.7261  0.7038 -0.3730
  159SAPE   HN317742   0.570   0.735   6.193  0.2734 -0.0473  0.2434
  159SAPE   C1217743   0.708   0.705   6.349 -0.5969  0.5570 -0.0006
  159SAPE  H12A17744   0.648   0.636   6.411 -1.5781  1.6461  0.3087
  159SAPE  H12B17745   0.691   0.813   6.373  1.8895  1.8642 -3.3335
  159SAPE   C1117746   0.863   0.675   6.357  0.1517 -0.4807 -0.2967
  159SAPE  H11A17747   0.892   0.708   6.459 -0.7596  0.4518 -0.3210
  159SAPE  H11B17748   0.913   0.736   6.279 -0.1024 -0.5238 -0.4940
  159SAPE     P17749   0.894   0.432   6.436 -0.0512  0.0244  0.5491
  159SAPE   O1317750   0.762   0.417   6.495  0.2439  0.2592  0.3526
  159SAPE   O1417751   0.958   0.320   6.368  0.1117  0.1872 -0.9816
  159SAPE   O1217752   0.890   0.539   6.325  0.2308  0.5312 -0.5406
  159SAPE   O1117753   0.995   0.493   6.538  0.3683  0.2293  0.1810
  159SAPE    C117754   0.956   0.540   6.665 -0.0272  0.2013 -0.1835
  159SAPE    HA17755   0.904   0.639   6.660 -2.3276 -0.9761 -1.0935
  159SAPE    HB17756   0.883   0.475   6.718  0.5013  0.2167  0.5695
  159SAPE    C217757   1.081   0.544   6.763 -0.0462 -0.5677 -0.3662
  159SAPE    HS17758   1.085   0.447   6.816  0.1597  0.9120  2.4852
  159SAPE   O2117759   1.063   0.649   6.870  0.4842  0.3573 -0.1402
  159SAPE   C2117760   0.952   0.633   6.945  0.3530 -0.1570 -0.5030
  159SAPE   O2217761   0.881   0.529   6.949 -0.3595 -0.0808  0.0431
  159SAPE   C2217762   0.943   0.762   7.027  0.2003  0.1956  1.0094
  159SAPE   H2R17763   1.037   0.821   7.021 -0.3192  0.8963 -1.1681
  159SAPE   H2S17764   0.865   0.818   6.972 -0.5718 -0.3107  1.5552
  159SAPE    C317765   1.223   0.568   6.700 -0.1806 -0.2438  0.2899
  159SAPE    HX17766   1.217   0.635   6.612 -1.8414 -1.6049 -0.6935
  159SAPE    HY17767   1.262   0.472   6.661  0.4364 -0.0723  0.4650
  159SAPE   O3117768   1.323   0.612   6.802 -0.1711 -0.0626 -0.5344
  159SAPE   C3117769   1.346   0.751   6.801 -0.5174  0.6633  0.5135
  159SAPE   O3217770   1.285   0.829   6.730 -0.7359  0.5373 -0.3109
  159SAPE   C3217771   1.437   0.774   6.925  0.2450 -0.3750 -0.3157
  159SAPE   H2X17772   1.542   0.742   6.910  0.8290  0.9085  0.7725
  159SAPE   H2Y17773   1.398   0.708   7.006  0.2517 -1.4106 -1.1427
  159SAPE   C2317774   0.887   0.741   7.173 -0.2835 -0.6768 -0.2957
  159SAPE   H3R17775   0.813   0.659   7.172  1.3930 -2.2514 -0.3596
  159SAPE   H3S17776   0.834   0.837   7.188  1.5076  0.5813 -1.4952
  159SAPE   C2417777   1.007   0.719   7.263 -0.7712  0.0566 -0.1450
  159SAPE   H4R17778   0.994   0.753   7.367  0.0764  1.0480 -0.3461
  159SAPE   H4S17779   1.098   0.773   7.229 -0.7977 -0.3233 -0.8547
  159SAPE   C2517780   1.039   0.572   7.267 -0.2068 -0.2631  0.7045
  159SAPE   H5R17781   1.094   0.539   7.178 -0.3279  1.1925  0.0544
  159SAPE   C2617782   1.027   0.492   7.371  0.9561 -0.5813 -0.3295
  159SAPE   H6R17783   1.053   0.386   7.363  2.6712 -0.3784  1.7383
  159SAPE   C2717784   0.970   0.508   7.508 -0.5194 -0.1641  0.2583
  159SAPE   H7R17785   0.961   0.617   7.531  0.0022  0.2741 -1.4543
  159SAPE   H7S17786   1.031   0.461   7.588  0.2298 -2.5426 -1.6109
  159SAPE   C2817787   0.835   0.438   7.517 -0.3923 -0.0085  0.4408
  159SAPE   H8R17788   0.807   0.359   7.446 -0.3597 -0.7204  1.2194
  159SAPE   C2917789   0.737   0.478   7.605 -0.3494 -0.8031  0.3799
  159SAPE   H9R17790   0.640   0.426   7.610 -0.0921 -1.3191  0.0496
  159SAPE  C21017791   0.756   0.588   7.707  0.3393  0.6623  0.3305
  159SAPE  H10R17792   0.692   0.673   7.674 -0.4413 -0.1073 -0.1906
  159SAPE  H10S17793   0.861   0.624   7.713 -0.3429  2.7681  0.4795
  159SAPE  C21117794   0.707   0.545   7.843  0.1715  0.3905  0.1055
  159SAPE  H11R17795   0.606   0.583   7.868  0.4492 -0.0116  1.9437
  159SAPE  C21217796   0.753   0.454   7.930 -0.9517 -0.2267 -0.8970
  159SAPE  H12R17797   0.694   0.441   8.022  1.4473  0.7231  0.8561
  159SAPE  C21317798   0.886   0.382   7.916 -0.5334  0.3092  0.1542
  159SAPE  H13R17799   0.954   0.442   7.981 -0.5524  0.9576 -0.4159
  159SAPE  H13S17800   0.918   0.387   7.810  0.1202 -3.6370  0.0206
  159SAPE  C21417801   0.894   0.234   7.963 -0.3096 -0.1244  0.2938
  159SAPE  H14R17802   0.900   0.218   8.072  0.0521 -2.3745  0.0001
  159SAPE  C21517803   0.899   0.133   7.881  1.0459  0.1258  0.6502
  159SAPE  H15R17804   0.926   0.030   7.908  2.7918 -0.0159 -1.3448
  159SAPE  C21617805   0.901   0.143   7.737  0.3678  0.1375 -0.1159
  159SAPE  H16R17806   0.984   0.205   7.699  0.6087  1.4628  2.3902
  159SAPE  H16S17807   0.807   0.183   7.693  0.0923 -0.1228  0.2204
  159SAPE  C21717808   0.912  -0.003   7.674 -0.6500 -0.0579 -0.0886
  159SAPE  H17R17809   0.830  -0.072   7.704 -0.9301  0.4599  0.3683
  159SAPE  H17S17810   1.004  -0.052   7.710 -0.1800  0.6515 -0.3070
  159SAPE  C21817811   0.916  -0.011   7.518  0.3075  0.7212  0.7937
  159SAPE  H18R17812   0.808  -0.001   7.495  0.5460  3.5330  0.5191
  159SAPE  H18S17813   0.942  -0.113   7.483  1.4551  2.3855 -4.1649
  159SAPE  C21917814   1.005   0.086   7.443 -0.1191  0.5450  0.2645
  159SAPE  H19R17815   1.109   0.064   7.476 -0.6700 -1.7160  0.6708
  159SAPE  H19S17816   0.973   0.188   7.474  1.7443  1.6651 -1.3180
  159SAPE  C22017817   1.006   0.068   7.291  0.0214 -0.3101  0.4216
  159SAPE  H20R17818   1.048   0.158   7.242 -2.1570  1.2167  1.1842
  159SAPE  H20S17819   0.907   0.038   7.250 -0.2242  1.7533 -0.5667
  159SAPE  H20T17820   1.085  -0.006   7.264  2.2402  1.6387  1.1932
  159SAPE   C3317821   1.432   0.919   6.990  0.4217 -0.4669  0.0209
  159SAPE   H3X17822   1.330   0.959   6.973  0.0105 -1.1490  0.8339
  159SAPE   H3Y17823   1.504   0.984   6.934  0.3721 -0.8394 -0.4780
  159SAPE   C3417824   1.459   0.928   7.138 -0.3286  0.3259  1.0076
  159SAPE   H4X17825   1.506   1.023   7.169  0.5342 -0.6010  2.6966
  159SAPE   H4Y17826   1.542   0.855   7.152 -1.0425 -0.4612  1.2185
  159SAPE   C3517827   1.337   0.891   7.228 -0.1679  0.1790  1.0525
  159SAPE   H5X17828   1.300   0.790   7.201  0.0670  0.6211 -1.1285
  159SAPE   H5Y17829   1.258   0.956   7.185  1.9528  1.4835 -1.1388
  159SAPE   C3617830   1.357   0.907   7.377 -0.4625  0.4322  0.5620
  159SAPE   H6X17831   1.276   0.850   7.428  1.2739  0.6798  3.8298
  159SAPE   H6Y17832   1.354   1.014   7.406 -0.9610  0.3719  0.7511
  159SAPE   C3717833   1.487   0.838   7.429 -0.3577 -0.5970 -0.4368
  159SAPE   H7X17834   1.574   0.897   7.392  0.5243 -1.7851 -0.3193
  159SAPE   H7Y17835   1.488   0.738   7.379  2.2776  0.5455 -2.9571
  159SAPE   C3817836   1.489   0.813   7.578  0.0172 -0.0362  0.1344
  159SAPE   H8X17837   1.579   0.751   7.599  0.3555  0.2681 -0.4106
  159SAPE   H8Y17838   1.402   0.747   7.601 -1.0171  0.0892 -2.9164
  159SAPE   C3917839   1.475   0.935   7.669  0.0767 -0.3084 -0.1377
  159SAPE   H9X17840   1.393   1.002   7.636  0.7713  0.7474  0.1912
  159SAPE   H9Y17841   1.576   0.981   7.660  1.2448 -3.0482 -2.7160
  159SAPE  C31017842   1.430   0.904   7.815  0.0309 -0.1153  0.0276
  159SAPE  H10X17843   1.476   0.815   7.862 -1.4843  0.1329  2.1261
  159SAPE  H10Y17844   1.323   0.886   7.791 -1.5262  3.2803  3.3663
  159SAPE  C31117845   1.420   1.029   7.911  0.1907 -0.3301 -0.5997
  159SAPE  H11X17846   1.374   1.111   7.852 -0.0760 -0.0486 -0.0070
  159SAPE  H11Y17847   1.522   1.056   7.947 -0.0707  0.1335 -0.1857
  159SAPE  C31217848   1.329   0.983   8.030  0.0927 -0.9000 -0.6777
  159SAPE  H12X17849   1.225   0.956   8.001 -0.2941  0.4622 -0.6320
  159SAPE  H12Y17850   1.328   1.068   8.101 -0.2880 -0.6636 -0.9656
  159SAPE  C31317851   1.388   0.860   8.118  0.5092 -0.3030  0.5367
  159SAPE  H13X17852   1.479   0.903   8.165 -0.8061  0.2347  2.7581
  159SAPE  H13Y17853   1.402   0.768   8.056  0.2423  0.1298 -0.1745
  159SAPE  C31417854   1.287   0.817   8.231 -0.6533 -0.4241  0.1906
  159SAPE  H14X17855   1.185   0.810   8.190 -0.1863 -1.0021 -0.9211
  159SAPE  H14Y17856   1.297   0.889   8.315  1.2372 -0.8023  0.3402
  159SAPE  C31517857   1.335   0.687   8.304  0.0576 -0.3071 -0.3604
  159SAPE  H15X17858   1.437   0.713   8.342 -0.1812 -0.3550  0.3357
  159SAPE  H15Y17859   1.343   0.612   8.222  1.3423  0.1733 -0.7039
  159SAPE  C31617860   1.238   0.649   8.414 -0.6577  0.0962 -0.2081
  159SAPE  H16X17861   1.200   0.743   8.460  1.4805  1.1198 -0.4289
  159SAPE  H16Y17862   1.278   0.577   8.488  0.5058 -0.6574 -1.5145
  159SAPE  C31717863   1.112   0.584   8.347 -0.3790 -0.4491 -0.8116
  159SAPE  H17X17864   1.066   0.652   8.272 -1.1757 -2.6129 -2.3825
  159SAPE  H17Y17865   1.032   0.572   8.423 -0.2273  0.8215 -0.4417
  159SAPE  C31817866   1.133   0.452   8.282 -0.1608  0.1357 -0.0421
  159SAPE  H18X17867   1.213   0.450   8.205 -0.5791  0.0439 -0.4855
  159SAPE  H18Y17868   1.042   0.408   8.235  0.5559 -2.2652  0.6806
  159SAPE  H18Z17869   1.164   0.376   8.357  0.2093 -0.6159 -0.9347
  160SAPE     N17870   6.719   0.471   6.611 -0.2314 -0.0646 -0.9624
  160SAPE   HN117871   6.735   0.535   6.531  1.4292 -0.2451 -0.8058
  160SAPE   HN217872   6.687   0.381   6.569  0.5097  0.5327 -2.8865
  160SAPE   HN317873   6.645   0.500   6.678  2.4337  0.3916  2.0209
  160SAPE   C1217874   6.850   0.446   6.688  0.2965  0.6284  1.0868
  160SAPE  H12A17875   6.889   0.345   6.662  1.8824  1.1804  1.1783
  160SAPE  H12B17876   6.827   0.440   6.796  0.1406 -4.0292  0.9862
  160SAPE   C1117877   6.953   0.553   6.651 -0.5688  0.0955 -0.1789
  160SAPE  H11A17878   7.046   0.529   6.707 -2.5661 -0.9162  3.0395
  160SAPE  H11B17879   6.916   0.654   6.680  1.3426  0.9639 -0.6354
  160SAPE     P17880   7.087   0.631   6.436 -0.0050  0.2552 -0.0515
  160SAPE   O1317881   7.177   0.534   6.367 -0.5781 -0.2864  0.3046
  160SAPE   O1417882   7.034   0.736   6.343 -0.1732 -0.1816  0.0745
  160SAPE   O1217883   6.976   0.547   6.514  0.4405 -0.3205 -0.1396
  160SAPE   O1117884   7.178   0.698   6.544 -0.3469 -0.1851 -0.5397
  160SAPE    C117885   7.186   0.844   6.559 -0.4133  0.6882 -0.5544
  160SAPE    HA17886   7.223   0.895   6.467  2.4886  0.5352  0.4010
  160SAPE    HB17887   7.086   0.884   6.586 -0.7431  0.9677 -2.1073
  160SAPE    C217888   7.278   0.883   6.683 -1.0346  0.4959  0.5316
  160SAPE    HS17889   7.381   0.890   6.642 -1.0517  1.2897  0.6044
  160SAPE   O2117890   7.270   0.777   6.779 -0.2677 -0.2229  0.0951
  160SAPE   C2117891   7.386   0.758   6.844 -0.4852 -0.4251 -0.1850
  160SAPE   O2217892   7.492   0.810   6.821 -0.7239 -0.0859 -0.2708
  160SAPE   C2217893   7.353   0.670   6.966  0.8528  0.5433 -0.6701
  160SAPE   H2R17894   7.295   0.581   6.934  1.5751 -0.6513  1.1800
  160SAPE   H2S17895   7.452   0.634   7.002  0.3706  0.1006  0.2509
  160SAPE    C317896   7.241   1.018   6.739  0.2181  0.2137  0.1572
  160SAPE    HX17897   7.139   1.010   6.782  0.6623  1.9947  1.7231
  160SAPE    HY17898   7.233   1.080   6.647  0.7650  2.6992  1.6912
  160SAPE   O3117899   7.331   1.060   6.843 -0.5357 -0.0489 -0.1775
  160SAPE   C3117900   7.435   1.128   6.800  0.5537  0.1465 -0.0564
  160SAPE   O3217901   7.460   1.155   6.680  0.2721 -0.2738 -0.3014
  160SAPE   C3217902   7.504   1.187   6.917 -0.1114 -0.5859 -0.2547
  160SAPE   H2X17903   7.467   1.141   7.011 -4.2888  2.1053 -0.3297
  160SAPE   H2Y17904   7.471   1.293   6.924 -1.7876 -1.1006 -0.0068
  160SAPE   C2317905   7.260   0.749   7.068 -0.0421  0.7245  0.9462
  160SAPE   H3R17906   7.185   0.807   7.011 -2.0159 -1.7263  0.8664
  160SAPE   H3S17907   7.325   0.815   7.129  0.5768  2.3077 -1.2918
  160SAPE   C2417908   7.169   0.655   7.151  0.5467 -0.0995  0.2266
  160SAPE   H4R17909   7.231   0.569   7.186 -2.1060 -1.8674  0.8813
  160SAPE   H4S17910   7.083   0.616   7.092 -0.8752  0.7103  1.7070
  160SAPE   C2517911   7.097   0.724   7.266 -0.5132 -0.3340 -0.1161
  160SAPE   H5R17912   6.988   0.711   7.275 -0.2032 -2.3784  1.4289
  160SAPE   C2617913   7.152   0.781   7.370 -0.7923  0.0384  0.2319
  160SAPE   H6R17914   7.084   0.823   7.445  2.7683  0.0242  3.7611
  160SAPE   C2717915   7.302   0.776   7.406  0.7380  0.2369 -0.2445
  160SAPE   H7R17916   7.377   0.755   7.327 -0.0479 -0.5633 -0.7945
  160SAPE   H7S17917   7.309   0.687   7.472 -1.0732 -0.5731 -1.0783
  160SAPE   C2817918   7.329   0.908   7.469 -1.2021 -0.4141  0.3163
  160SAPE   H8R17919   7.378   0.983   7.405  0.9023 -0.6694  1.5201
  160SAPE   C2917920   7.310   0.943   7.598  0.7901 -0.1449 -0.1918
  160SAPE   H9R17921   7.311   1.051   7.618 -0.9046 -0.1300 -0.0780
  160SAPE  C21017922   7.236   0.859   7.701 -1.0374 -0.2004 -0.1843
  160SAPE  H10R17923   7.218   0.761   7.651 -0.8245  0.5960 -1.9153
  160SAPE  H10S17924   7.140   0.912   7.723 -0.1898  0.8995  0.9819
  160SAPE  C21117925   7.312   0.836   7.825 -0.5944 -0.2665 -0.7190
  160SAPE  H11R17926   7.422   0.844   7.826 -0.7049  1.5488 -0.0204
  160SAPE  C21217927   7.255   0.807   7.947 -0.1899 -0.4525 -0.0917
  160SAPE  H12R17928   7.325   0.787   8.030 -1.5142  0.4612  1.2799
  160SAPE  C21317929   7.111   0.781   7.968 -0.0958  0.5752 -0.7001
  160SAPE  H13R17930   7.045   0.850   7.912 -1.5308  1.0978  1.4892
  160SAPE  H13S17931   7.097   0.812   8.074 -0.7833 -2.9642  0.3747
  160SAPE  C21417932   7.070   0.631   7.972 -0.3506  0.0598  0.1178
  160SAPE  H14R17933   7.152   0.558   7.958 -0.3674  0.0077  0.2880
  160SAPE  C21517934   6.944   0.584   7.985  0.0542 -0.0823  0.3827
  160SAPE  H15R17935   6.936   0.475   7.990  2.3006 -0.4963 -2.6315
  160SAPE  C21617936   6.819   0.666   8.001  0.4651 -0.1828 -0.0550
  160SAPE  H16R17937   6.822   0.731   8.091 -0.3673 -0.7234  0.3729
  160SAPE  H16S17938   6.734   0.595   8.016  0.5823 -0.2494  0.2826
  160SAPE  C21717939   6.782   0.745   7.873  0.3003 -0.3758 -0.1667
  160SAPE  H17R17940   6.853   0.828   7.850  0.2167 -0.1019  0.5352
  160SAPE  H17S17941   6.681   0.791   7.885  1.1024  1.2914  0.5434
  160SAPE  C21817942   6.781   0.653   7.755 -0.2148  0.3869  0.8833
  160SAPE  H18R17943   6.726   0.558   7.775  1.1948 -1.0951 -1.7228
  160SAPE  H18S17944   6.885   0.626   7.727  0.7319 -0.4871  4.6087
  160SAPE  C21917945   6.700   0.707   7.628 -0.1510  0.3921 -0.1792
  160SAPE  H19R17946   6.760   0.794   7.591  0.7863  0.3074  1.0850
  160SAPE  H19S17947   6.604   0.743   7.670 -1.2645 -0.2717 -2.0354
  160SAPE  C22017948   6.679   0.607   7.513  0.1968 -0.2732  0.0705
  160SAPE  H20R17949   6.780   0.576   7.480  0.8769  1.2402  0.6428
  160SAPE  H20S17950   6.637   0.655   7.422 -1.5146 -1.0002  0.4292
  160SAPE  H20T17951   6.623   0.520   7.553 -1.9920  0.5871 -0.9485
  160SAPE   C3317952   7.654   1.186   6.904 -0.7651  0.1919  0.2669
  160SAPE   H3X17953   7.679   1.259   6.824  2.6382 -0.8956  0.1747
  160SAPE   H3Y17954   7.681   1.082   6.874 -1.5150  0.5919 -2.0066
  160SAPE   C3417955   7.731   1.229   7.033 -0.3166 -0.0711  0.1929
  160SAPE   H4X17956   7.693   1.330   7.060 -0.3093  0.1713 -0.6881
  160SAPE   H4Y17957   7.836   1.245   7.001 -0.7484  0.8799 -0.8298
  160SAPE   C3517958   7.729   1.140   7.157 -0.7854  0.1620  0.0250
  160SAPE   H5X17959   7.760   1.035   7.134 -0.7861 -0.0239  0.8301
  160SAPE   H5Y17960   7.628   1.129   7.201 -1.2487 -1.1909 -1.2844
  160SAPE   C3617961   7.832   1.179   7.266 -0.3584 -0.6419  0.0391
  160SAPE   H6X17962   7.826   1.287   7.288 -2.4960 -0.7419  0.1298
  160SAPE   H6Y17963   7.934   1.163   7.224  0.1213 -1.7631  1.5256
  160SAPE   C3717964   7.812   1.102   7.405  0.5122  0.3340 -0.6682
  160SAPE   H7X17965   7.893   1.131   7.476 -1.2433  0.5427  1.3655
  160SAPE   H7Y17966   7.836   0.999   7.373  0.5296  0.2441 -0.3648
  160SAPE   C3817967   7.684   1.139   7.484 -0.6795  0.0667  0.0342
  160SAPE   H8X17968   7.592   1.119   7.424  0.2818 -2.3876 -0.7493
  160SAPE   H8Y17969   7.680   1.245   7.517  0.9742  0.3775 -0.6657
  160SAPE   C3917970   7.650   1.041   7.603  0.1631 -0.3826  0.4781
  160SAPE   H9X17971   7.662   0.933   7.581  0.2172 -0.6185  1.6121
  160SAPE   H9Y17972   7.545   1.062   7.630 -0.2324 -0.7017 -0.7503
  160SAPE  C31017973   7.741   1.079   7.723 -0.4039  0.2110  0.6787
  160SAPE  H10X17974   7.739   1.190   7.728 -1.4085  0.5096 -3.2234
  160SAPE  H10Y17975   7.843   1.045   7.692 -1.3683 -1.5555 -0.7609
  160SAPE  C31117976   7.710   1.007   7.860  0.3856  0.5417 -0.0447
  160SAPE  H11X17977   7.799   0.996   7.926 -0.0692  2.5500  0.9505
  160SAPE  H11Y17978   7.673   0.904   7.841 -0.3195  0.5645  1.1075
  160SAPE  C31217979   7.601   1.082   7.936  0.2084  0.2700 -0.1739
  160SAPE  H12X17980   7.505   1.076   7.880  1.2805  0.8076 -2.1599
  160SAPE  H12Y17981   7.623   1.190   7.953 -2.0311  1.0072 -1.4891
  160SAPE  C31317982   7.591   1.016   8.071 -0.4898  0.3239  0.0890
  160SAPE  H13X17983   7.611   0.908   8.053 -2.1172  0.0294 -0.1061
  160SAPE  H13Y17984   7.486   1.024   8.108 -0.3998  1.0238  0.2034
  160SAPE  C31417985   7.683   1.069   8.171 -1.1622 -0.1627  0.3667
  160SAPE  H14X17986   7.664   1.175   8.195 -0.1243 -0.1493  1.2654
  160SAPE  H14Y17987   7.787   1.069   8.132 -0.2126 -0.7399  2.6990
  160SAPE  C31517988   7.681   0.986   8.296  0.0398  0.5479  0.2938
  160SAPE  H15X17989   7.678   0.876   8.280 -1.6124  0.9031 -2.5056
  160SAPE  H15Y17990   7.579   1.006   8.336  0.2900 -0.2456  1.3821
  160SAPE  C31617991   7.780   1.051   8.394  0.9663  0.2538  0.2438
  160SAPE  H16X17992   7.746   1.156   8.404  2.4182  0.8377 -0.5613
  160SAPE  H16Y17993   7.883   1.048   8.350  1.1881 -1.8053  0.8140
  160SAPE  C31717994   7.786   0.980   8.530  0.2537 -0.0158 -0.0336
  160SAPE  H17X17995   7.869   1.028   8.585  0.6683 -2.3916  1.5637
  160SAPE  H17Y17996   7.806   0.871   8.521  1.0037 -0.3489  3.9258
  160SAPE  C31817997   7.659   0.991   8.614  0.0544  0.2374 -0.4395
  160SAPE  H18X17998   7.666   0.942   8.714  0.4439  0.7090 -0.2306
  160SAPE  H18Y17999   7.578   0.936   8.562  0.0414 -0.7967  0.6167
  160SAPE  H18Z18000   7.631   1.096   8.636 -1.4270 -0.4348  1.1696
  161SAPE     N18001   2.005   4.390   6.310 -0.3199 -0.2432  0.7388
  161SAPE   HN118002   1.937   4.314   6.290 -0.5475 -0.1510  1.1486
  161SAPE   HN218003   1.965   4.484   6.290 -0.9025 -0.3585  1.3415
  161SAPE   HN318004   2.079   4.378   6.238 -1.3426  0.8744 -0.5458
  161SAPE   C1218005   2.058   4.401   6.453  0.2002 -0.4009 -0.4628
  161SAPE  H12A18006   2.130   4.321   6.480  2.7287  2.2371  1.1385
  161SAPE  H12B18007   1.967   4.381   6.515  1.1353 -1.2107  0.6896
  161SAPE   C1118008   2.130   4.533   6.483 -0.0939 -0.1501 -0.4176
  161SAPE  H11A18009   2.230   4.521   6.436 -0.1033 -0.1365 -0.4418
  161SAPE  H11B18010   2.138   4.547   6.593  0.1531  1.0781 -0.5733
  161SAPE     P18011   2.118   4.764   6.364  0.3288  0.2992 -0.4448
  161SAPE   O1318012   2.243   4.723   6.289  0.5429 -0.1343 -0.5311
  161SAPE   O1418013   2.019   4.846   6.289  0.4537 -0.3991  0.1992
  161SAPE   O1218014   2.051   4.635   6.422  0.0393 -0.2755 -0.0665
  161SAPE   O1118015   2.161   4.838   6.493 -0.0875 -0.7422  0.0800
  161SAPE    C118016   2.074   4.897   6.591  0.1831  0.5831  0.5347
  161SAPE    HA18017   1.987   4.949   6.544 -0.3018 -1.8450 -1.4777
  161SAPE    HB18018   2.025   4.817   6.651  1.5704  0.4927  1.5971
  161SAPE    C218019   2.138   5.004   6.685  0.4409  0.0123 -0.0477
  161SAPE    HS18020   2.152   5.099   6.630 -0.3121  0.7779  1.0369
  161SAPE   O2118021   2.262   4.939   6.732  0.4850  0.1263 -0.1137
  161SAPE   C2118022   2.352   5.019   6.777 -0.4887 -0.2696  0.1292
  161SAPE   O2218023   2.349   5.141   6.763  0.3387  0.0429  1.1206
  161SAPE   C2218024   2.462   4.936   6.853 -0.4284 -0.8766  0.0605
  161SAPE   H2R18025   2.420   4.862   6.925 -1.4769  1.8775  2.4547
  161SAPE   H2S18026   2.504   4.861   6.783 -1.6256 -0.9711 -0.5736
  161SAPE    C318027   2.041   5.045   6.801 -0.3487  0.0700  0.0383
  161SAPE    HX18028   1.992   4.954   6.841 -0.8214  0.3180  0.0297
  161SAPE    HY18029   1.959   5.107   6.761 -2.2921 -2.1210  0.4150
  161SAPE   O3118030   2.118   5.104   6.907 -0.1413 -0.2934  0.3582
  161SAPE   C3118031   2.107   5.238   6.923  0.1134 -0.0837 -0.3175
  161SAPE   O3218032   2.036   5.312   6.858  0.0743  0.1725 -0.3481
  161SAPE   C3218033   2.187   5.270   7.051  0.1778 -0.3309 -0.5021
  161SAPE   H2X18034   2.154   5.371   7.083  0.3565 -0.3230 -0.3452
  161SAPE   H2Y18035   2.296   5.271   7.034  0.2304 -0.1303 -0.1526
  161SAPE   C2318036   2.589   5.010   6.904  0.1923 -0.8402  0.2417
  161SAPE   H3R18037   2.637   5.050   6.813 -1.8190 -1.3734 -1.1038
  161SAPE   H3S18038   2.662   4.933   6.937  1.6390  0.2044 -0.4068
  161SAPE   C2418039   2.573   5.111   7.014  0.2625  0.0523  1.1555
  161SAPE   H4R18040   2.523   5.061   7.100 -2.2080 -0.2304 -0.3366
  161SAPE   H4S18041   2.497   5.184   6.980 -0.3562 -0.9251  0.3533
  161SAPE   C2518042   2.702   5.179   7.040 -1.0568 -0.4385 -0.7058
  161SAPE   H5R18043   2.743   5.237   6.956  0.6342  1.6786  1.3947
  161SAPE   C2618044   2.758   5.194   7.162 -0.0705  0.3803  0.4766
  161SAPE   H6R18045   2.858   5.240   7.166  1.3111 -2.1466 -1.7750
  161SAPE   C2718046   2.702   5.150   7.289  0.4712  0.6559  0.5489
  161SAPE   H7R18047   2.664   5.046   7.286 -2.9116  1.7813 -0.1297
  161SAPE   H7S18048   2.616   5.221   7.294 -0.2674 -0.2846  1.8441
  161SAPE   C2818049   2.777   5.179   7.411 -0.8797 -0.3056 -0.3447
  161SAPE   H8R18050   2.882   5.207   7.396 -0.8101  0.1484  0.8440
  161SAPE   C2918051   2.738   5.173   7.536  0.1773  0.3265 -0.8481
  161SAPE   H9R18052   2.818   5.199   7.607  0.2559 -1.3275 -0.3002
  161SAPE  C21018053   2.604   5.130   7.591 -0.8020  0.1060  0.0039
  161SAPE  H10R18054   2.612   5.031   7.641 -0.4525  0.0070 -0.2471
  161SAPE  H10S18055   2.531   5.102   7.512 -2.0537 -0.7540  1.3862
  161SAPE  C21118056   2.542   5.219   7.694 -0.1680  0.0015  0.2176
  161SAPE  H11R18057   2.459   5.279   7.651  1.1091 -0.1651 -2.6999
  161SAPE  C21218058   2.568   5.227   7.827  0.0387  1.1565  0.0985
  161SAPE  H12R18059   2.509   5.298   7.886 -1.3359  0.3295 -0.2489
  161SAPE  C21318060   2.676   5.155   7.912 -0.3194 -0.5992  0.3975
  161SAPE  H13R18061   2.747   5.101   7.845  1.1459  1.2298  0.3955
  161SAPE  H13S18062   2.629   5.083   7.982  0.0950 -0.4125  0.8729
  161SAPE  C21418063   2.763   5.256   7.989 -0.2758  0.0720 -0.4680
  161SAPE  H14R18064   2.846   5.301   7.933 -0.6866  1.6206  0.1144
  161SAPE  C21518065   2.763   5.284   8.122  1.1385 -0.6822 -0.2793
  161SAPE  H15R18066   2.825   5.364   8.164 -1.2994  0.4151  1.4192
  161SAPE  C21618067   2.667   5.228   8.225 -0.3031  0.8928  0.1396
  161SAPE  H16R18068   2.705   5.132   8.266 -1.0178  1.0085  1.1334
  161SAPE  H16S18069   2.571   5.204   8.175 -0.1175  0.5261 -0.0468
  161SAPE  C21718070   2.633   5.329   8.338  0.3361 -0.8742  0.1078
  161SAPE  H17R18071   2.550   5.293   8.403  2.0930 -0.4369  2.7130
  161SAPE  H17S18072   2.621   5.436   8.311 -0.5731 -0.6798  1.2132
  161SAPE  C21818073   2.738   5.332   8.448  0.7314  0.0660  0.3253
  161SAPE  H18R18074   2.840   5.365   8.422  0.6173  0.3035  0.1704
  161SAPE  H18S18075   2.745   5.224   8.472 -1.3153  0.1004  1.2949
  161SAPE  C21918076   2.681   5.405   8.575  0.6306  0.3040  0.6621
  161SAPE  H19R18077   2.588   5.351   8.605  0.4465  1.1003  1.5633
  161SAPE  H19S18078   2.645   5.504   8.540 -0.7326 -0.7248 -1.0089
  161SAPE  C22018079   2.790   5.418   8.676  0.5900 -0.6562 -0.0506
  161SAPE  H20R18080   2.824   5.318   8.711 -1.7071 -1.3522  0.3715
  161SAPE  H20S18081   2.752   5.456   8.774 -0.9673 -0.5691 -0.6635
  161SAPE  H20T18082   2.877   5.482   8.650  0.2004  0.0185  0.3018
  161SAPE   C3318083   2.160   5.180   7.171 -0.3467 -0.6531 -0.2475
  161SAPE   H3X18084   2.175   5.072   7.149 -2.0511 -0.8542 -0.5882
  161SAPE   H3Y18085   2.054   5.205   7.193 -0.5707 -0.4517 -1.5064
  161SAPE   C3418086   2.252   5.211   7.289 -0.1079  0.4501  0.1556
  161SAPE   H4X18087   2.262   5.318   7.316 -0.9810  0.4285  0.5856
  161SAPE   H4Y18088   2.349   5.163   7.262  0.0210  1.7551 -1.8868
  161SAPE   C3518089   2.186   5.149   7.419 -0.2376 -0.3529 -0.2512
  161SAPE   H5X18090   2.075   5.157   7.409 -0.2030  0.3297 -0.1345
  161SAPE   H5Y18091   2.224   5.201   7.510  1.8583 -0.4562 -1.0179
  161SAPE   C3618092   2.214   4.997   7.427  0.5890 -0.1285 -0.3107
  161SAPE   H6X18093   2.312   4.974   7.474  0.1829 -0.4871  0.3768
  161SAPE   H6Y18094   2.215   4.952   7.325  0.0565  0.6541 -0.6664
  161SAPE   C3718095   2.101   4.925   7.503  0.2086 -0.0769 -0.2159
  161SAPE   H7X18096   2.114   4.815   7.509 -0.6351 -0.2286 -1.0970
  161SAPE   H7Y18097   2.007   4.935   7.445 -1.6775 -0.7428  2.5570
  161SAPE   C3818098   2.091   4.973   7.649 -0.5598 -0.4894 -0.5727
  161SAPE   H8X18099   2.002   4.928   7.699 -0.0085 -2.7170 -1.4771
  161SAPE   H8Y18100   2.075   5.083   7.651  0.6899 -0.3045 -0.2769
  161SAPE   C3918101   2.217   4.934   7.728 -0.3469 -0.1588  0.1051
  161SAPE   H9X18102   2.292   5.010   7.697 -0.2380 -0.1185  0.4634
  161SAPE   H9Y18103   2.263   4.839   7.696  2.1772  0.7732  0.7472
  161SAPE  C31018104   2.195   4.929   7.877  0.0048  0.2191  0.1823
  161SAPE  H10X18105   2.136   4.838   7.899  1.2850 -0.6834  0.0562
  161SAPE  H10Y18106   2.138   5.018   7.910  2.8434  1.3242  2.6042
  161SAPE  C31118107   2.327   4.931   7.951  0.0638  0.3952 -0.4220
  161SAPE  H11X18108   2.371   5.033   7.942  1.9400 -0.0960  1.9597
  161SAPE  H11Y18109   2.391   4.857   7.898 -1.7151 -1.2646 -0.3482
  161SAPE  C31218110   2.319   4.900   8.102 -0.5522  0.6008 -0.1356
  161SAPE  H12X18111   2.416   4.850   8.125 -1.7726 -2.8921 -1.8380
  161SAPE  H12Y18112   2.245   4.819   8.118 -1.1641  1.5237  2.0064
  161SAPE  C31318113   2.295   5.016   8.194 -0.0442  0.5152  0.1177
  161SAPE  H13X18114   2.187   5.043   8.190 -0.1081  0.3309  0.6175
  161SAPE  H13Y18115   2.353   5.095   8.141  2.1622 -1.9895 -1.4213
  161SAPE  C31418116   2.343   4.989   8.341 -0.5320 -0.3405  0.1858
  161SAPE  H14X18117   2.351   5.081   8.402 -0.6939 -0.9986  1.2157
  161SAPE  H14Y18118   2.447   4.955   8.323  0.2404  2.4739 -1.3056
  161SAPE  C31518119   2.263   4.885   8.420 -0.2882 -0.4567 -0.0054
  161SAPE  H15X18120   2.321   4.858   8.511 -0.6035  0.5577  0.5194
  161SAPE  H15Y18121   2.261   4.794   8.356 -1.2390  0.4760 -1.3708
  161SAPE  C31618122   2.118   4.923   8.455 -0.1385  0.4553 -0.1188
  161SAPE  H16X18123   2.068   4.832   8.496  2.8801 -2.4074 -2.3264
  161SAPE  H16Y18124   2.067   4.952   8.361 -0.7205 -1.2782 -0.3649
  161SAPE  C31718125   2.105   5.035   8.563 -0.1676  0.0159  0.5944
  161SAPE  H17X18126   2.155   5.124   8.520  0.2616 -0.5198 -0.0288
  161SAPE  H17Y18127   2.164   5.010   8.654  1.3141 -1.0014 -0.5892
  161SAPE  C31818128   1.961   5.075   8.606  0.1259  0.0430  0.0988
  161SAPE  H18X18129   1.920   4.979   8.644 -0.1973 -0.6856 -1.9951
  161SAPE  H18Y18130   1.896   5.092   8.518 -1.0750 -1.3106  0.6715
  161SAPE  H18Z18131   1.953   5.159   8.679 -1.0209 -0.3418  0.4404
  162SAPE     N18132   0.619   3.321   5.742 -0.2663 -0.2942 -0.8772
  162SAPE   HN118133   0.667   3.229   5.754 -0.4929 -0.2535  0.5117
  162SAPE   HN218134   0.553   3.300   5.665 -1.6621 -0.2951  0.2690
  162SAPE   HN318135   0.685   3.399   5.724 -2.6708  2.3309  0.8071
  162SAPE   C1218136   0.548   3.346   5.879  0.1405 -0.5737  0.4647
  162SAPE  H12A18137   0.537   3.455   5.899  1.2626 -0.5036  0.8045
  162SAPE  H12B18138   0.618   3.316   5.960  1.6340  2.5478  0.4764
  162SAPE   C1118139   0.417   3.264   5.890  0.1429 -0.4017  0.1564
  162SAPE  H11A18140   0.362   3.280   5.795 -1.9785 -2.1750  1.0022
  162SAPE  H11B18141   0.355   3.294   5.977 -3.3395  2.0317 -2.8406
  162SAPE     P18142   0.340   3.031   5.952 -0.1423  0.6338 -0.4577
  162SAPE   O1318143   0.237   3.034   5.850  0.1563 -0.1402 -0.1372
  162SAPE   O1418144   0.407   2.903   5.979  0.0329 -0.1004 -0.3667
  162SAPE   O1218145   0.457   3.126   5.897 -0.0742  0.0124 -0.0136
  162SAPE   O1118146   0.284   3.099   6.088 -0.4108 -0.1961 -0.0665
  162SAPE    C118147   0.363   3.110   6.206 -0.6652  1.0614 -0.1551
  162SAPE    HA18148   0.461   3.151   6.175  0.2599 -1.9065 -1.5500
  162SAPE    HB18149   0.313   3.188   6.268 -1.2817  0.8859 -0.4226
  162SAPE    C218150   0.371   2.979   6.287 -0.2703 -0.4029 -0.5117
  162SAPE    HS18151   0.426   2.901   6.231 -1.2149 -0.0436 -2.0266
  162SAPE   O2118152   0.234   2.929   6.308  0.2982 -0.3612  0.4105
  162SAPE   C2118153   0.224   2.797   6.316  0.0534 -0.5369  0.6048
  162SAPE   O2218154   0.318   2.722   6.309  0.2253 -0.4519  0.2493
  162SAPE   C2218155   0.077   2.761   6.343 -0.0405 -0.1710  0.6268
  162SAPE   H2R18156   0.017   2.854   6.330 -1.2973 -0.7215  2.1963
  162SAPE   H2S18157   0.049   2.690   6.263  2.3270 -0.9718  0.4345
  162SAPE    C318158   0.455   2.996   6.419  0.0190 -0.1260  0.9410
  162SAPE    HX18159   0.565   3.007   6.412  0.0295 -0.6773 -0.0159
  162SAPE    HY18160   0.447   2.896   6.466  1.1826 -1.2825 -1.1634
  162SAPE   O3118161   0.399   3.095   6.502 -0.3952  0.8546  0.1089
  162SAPE   C3118162   0.459   3.215   6.492  0.1565  0.0458  0.2853
  162SAPE   O3218163   0.546   3.250   6.413 -0.0646  0.2360  0.0408
  162SAPE   C3218164   0.408   3.307   6.606  0.0182  0.2331  0.3055
  162SAPE   H2X18165   0.299   3.286   6.614  0.1264 -0.0584  1.0403
  162SAPE   H2Y18166   0.417   3.413   6.572  1.6900 -0.1964 -0.7120
  162SAPE   C2318167   0.036   2.693   6.478 -0.4846 -0.6112 -0.4103
  162SAPE   H3R18168  -0.074   2.681   6.487 -0.5581  0.8470  1.0165
  162SAPE   H3S18169   0.077   2.761   6.555  1.7470  2.1526 -3.7523
  162SAPE   C2418170   0.106   2.562   6.514 -0.5138  0.4534 -0.1216
  162SAPE   H4R18171   0.074   2.527   6.614 -4.4883  1.8922 -0.7179
  162SAPE   H4S18172   0.216   2.574   6.514 -0.6581  1.8817 -0.4620
  162SAPE   C2518173   0.056   2.444   6.432 -0.2911 -1.0522 -0.4200
  162SAPE   H5R18174   0.121   2.416   6.348 -1.3383 -0.1878 -1.5501
  162SAPE   C2618175  -0.050   2.369   6.460  0.2051  0.3760 -0.8010
  162SAPE   H6R18176  -0.071   2.286   6.390 -0.3697  0.9497 -1.3173
  162SAPE   C2718177  -0.136   2.376   6.581 -0.0349  0.4275 -0.5973
  162SAPE   H7R18178  -0.242   2.377   6.548 -0.3279 -0.9970  0.2479
  162SAPE   H7S18179  -0.125   2.475   6.630 -1.8435  1.1018 -1.4440
  162SAPE   C2818180  -0.113   2.255   6.673  0.0143 -0.5708  1.0990
  162SAPE   H8R18181  -0.154   2.158   6.639  0.5208 -0.3623 -0.1463
  162SAPE   C2918182  -0.079   2.267   6.801 -0.5234 -0.4494 -0.2166
  162SAPE   H9R18183  -0.075   2.170   6.853 -0.2434 -0.8102 -0.9002
  162SAPE  C21018184  -0.033   2.385   6.880  1.1350  0.4450 -0.1498
  162SAPE  H10R18185  -0.000   2.465   6.811 -0.0146 -0.0148 -1.2701
  162SAPE  H10S18186   0.055   2.357   6.942 -0.7141 -4.8569  0.6612
  162SAPE  C21118187  -0.153   2.422   6.969 -0.5703  0.5940  0.4916
  162SAPE  H11R18188  -0.247   2.432   6.912 -0.4868  0.1022  0.2558
  162SAPE  C21218189  -0.145   2.436   7.101 -0.7588 -0.6720  0.1501
  162SAPE  H12R18190  -0.237   2.477   7.147  0.3310 -1.8338  3.7073
  162SAPE  C21318191  -0.035   2.416   7.200  0.1582  0.1936 -1.3388
  162SAPE  H13R18192   0.061   2.366   7.173 -0.5094 -1.5604 -0.6338
  162SAPE  H13S18193  -0.071   2.351   7.283 -0.4953  2.1506 -0.0366
  162SAPE  C21418194  -0.020   2.553   7.260  0.6110 -0.2226  0.6851
  162SAPE  H14R18195   0.039   2.618   7.193  1.3673 -0.8679  0.7058
  162SAPE  C21518196  -0.062   2.606   7.380 -0.2573  0.1820 -0.0008
  162SAPE  H15R18197  -0.041   2.712   7.399 -0.5484  0.5577 -1.6127
  162SAPE  C21618198  -0.140   2.545   7.489 -0.4649  0.1154 -0.2750
  162SAPE  H16R18199  -0.138   2.434   7.485 -3.1762  0.0478 -2.6244
  162SAPE  H16S18200  -0.239   2.575   7.448 -0.2293  1.0919 -0.1488
  162SAPE  C21718201  -0.111   2.604   7.630  0.1880 -0.1601 -0.5442
  162SAPE  H17R18202  -0.132   2.712   7.621  2.3942  0.2736 -1.0565
  162SAPE  H17S18203  -0.001   2.604   7.641  0.0295 -2.4407  2.7384
  162SAPE  C21818204  -0.160   2.535   7.756 -0.6508  0.2889  0.5906
  162SAPE  H18R18205  -0.101   2.443   7.777 -0.8079 -0.2549 -1.1527
  162SAPE  H18S18206  -0.268   2.517   7.736 -0.7159  0.8788  0.4071
  162SAPE  C21918207  -0.159   2.634   7.876 -0.4698  0.0443 -0.6071
  162SAPE  H19R18208  -0.207   2.733   7.863  0.6578  0.9813  1.7961
  162SAPE  H19S18209  -0.052   2.658   7.894 -0.1234 -1.3995 -0.5748
  162SAPE  C22018210  -0.229   2.573   7.991  0.8658  0.5136  0.4126
  162SAPE  H20R18211  -0.338   2.567   7.970  0.7217  1.1851  0.9197
  162SAPE  H20S18212  -0.214   2.635   8.083  0.9506  0.3481  0.5128
  162SAPE  H20T18213  -0.192   2.470   8.010  1.0414  0.1835 -1.5897
  162SAPE   C3318214   0.495   3.279   6.731  0.1974 -0.8943  0.8096
  162SAPE   H3X18215   0.486   3.366   6.799 -1.1658  0.8818 -1.4898
  162SAPE   H3Y18216   0.602   3.279   6.704  0.2888 -0.8008  1.1752
  162SAPE   C3418217   0.481   3.147   6.803 -0.3750 -0.7757 -0.4059
  162SAPE   H4X18218   0.514   3.067   6.733  1.8022 -0.5409  0.2996
  162SAPE   H4Y18219   0.377   3.139   6.842 -0.3165 -1.7568 -0.4195
  162SAPE   C3518220   0.562   3.145   6.937 -0.5164 -0.4637  0.0938
  162SAPE   H5X18221   0.528   3.229   7.002  1.4134  0.6391 -0.2378
  162SAPE   H5Y18222   0.668   3.171   6.916  0.3854 -2.6086  1.6041
  162SAPE   C3618223   0.549   3.009   7.012  0.6346 -0.9880  1.0439
  162SAPE   H6X18224   0.533   2.928   6.937 -2.1984 -0.6847  1.2061
  162SAPE   H6Y18225   0.454   3.013   7.071  0.2767 -2.5924  0.6168
  162SAPE   C3718226   0.676   2.957   7.081  0.4413  0.0018 -0.5377
  162SAPE   H7X18227   0.762   2.956   7.011  1.2718 -1.2327  0.4483
  162SAPE   H7Y18228   0.647   2.853   7.109 -2.1349 -0.0913 -3.0887
  162SAPE   C3818229   0.703   3.046   7.199 -0.3874 -0.1112 -0.2781
  162SAPE   H8X18230   0.706   3.152   7.165 -0.2044 -0.2349 -0.6602
  162SAPE   H8Y18231   0.801   3.013   7.241 -1.0968  0.3385  1.8355
  162SAPE   C3918232   0.607   3.012   7.314  0.0321  0.1079 -0.5208
  162SAPE   H9X18233   0.627   2.905   7.338 -1.8291 -0.5265 -1.5785
  162SAPE   H9Y18234   0.497   3.006   7.297  0.1905 -4.3028 -1.2634
  162SAPE  C31018235   0.628   3.098   7.440  0.1960  0.2539  0.2307
  162SAPE  H10X18236   0.546   3.163   7.477  1.1804  0.6495  1.8453
  162SAPE  H10Y18237   0.711   3.168   7.417 -0.9735  1.9967  1.0449
  162SAPE  C31118238   0.652   3.011   7.568  0.0284  0.1732  0.1317
  162SAPE  H11X18239   0.716   2.927   7.534  0.0292 -0.0012  0.5510
  162SAPE  H11Y18240   0.559   2.971   7.613 -0.4444  1.5339  0.3936
  162SAPE  C31218241   0.726   3.078   7.682  0.3343  0.1335  0.2951
  162SAPE  H12X18242   0.793   3.157   7.642  1.7723 -0.8088  0.7584
  162SAPE  H12Y18243   0.791   3.011   7.742  0.7995 -0.0589 -0.4115
  162SAPE  C31318244   0.637   3.147   7.778 -0.1390  0.1996  0.0379
  162SAPE  H13X18245   0.552   3.075   7.779  1.0403 -1.4643 -3.5727
  162SAPE  H13Y18246   0.603   3.235   7.720 -0.3966 -0.5706 -1.0110
  162SAPE  C31418247   0.684   3.179   7.915  0.1768  0.2352  0.6135
  162SAPE  H14X18248   0.787   3.219   7.906 -0.0752  0.4168 -2.0375
  162SAPE  H14Y18249   0.690   3.081   7.968 -1.4275 -0.4828 -0.4615
  162SAPE  C31518250   0.605   3.286   8.006  0.4028 -0.2685  1.1007
  162SAPE  H15X18251   0.507   3.239   8.032  0.3111  0.1946  1.5927
  162SAPE  H15Y18252   0.580   3.366   7.934 -1.9781  1.2094  3.4035
  162SAPE  C31618253   0.685   3.344   8.116 -0.0154  0.2578  0.1711
  162SAPE  H16X18254   0.766   3.402   8.068 -2.4540  1.9974 -2.1529
  162SAPE  H16Y18255   0.720   3.256   8.174  1.0569 -0.2714 -1.2172
  162SAPE  C31718256   0.603   3.442   8.200  0.1545 -0.3898 -0.4648
  162SAPE  H17X18257   0.624   3.447   8.309 -1.5527  1.8717 -0.1750
  162SAPE  H17Y18258   0.496   3.413   8.192 -0.5533  1.6929  0.6946
  162SAPE  C31818259   0.621   3.592   8.141 -0.1497 -0.2941 -0.3768
  162SAPE  H18X18260   0.727   3.619   8.122  0.0707 -0.1358  1.0000
  162SAPE  H18Y18261   0.574   3.658   8.216  1.1604 -1.5988  1.7190
  162SAPE  H18Z18262   0.559   3.605   8.050  0.5452  1.3215 -0.6485
  163SAPE     N18263   6.427   6.672   6.463  0.1705 -0.4743 -0.3316
  163SAPE   HN118264   6.511   6.641   6.516  1.2223 -0.5229 -1.9504
  163SAPE   HN218265   6.342   6.687   6.521  0.7709  0.8729  0.2483
  163SAPE   HN318266   6.406   6.584   6.412  0.4306 -0.1764 -0.9683
  163SAPE   C1218267   6.456   6.789   6.372 -0.6941  0.4860  0.0370
  163SAPE  H12A18268   6.442   6.878   6.438 -0.0297 -0.1766  1.1085
  163SAPE  H12B18269   6.388   6.788   6.285 -1.3779  0.5861  0.5626
  163SAPE   C1118270   6.611   6.785   6.326 -0.0297  0.6158  0.7308
  163SAPE  H11A18271   6.632   6.881   6.275 -1.1156 -0.8076 -2.6839
  163SAPE  H11B18272   6.630   6.703   6.253  0.0203 -0.2816  1.7200
  163SAPE     P18273   6.766   6.883   6.504 -0.4268 -0.0188  0.1595
  163SAPE   O1318274   6.853   6.957   6.406  0.1059  0.1451 -0.4277
  163SAPE   O1418275   6.666   6.962   6.583  0.6657  0.3533  0.1988
  163SAPE   O1218276   6.696   6.758   6.439  0.0311 -0.0181 -0.5923
  163SAPE   O1118277   6.860   6.819   6.607 -0.0454 -0.1125 -0.2515
  163SAPE    C118278   6.812   6.733   6.710  0.0277 -0.0088  0.2321
  163SAPE    HA18279   6.701   6.719   6.713 -0.2433  1.8364  0.3133
  163SAPE    HB18280   6.863   6.636   6.691  0.6765  0.3417  0.1604
  163SAPE    C218281   6.859   6.774   6.856  0.0834  0.2396 -0.3600
  163SAPE    HS18282   6.801   6.864   6.886  1.5292  0.3664  2.4058
  163SAPE   O2118283   7.001   6.802   6.842  0.4075 -0.1092 -0.1807
  163SAPE   C2118284   7.040   6.926   6.873 -0.0617 -0.2849 -0.0698
  163SAPE   O2218285   6.966   7.012   6.909  0.2114 -0.7359 -0.2661
  163SAPE   C2218286   7.192   6.945   6.866 -0.0109  0.2256 -0.3148
  163SAPE   H2R18287   7.255   6.855   6.846  2.2014  1.7992 -0.7776
  163SAPE   H2S18288   7.211   7.007   6.776  0.3062  1.2131  0.4117
  163SAPE    C318289   6.838   6.658   6.952  0.0406  0.2798 -0.4954
  163SAPE    HX18290   6.900   6.577   6.907 -1.0901 -0.4406 -0.7943
  163SAPE    HY18291   6.734   6.622   6.943 -0.2766  0.8837  0.5871
  163SAPE   O3118292   6.881   6.681   7.089 -0.1953 -0.3301  0.4290
  163SAPE   C3118293   6.817   6.776   7.155 -0.6363  0.0335  0.0951
  163SAPE   O3218294   6.706   6.823   7.126  0.3821  0.0114 -0.1960
  163SAPE   C3218295   6.892   6.803   7.283  0.9645 -0.0645  0.1069
  163SAPE   H2X18296   6.886   6.913   7.296  1.2885 -0.0770  0.3998
  163SAPE   H2Y18297   6.998   6.770   7.288  1.1957  0.8250  3.6286
  163SAPE   C2318298   7.251   7.023   6.989 -0.2730 -0.1796 -0.0288
  163SAPE   H3R18299   7.188   7.114   7.006 -0.6305 -0.3434 -0.4449
  163SAPE   H3S18300   7.355   7.050   6.962 -0.6475  1.7705  0.2966
  163SAPE   C2418301   7.250   6.935   7.111  0.0040  0.1049 -0.0419
  163SAPE   H4R18302   7.297   6.840   7.077  0.2146 -0.7727  2.5330
  163SAPE   H4S18303   7.147   6.914   7.147 -0.0319  1.6674  0.8561
  163SAPE   C2518304   7.337   6.997   7.216  0.6848  0.5549  0.0748
  163SAPE   H5R18305   7.445   6.993   7.195  0.8176 -0.5189  0.8597
  163SAPE   C2618306   7.309   7.035   7.341 -0.0335 -0.4941  0.5186
  163SAPE   H6R18307   7.379   7.092   7.404 -1.2895 -0.2035  1.6923
  163SAPE   C2718308   7.166   7.039   7.397 -0.5629 -0.6806  0.1924
  163SAPE   H7R18309   7.161   6.952   7.466  2.4120 -2.3386 -1.4786
  163SAPE   H7S18310   7.085   7.015   7.325 -0.2414 -0.0045 -0.4076
  163SAPE   C2818311   7.135   7.169   7.458 -0.0605 -0.1391 -0.5147
  163SAPE   H8R18312   7.146   7.247   7.382  1.3097 -0.5698 -0.7895
  163SAPE   C2918313   7.134   7.194   7.588  0.0611 -0.9123  0.5684
  163SAPE   H9R18314   7.100   7.295   7.617  0.1574 -0.6087 -0.3345
  163SAPE  C21018315   7.161   7.101   7.696  0.2270  0.1696 -0.1993
  163SAPE  H10R18316   7.248   7.144   7.749  0.5994 -0.3649 -0.3779
  163SAPE  H10S18317   7.208   7.009   7.656  3.3892  1.3495  0.4923
  163SAPE  C21118318   7.048   7.073   7.783  0.3885 -0.7047 -0.3639
  163SAPE  H11R18319   6.950   7.109   7.749  1.5848  3.4187  0.0670
  163SAPE  C21218320   7.053   6.999   7.897 -0.4289 -0.1427 -0.7971
  163SAPE  H12R18321   6.966   6.970   7.957 -0.0978 -0.6088 -0.5303
  163SAPE  C21318322   7.180   6.933   7.952 -0.2972 -0.2484 -0.9301
  163SAPE  H13R18323   7.265   6.935   7.881 -0.0513  0.4795 -0.6270
  163SAPE  H13S18324   7.169   6.824   7.969 -0.1231 -0.0935  0.2792
  163SAPE  C21418325   7.224   6.998   8.080 -1.3675  0.5420 -0.1997
  163SAPE  H14R18326   7.316   7.057   8.066 -0.2606 -1.1247 -0.2679
  163SAPE  C21518327   7.179   6.989   8.207  0.4722 -0.2647 -0.1437
  163SAPE  H15R18328   7.218   7.055   8.286 -1.7708 -0.9439  1.6327
  163SAPE  C21618329   7.056   6.902   8.248 -0.1490 -0.5757  0.3340
  163SAPE  H16R18330   7.107   6.825   8.310  0.7449  0.7263  1.2671
  163SAPE  H16S18331   7.014   6.843   8.163  0.6955 -0.5604 -0.1052
  163SAPE  C21718332   6.961   6.976   8.342  0.3187  0.5149  0.0953
  163SAPE  H17R18333   7.026   7.016   8.423  0.2037  0.8128  0.0410
  163SAPE  H17S18334   6.894   6.905   8.394 -0.2694  1.3450  0.5007
  163SAPE  C21818335   6.882   7.098   8.289  0.1757 -0.4830 -0.1732
  163SAPE  H18R18336   6.810   7.066   8.210 -0.3831  1.2165 -0.4124
  163SAPE  H18S18337   6.957   7.170   8.249 -0.0004  0.0786  0.4850
  163SAPE  C21918338   6.798   7.183   8.390  0.3892  0.6353 -0.6282
  163SAPE  H19R18339   6.869   7.201   8.474  1.0545  0.3227 -1.1149
  163SAPE  H19S18340   6.705   7.135   8.429  0.6220  2.3995  2.4242
  163SAPE  C22018341   6.766   7.322   8.335  0.6159 -0.6669  0.7655
  163SAPE  H20R18342   6.716   7.377   8.418 -0.1674  1.3486 -0.9475
  163SAPE  H20S18343   6.699   7.311   8.247  1.3904 -0.2216  0.1103
  163SAPE  H20T18344   6.851   7.372   8.284 -0.9614 -0.4589 -1.7889
  163SAPE   C3318345   6.816   6.733   7.404  0.4024  0.0949  0.2940
  163SAPE   H3X18346   6.829   6.623   7.392 -1.5021 -0.0096 -1.6541
  163SAPE   H3Y18347   6.712   6.762   7.375  1.4369  2.4267 -1.5046
  163SAPE   C3418348   6.847   6.776   7.546 -0.5179  0.1054  0.3345
  163SAPE   H4X18349   6.834   6.885   7.561 -0.7969 -0.1521  2.2363
  163SAPE   H4Y18350   6.948   6.751   7.585  0.0946 -1.3373 -2.0100
  163SAPE   C3518351   6.766   6.689   7.652 -0.1132 -0.0207  0.1920
  163SAPE   H5X18352   6.792   6.583   7.630  1.1352  0.7402 -2.4600
  163SAPE   H5Y18353   6.657   6.705   7.644  0.1700  1.7493 -0.6509
  163SAPE   C3618354   6.784   6.728   7.805  0.1066 -0.6527  0.1367
  163SAPE   H6X18355   6.765   6.838   7.808  0.2242 -0.5890 -1.0891
  163SAPE   H6Y18356   6.884   6.694   7.842 -0.0227 -1.4193 -0.2055
  163SAPE   C3718357   6.675   6.667   7.888  0.1863 -0.2579 -0.7314
  163SAPE   H7X18358   6.675   6.562   7.851  0.7406 -0.7412  0.5916
  163SAPE   H7Y18359   6.580   6.710   7.849 -0.6749 -0.8949  0.6021
  163SAPE   C3818360   6.685   6.677   8.041 -0.3084  0.5303 -0.6502
  163SAPE   H8X18361   6.583   6.661   8.082  0.6590 -0.2366  1.5882
  163SAPE   H8Y18362   6.710   6.780   8.072  0.9988 -0.4901  1.9790
  163SAPE   C3918363   6.779   6.583   8.105 -0.0041  0.1672  0.5595
  163SAPE   H9X18364   6.878   6.578   8.054  0.2619 -0.9094  1.1613
  163SAPE   H9Y18365   6.735   6.481   8.099 -0.1380  0.2610 -0.1248
  163SAPE  C31018366   6.800   6.608   8.257  0.2051  0.3805 -0.3826
  163SAPE  H10X18367   6.699   6.598   8.301 -0.0339 -0.0989 -1.0303
  163SAPE  H10Y18368   6.846   6.707   8.277 -0.1654  0.2616  1.2178
  163SAPE  C31118369   6.899   6.503   8.318 -0.0617  0.4588 -0.3055
  163SAPE  H11X18370   6.998   6.520   8.270 -0.2519 -1.4998 -1.5289
  163SAPE  H11Y18371   6.858   6.405   8.285  0.5607  0.1178 -0.0880
  163SAPE  C31218372   6.902   6.515   8.469  0.0375  0.3413  0.1691
  163SAPE  H12X18373   6.920   6.621   8.499  0.6824  0.4103 -0.4279
  163SAPE  H12Y18374   6.995   6.460   8.495  0.1377  1.0027  1.2481
  163SAPE  C31318375   6.771   6.458   8.539 -0.4110  0.4673 -0.0168
  163SAPE  H13X18376   6.685   6.487   8.474  0.0579  2.0112 -0.0010
  163SAPE  H13Y18377   6.749   6.512   8.634 -2.7314  0.1117 -0.3005
  163SAPE  C31418378   6.778   6.309   8.568 -0.7095 -0.1741  0.4759
  163SAPE  H14X18379   6.869   6.279   8.626 -0.2449  2.1260  1.0567
  163SAPE  H14Y18380   6.780   6.253   8.473  4.4954 -0.9091  0.6979
  163SAPE  C31518381   6.662   6.251   8.646  0.5079 -0.4038 -0.3652
  163SAPE  H15X18382   6.570   6.290   8.596  1.3979  0.0740 -1.6814
  163SAPE  H15Y18383   6.650   6.295   8.747 -2.4966  0.1796 -0.8646
  163SAPE  C31618384   6.653   6.103   8.644  0.3532 -0.0427 -0.2438
  163SAPE  H16X18385   6.743   6.044   8.671 -0.7069 -1.7375 -0.2874
  163SAPE  H16Y18386   6.635   6.067   8.540 -2.0220  0.5710 -0.1004
  163SAPE  C31718387   6.527   6.054   8.718  0.1920  0.0176 -0.1549
  163SAPE  H17X18388   6.511   5.950   8.681 -2.0792 -0.3679  1.7001
  163SAPE  H17Y18389   6.439   6.115   8.689 -1.1207 -2.8283 -2.6453
  163SAPE  C31818390   6.543   6.038   8.873 -0.1340  0.3133  0.1901
  163SAPE  H18X18391   6.447   6.005   8.918 -1.3941 -0.4721 -2.8785
  163SAPE  H18Y18392   6.568   6.131   8.929 -0.4815  1.5721 -1.6531
  163SAPE  H18Z18393   6.617   5.956   8.880 -0.8322 -0.2573  1.2283
  164SAPE     N18394   2.549   4.315   6.227  0.5112  0.6684  0.5543
  164SAPE   HN118395   2.554   4.275   6.323 -0.7772 -0.1697  0.2915
  164SAPE   HN218396   2.497   4.250   6.164  0.2098  0.2818  1.1924
  164SAPE   HN318397   2.635   4.348   6.179 -0.8707  1.3989 -1.5772
  164SAPE   C1218398   2.475   4.438   6.251  0.4091  0.4913  0.5877
  164SAPE  H12A18399   2.373   4.420   6.291 -0.1719 -2.0767 -1.7288
  164SAPE  H12B18400   2.471   4.487   6.151  0.8329 -0.7762 -0.0743
  164SAPE   C1118401   2.548   4.532   6.348  1.0028  0.0732  0.2575
  164SAPE  H11A18402   2.531   4.491   6.450 -0.4760  2.9601  1.2970
  164SAPE  H11B18403   2.505   4.634   6.359  0.0366 -0.4315  1.4770
  164SAPE     P18404   2.768   4.647   6.268 -0.3169  0.1895  0.3363
  164SAPE   O1318405   2.749   4.652   6.120  0.2497  0.4325 -0.0665
  164SAPE   O1418406   2.758   4.770   6.348  0.5346  0.1397  0.5624
  164SAPE   O1218407   2.681   4.533   6.321  0.1402  0.0806  0.5144
  164SAPE   O1118408   2.914   4.597   6.292  0.4419  0.0465  0.2506
  164SAPE    C118409   2.950   4.504   6.400 -0.8333 -0.5410  0.0489
  164SAPE    HA18410   2.881   4.418   6.393  0.9360 -2.1800  1.5707
  164SAPE    HB18411   3.053   4.467   6.378  0.9282  0.9361  4.6965
  164SAPE    C218412   2.938   4.566   6.547  0.3539 -0.6396  0.9084
  164SAPE    HS18413   2.840   4.618   6.550  1.1640  1.2007 -1.5568
  164SAPE   O2118414   3.050   4.645   6.575  0.0956 -0.5149 -0.0804
  164SAPE   C2118415   3.025   4.753   6.653  0.3313  0.3337 -0.0190
  164SAPE   O2218416   2.913   4.798   6.680  0.2108  0.6580 -0.6143
  164SAPE   C2218417   3.152   4.820   6.688  0.6227 -0.2774 -0.0738
  164SAPE   H2R18418   3.219   4.738   6.722 -0.9463 -1.7851 -0.5329
  164SAPE   H2S18419   3.185   4.865   6.592 -1.7396  1.1744 -0.2747
  164SAPE    C318420   2.938   4.450   6.649  0.3291 -0.6921 -0.5001
  164SAPE    HX18421   3.030   4.389   6.636  1.6287  0.9283  0.7361
  164SAPE    HY18422   2.859   4.377   6.619 -1.4043  0.9724 -0.1859
  164SAPE   O3118423   2.934   4.489   6.793  0.2628  0.0734 -0.2324
  164SAPE   C3118424   2.813   4.512   6.837 -0.1262 -1.3770 -0.0384
  164SAPE   O3218425   2.708   4.512   6.772 -0.2712  0.0214  0.7678
  164SAPE   C3218426   2.820   4.551   6.985  0.0093 -0.6936 -0.3264
  164SAPE   H2X18427   2.896   4.632   6.987  0.4461 -1.1051 -0.0164
  164SAPE   H2Y18428   2.852   4.455   7.032  0.0097 -0.4298  0.2290
  164SAPE   C2318429   3.139   4.917   6.807 -0.9797  0.2463 -0.7749
  164SAPE   H3R18430   3.057   4.990   6.785 -1.4133 -0.1191 -0.3882
  164SAPE   H3S18431   3.236   4.968   6.826  0.1902 -2.1416  0.0443
  164SAPE   C2418432   3.102   4.845   6.940  0.3414  0.0067 -0.0896
  164SAPE   H4R18433   3.184   4.774   6.964 -0.0440 -0.8072 -1.1205
  164SAPE   H4S18434   3.028   4.765   6.917 -0.3091  1.4710 -3.7543
  164SAPE   C2518435   3.054   4.932   7.056 -0.0073  0.7362 -0.4482
  164SAPE   H5R18436   2.946   4.942   7.073  0.1999  1.6233  0.4490
  164SAPE   C2618437   3.130   4.999   7.146  0.6047 -0.1995  1.0675
  164SAPE   H6R18438   3.070   5.067   7.208 -2.1917  0.0733 -1.7107
  164SAPE   C2718439   3.281   5.003   7.168  0.5899  0.7971 -0.3538
  164SAPE   H7R18440   3.322   5.065   7.085  0.5959  0.1480 -0.8466
  164SAPE   H7S18441   3.322   4.900   7.166 -1.0165  0.1223  0.3407
  164SAPE   C2818442   3.327   5.062   7.299 -0.1841  0.3587 -0.5786
  164SAPE   H8R18443   3.392   5.151   7.303  1.7844 -1.0798  1.3435
  164SAPE   C2918444   3.294   5.020   7.421  0.8228  0.2616 -0.3500
  164SAPE   H9R18445   3.334   5.082   7.502 -1.6297  1.9132 -0.3147
  164SAPE  C21018446   3.212   4.901   7.465  0.1630  0.1162 -0.0004
  164SAPE  H10R18447   3.272   4.845   7.539  0.8808 -0.1784 -0.7941
  164SAPE  H10S18448   3.197   4.831   7.380  2.5228 -1.2092  0.5957
  164SAPE  C21118449   3.078   4.940   7.527 -0.2001 -0.3430 -0.2547
  164SAPE  H11R18450   3.007   4.981   7.455  0.1464 -2.4299 -1.8730
  164SAPE  C21218451   3.053   4.943   7.659 -0.4680  0.7711  0.4526
  164SAPE  H12R18452   2.956   4.989   7.683 -0.4325  0.1801  1.8600
  164SAPE  C21318453   3.140   4.901   7.767 -1.1821 -0.2665 -0.5324
  164SAPE  H13R18454   3.231   4.844   7.736 -0.4077  0.8994 -0.4665
  164SAPE  H13S18455   3.079   4.829   7.826 -0.8539 -1.1890 -1.2826
  164SAPE  C21418456   3.186   5.018   7.857  0.3525 -0.2800 -0.0983
  164SAPE  H14R18457   3.166   5.118   7.814 -0.7234 -0.6321 -0.4466
  164SAPE  C21518458   3.254   5.023   7.975 -0.2786  0.1504  0.1897
  164SAPE  H15R18459   3.282   5.122   8.014 -1.6013  1.1323 -1.2420
  164SAPE  C21618460   3.313   4.910   8.053  0.3845 -0.0918 -0.0356
  164SAPE  H16R18461   3.232   4.848   8.097  1.3435  0.6446  2.9901
  164SAPE  H16S18462   3.383   4.956   8.125  2.8813  1.1713 -3.0323
  164SAPE  C21718463   3.401   4.815   7.973 -0.1011  0.2202 -0.5351
  164SAPE  H17R18464   3.345   4.759   7.895 -0.4339  0.0733 -0.1910
  164SAPE  H17S18465   3.436   4.738   8.045 -2.1004 -0.1736  0.0786
  164SAPE  C21818466   3.535   4.885   7.932 -0.3139 -0.8193 -0.3447
  164SAPE  H18R18467   3.603   4.897   8.019  1.4891  0.6297 -1.8798
  164SAPE  H18S18468   3.512   4.987   7.895 -1.5312 -0.4937  1.2016
  164SAPE  C21918469   3.610   4.803   7.827 -0.9582  0.1035  0.1201
  164SAPE  H19R18470   3.656   4.722   7.888 -2.7688 -0.2177  1.1403
  164SAPE  H19S18471   3.705   4.854   7.797  0.4511 -2.7657 -0.7044
  164SAPE  C22018472   3.539   4.746   7.707 -0.4759  0.1477  0.1555
  164SAPE  H20R18473   3.445   4.692   7.732 -2.2634  2.1706 -1.6901
  164SAPE  H20S18474   3.609   4.667   7.671 -0.3769 -0.5242  1.7523
  164SAPE  H20T18475   3.525   4.824   7.628 -1.4583 -0.7838 -0.6328
  164SAPE   C3318476   2.683   4.597   7.035 -0.5081 -0.2917  0.1524
  164SAPE   H3X18477   2.605   4.522   7.010 -0.5722 -0.7832  1.6933
  164SAPE   H3Y18478   2.655   4.689   6.980  0.2403 -0.2509 -0.1774
  164SAPE   C3418479   2.698   4.623   7.187  0.4050 -0.2565  0.3761
  164SAPE   H4X18480   2.799   4.660   7.215  1.8219 -3.5377  0.1379
  164SAPE   H4Y18481   2.675   4.531   7.245 -3.0619  2.5491  4.0082
  164SAPE   C3518482   2.592   4.732   7.239 -0.6907  0.0169  0.0891
  164SAPE   H5X18483   2.502   4.705   7.181 -0.3958 -0.3553 -0.1911
  164SAPE   H5Y18484   2.615   4.839   7.217  1.0292 -0.2746  0.3679
  164SAPE   C3618485   2.558   4.712   7.389  0.3054 -0.2344 -0.5583
  164SAPE   H6X18486   2.507   4.615   7.403 -0.5574  0.1156 -1.1611
  164SAPE   H6Y18487   2.479   4.777   7.432 -0.4428 -2.4947  1.7224
  164SAPE   C3718488   2.676   4.728   7.489 -0.1415  0.3824  0.9035
  164SAPE   H7X18489   2.717   4.831   7.488  1.6638 -0.3048 -0.6411
  164SAPE   H7Y18490   2.756   4.654   7.467  0.2766  1.0398  0.1460
  164SAPE   C3818491   2.628   4.689   7.631 -0.7214  0.2849  0.0354
  164SAPE   H8X18492   2.629   4.578   7.639 -0.7259  0.2018 -1.0194
  164SAPE   H8Y18493   2.527   4.722   7.664  0.0763  2.2697  0.6587
  164SAPE   C3918494   2.720   4.746   7.740 -0.5113  0.5854  0.1045
  164SAPE   H9X18495   2.723   4.857   7.735  1.6597  0.5431 -0.8171
  164SAPE   H9Y18496   2.826   4.723   7.715  0.2400  1.0123  2.6161
  164SAPE  C31018497   2.681   4.711   7.887  0.3407  0.5127  0.0957
  164SAPE  H10X18498   2.694   4.603   7.910  0.9710 -0.0283 -2.4832
  164SAPE  H10Y18499   2.574   4.729   7.912 -0.1772 -3.5851  1.5433
  164SAPE  C31118500   2.773   4.780   7.987  0.7024  0.8652  0.1783
  164SAPE  H11X18501   2.751   4.888   7.975 -0.4440  0.6765  0.4904
  164SAPE  H11Y18502   2.882   4.778   7.967  0.4658  0.5702 -1.1684
  164SAPE  C31218503   2.743   4.742   8.137 -0.8201 -0.0977  0.3112
  164SAPE  H12X18504   2.797   4.650   8.168  1.1786  0.2830 -1.7392
  164SAPE  H12Y18505   2.633   4.732   8.151 -1.3273  0.1488 -2.7182
  164SAPE  C31318506   2.811   4.838   8.235 -0.5274 -0.0278 -0.1103
  164SAPE  H13X18507   2.786   4.819   8.342 -0.4621 -0.9822 -0.2554
  164SAPE  H13Y18508   2.759   4.935   8.219 -1.8862 -0.7516 -0.1939
  164SAPE  C31418509   2.967   4.848   8.223  1.2822 -0.2212 -0.6366
  164SAPE  H14X18510   3.000   4.885   8.123  2.0705 -0.0368 -0.3064
  164SAPE  H14Y18511   3.007   4.750   8.254  2.0845 -0.2116 -1.6019
  164SAPE  C31518512   3.023   4.959   8.321  0.7856 -0.5700  0.3990
  164SAPE  H15X18513   2.987   5.057   8.283  0.6432 -0.1724  1.5249
  164SAPE  H15Y18514   3.131   4.947   8.302  0.3095 -0.5155 -2.8586
  164SAPE  C31618515   2.969   4.946   8.461 -0.4803 -0.1901 -0.4070
  164SAPE  H16X18516   2.958   4.841   8.496 -0.5637 -0.4845 -1.3089
  164SAPE  H16Y18517   2.867   4.990   8.463 -0.2099  0.5705 -2.0387
  164SAPE  C31718518   3.068   5.023   8.549  0.1256  0.2555 -0.3124
  164SAPE  H17X18519   3.095   5.118   8.497  2.0782  0.2170  0.5581
  164SAPE  H17Y18520   3.164   4.970   8.531  1.8419  2.9942  0.2125
  164SAPE  C31818521   3.021   5.048   8.691 -0.7757  0.2146  0.6544
  164SAPE  H18X18522   3.011   4.943   8.725  0.0636 -0.4898 -1.1461
  164SAPE  H18Y18523   2.922   5.098   8.699 -0.1703  1.8331 -1.1030
  164SAPE  H18Z18524   3.094   5.096   8.760 -1.2339  0.5838  0.8894
  165SAPE     N18525   3.154   0.888   6.049 -0.9156  0.5811 -0.8438
  165SAPE   HN118526   3.218   0.965   6.080 -0.8881  0.9191 -1.6975
  165SAPE   HN218527   3.139   0.822   6.127  1.7190  0.4147 -0.3702
  165SAPE   HN318528   3.199   0.829   5.976  1.6814 -2.2126  2.6335
  165SAPE   C1218529   3.021   0.945   6.005 -0.2783  0.4483 -0.4423
  165SAPE  H12A18530   2.955   0.861   5.972 -0.9786  0.8311 -0.0357
  165SAPE  H12B18531   3.049   1.007   5.918  2.2143 -0.9796 -0.7486
  165SAPE   C1118532   2.960   1.027   6.116  0.0736 -0.8797  0.0429
  165SAPE  H11A18533   2.868   1.066   6.067  1.4912  0.6537 -1.5300
  165SAPE  H11B18534   3.025   1.112   6.149 -2.0620  0.0605  2.1410
  165SAPE     P18535   2.854   1.025   6.352  0.0033 -0.1921  0.2374
  165SAPE   O1318536   2.807   1.160   6.320  0.1279 -0.3786  0.8945
  165SAPE   O1418537   2.748   0.929   6.405  0.8555  0.7925 -0.6673
  165SAPE   O1218538   2.929   0.951   6.228  1.0147  0.4255 -1.4345
  165SAPE   O1118539   2.967   1.038   6.454  0.1760 -0.1245  0.1366
  165SAPE    C118540   3.051   0.930   6.483 -0.1128  0.4620 -0.3447
  165SAPE    HA18541   2.993   0.836   6.477 -1.2373  1.2173 -1.8164
  165SAPE    HB18542   3.146   0.926   6.424  0.3768  0.2584  0.4414
  165SAPE    C218543   3.081   0.923   6.637 -0.4485  1.1742 -0.1487
  165SAPE    HS18544   2.979   0.914   6.681 -0.8857  0.2670 -1.3011
  165SAPE   O2118545   3.131   1.057   6.678 -0.7151 -0.1391  0.1393
  165SAPE   C2118546   3.102   1.097   6.802 -0.1059 -0.6424  0.6825
  165SAPE   O2218547   3.040   1.038   6.883 -0.0770 -0.1764 -0.5087
  165SAPE   C2218548   3.154   1.233   6.826 -0.4375 -0.1461  0.8207
  165SAPE   H2R18549   3.223   1.271   6.748 -0.4455  0.5773  1.1580
  165SAPE   H2S18550   3.066   1.300   6.815 -3.0004 -3.5247 -1.5515
  165SAPE    C318551   3.174   0.803   6.671 -0.2194  1.4475 -0.7619
  165SAPE    HX18552   3.264   0.815   6.607  0.6598  1.0564  0.3723
  165SAPE    HY18553   3.130   0.707   6.636 -0.6699  1.2709  0.2674
  165SAPE   O3118554   3.222   0.815   6.807 -0.0007 -0.0859 -0.0437
  165SAPE   C3118555   3.144   0.754   6.898  0.9602 -0.0195  0.2043
  165SAPE   O3218556   3.039   0.696   6.867  0.2430  0.0651  0.4531
  165SAPE   C3218557   3.188   0.769   7.037 -0.4945  0.8444  0.6869
  165SAPE   H2X18558   3.117   0.838   7.088  0.5988  1.0394  1.9999
  165SAPE   H2Y18559   3.282   0.827   7.048 -2.1467  3.7766  0.5309
  165SAPE   C2318560   3.224   1.250   6.963  0.7965  0.2808  0.1845
  165SAPE   H3R18561   3.153   1.205   7.036  0.3573  0.5832 -0.0541
  165SAPE   H3S18562   3.243   1.355   6.991  0.4742  0.4708 -0.2966
  165SAPE   C2418563   3.364   1.181   6.956 -0.1116 -0.3946 -0.1162
  165SAPE   H4R18564   3.421   1.217   6.867 -0.9728 -1.2134 -1.0180
  165SAPE   H4S18565   3.345   1.075   6.929 -2.6434  0.5519 -2.5662
  165SAPE   C2518566   3.450   1.213   7.081  0.2739 -0.2215 -0.7165
  165SAPE   H5R18567   3.488   1.316   7.089  1.1746 -0.6475  1.0543
  165SAPE   C2618568   3.472   1.142   7.191 -0.3940  0.3204  0.0938
  165SAPE   H6R18569   3.531   1.182   7.275  0.6107 -2.6224  0.9211
  165SAPE   C2718570   3.409   1.011   7.229 -0.3707 -0.2071  0.0947
  165SAPE   H7R18571   3.490   0.939   7.253  1.3703  2.1724  1.8697
  165SAPE   H7S18572   3.363   0.971   7.136  1.2683  1.3651 -1.5044
  165SAPE   C2818573   3.313   0.997   7.346  0.2826 -0.5011 -0.7302
  165SAPE   H8R18574   3.207   0.994   7.316 -0.4676  0.8185  1.5989
  165SAPE   C2918575   3.353   1.001   7.477 -0.6269  0.2846  0.0096
  165SAPE   H9R18576   3.285   0.998   7.563  0.0235 -0.8149  0.4974
  165SAPE  C21018577   3.504   1.022   7.520  0.1831  0.6360 -0.9402
  165SAPE  H10R18578   3.530   1.130   7.509 -3.8199  1.6841 -1.6860
  165SAPE  H10S18579   3.571   0.964   7.453 -0.1845 -0.6161 -0.2402
  165SAPE  C21118580   3.552   0.978   7.658  0.0963  0.9092 -0.3110
  165SAPE  H11R18581   3.611   0.886   7.647  3.1521  2.6220  0.6581
  165SAPE  C21218582   3.528   1.021   7.783  0.0374  0.1951  0.0403
  165SAPE  H12R18583   3.572   0.972   7.871 -0.4802  0.0912  0.2420
  165SAPE  C21318584   3.450   1.144   7.814  0.4182 -0.0080 -0.0474
  165SAPE  H13R18585   3.380   1.158   7.730  0.4522  0.0768 -0.0615
  165SAPE  H13S18586   3.511   1.237   7.813  0.7155 -0.1894  0.6503
  165SAPE  C21418587   3.371   1.141   7.943 -0.2200  0.2863 -0.8557
  165SAPE  H14R18588   3.263   1.121   7.933 -0.4331  0.0320  1.4614
  165SAPE  C21518589   3.409   1.134   8.069  0.1466 -0.2579  0.0628
  165SAPE  H15R18590   3.335   1.127   8.150 -0.3221  2.2645 -0.0696
  165SAPE  C21618591   3.551   1.151   8.118  0.9865 -0.1505 -0.6731
  165SAPE  H16R18592   3.555   1.217   8.207  1.3387 -1.6179  0.4351
  165SAPE  H16S18593   3.624   1.194   8.046 -0.3817  1.8500 -0.9265
  165SAPE  C21718594   3.613   1.014   8.154 -0.3130 -0.4606 -0.3764
  165SAPE  H17R18595   3.707   1.045   8.204 -1.1198 -1.0812  1.6249
  165SAPE  H17S18596   3.631   0.945   8.068  1.2340  1.1227 -1.3827
  165SAPE  C21818597   3.549   0.939   8.272 -0.1415  0.1413 -0.2257
  165SAPE  H18R18598   3.444   0.904   8.257 -1.4077  2.1710  2.8799
  165SAPE  H18S18599   3.544   1.012   8.356  2.7448 -0.8845  0.9549
  165SAPE  C21918600   3.630   0.823   8.334 -0.2769 -0.4730 -0.4505
  165SAPE  H19R18601   3.721   0.863   8.384 -0.7290 -0.6768  0.5443
  165SAPE  H19S18602   3.663   0.755   8.252 -3.0140 -0.8880 -1.2980
  165SAPE  C22018603   3.547   0.749   8.441  0.1020 -0.1441 -0.2627
  165SAPE  H20R18604   3.522   0.813   8.528 -1.0664 -1.2746  0.2784
  165SAPE  H20S18605   3.611   0.668   8.484  0.5730  1.4988  2.3557
  165SAPE  H20T18606   3.458   0.696   8.400  0.0795 -1.6043  1.5291
  165SAPE   C3318607   3.200   0.640   7.119  0.3314 -0.2665 -0.6177
  165SAPE   H3X18608   3.268   0.565   7.075  0.8299 -0.6424  0.7443
  165SAPE   H3Y18609   3.100   0.593   7.130 -0.0168  0.4576 -0.5832
  165SAPE   C3418610   3.245   0.656   7.264 -0.3184 -0.0442 -0.1520
  165SAPE   H4X18611   3.197   0.745   7.310 -1.4850 -0.6781 -0.0855
  165SAPE   H4Y18612   3.354   0.669   7.278 -0.0811 -0.7167 -1.2571
  165SAPE   C3518613   3.189   0.537   7.342  0.7192 -0.0565 -0.6574
  165SAPE   H5X18614   3.201   0.440   7.287 -0.4001 -1.1744  0.9848
  165SAPE   H5Y18615   3.082   0.566   7.348  0.8201  0.1739  0.1717
  165SAPE   C3618616   3.244   0.525   7.486 -0.7637  0.9465 -0.4048
  165SAPE   H6X18617   3.354   0.525   7.476 -0.5594 -3.4747 -0.2039
  165SAPE   H6Y18618   3.218   0.430   7.537 -0.4754  0.8717 -0.3987
  165SAPE   C3718619   3.213   0.641   7.583  0.1638 -0.2794 -0.1393
  165SAPE   H7X18620   3.110   0.680   7.567  0.1683  0.1469  0.7902
  165SAPE   H7Y18621   3.289   0.718   7.559 -0.4719 -0.3109 -2.5460
  165SAPE   C3818622   3.229   0.605   7.733 -0.7474 -0.6238  0.2925
  165SAPE   H8X18623   3.331   0.565   7.753  0.7909  3.2152  1.0483
  165SAPE   H8Y18624   3.151   0.530   7.758 -0.9274 -1.3910 -2.3073
  165SAPE   C3918625   3.220   0.723   7.829 -0.6165  0.3389  0.1661
  165SAPE   H9X18626   3.119   0.765   7.811 -0.1294  0.6773 -2.1010
  165SAPE   H9Y18627   3.297   0.798   7.803 -1.9402  1.1018 -1.7983
  165SAPE  C31018628   3.233   0.677   7.976  0.3020 -0.3636 -0.2257
  165SAPE  H10X18629   3.330   0.629   7.999  0.4176 -0.8247 -1.5748
  165SAPE  H10Y18630   3.156   0.599   7.998 -1.7968  1.7751  0.3824
  165SAPE  C31118631   3.213   0.785   8.085 -0.3131 -0.5410 -0.3729
  165SAPE  H11X18632   3.129   0.849   8.048  1.1842  1.9823  0.3745
  165SAPE  H11Y18633   3.292   0.862   8.080 -1.5177  0.8225  0.6793
  165SAPE  C31218634   3.198   0.729   8.229 -0.0656  0.4389  0.3395
  165SAPE  H12X18635   3.275   0.660   8.270  0.3486  0.6991  0.0109
  165SAPE  H12Y18636   3.105   0.669   8.229  1.0366 -1.3611  1.6535
  165SAPE  C31318637   3.186   0.838   8.339  0.1457 -0.1002  0.5521
  165SAPE  H13X18638   3.097   0.889   8.296 -0.4398 -1.2211  0.3876
  165SAPE  H13Y18639   3.268   0.913   8.348  0.9978 -1.0520  0.8804
  165SAPE  C31418640   3.158   0.763   8.464 -0.3620 -0.0787  0.0391
  165SAPE  H14X18641   3.243   0.701   8.498  0.5498  1.4983  0.7523
  165SAPE  H14Y18642   3.065   0.702   8.463 -0.7447  0.4348  1.7734
  165SAPE  C31518643   3.144   0.853   8.588  0.1663  0.1999  0.6282
  165SAPE  H15X18644   3.239   0.909   8.602  0.4126 -0.0006 -0.1743
  165SAPE  H15Y18645   3.132   0.782   8.673 -0.2082 -0.3033  0.1628
  165SAPE  C31618646   3.018   0.930   8.575 -0.4359  0.3277 -0.3406
  165SAPE  H16X18647   2.928   0.868   8.593  0.4592 -1.1055 -0.6504
  165SAPE  H16Y18648   3.018   0.986   8.479  2.7721 -1.1568 -1.3347
  165SAPE  C31718649   3.026   1.042   8.682 -0.1095 -0.4577  0.0613
  165SAPE  H17X18650   3.114   1.105   8.659 -2.2016  2.5496 -0.3455
  165SAPE  H17Y18651   3.029   0.999   8.784 -0.1826 -0.7289 -0.0497
  165SAPE  C31818652   2.908   1.144   8.680 -0.1073  0.4598  0.1832
  165SAPE  H18X18653   2.930   1.220   8.759 -0.7084  0.8764 -0.0390
  165SAPE  H18Y18654   2.818   1.087   8.712  0.9189 -0.5823  1.3454
  165SAPE  H18Z18655   2.883   1.189   8.581 -0.6380  0.7139  0.4234
  166SAPE     N18656   1.518   2.227   6.143  0.3037 -0.1400  0.0111
  166SAPE   HN118657   1.453   2.198   6.219 -1.0372 -1.4875 -1.5654
  166SAPE   HN218658   1.609   2.256   6.183  1.0029 -2.1132 -0.0312
  166SAPE   HN318659   1.469   2.294   6.080 -2.2727 -1.5818  0.3379
  166SAPE   C1218660   1.549   2.105   6.053  0.2206  0.4419  0.2114
  166SAPE  H12A18661   1.466   2.031   6.049  2.1035 -1.7665 -2.0143
  166SAPE  H12B18662   1.637   2.059   6.103 -0.5894 -0.3217  0.9728
  166SAPE   C1118663   1.580   2.156   5.912  0.4799 -0.5689 -0.9379
  166SAPE  H11A18664   1.598   2.060   5.859  1.5407 -0.3770 -0.9623
  166SAPE  H11B18665   1.672   2.219   5.902 -1.5756  3.0803  1.0619
  166SAPE     P18666   1.436   2.369   5.824  0.0812  0.4136 -0.0309
  166SAPE   O1318667   1.540   2.444   5.746  0.2119 -0.0456  0.2028
  166SAPE   O1418668   1.302   2.371   5.769 -0.3426 -0.5805  0.2135
  166SAPE   O1218669   1.480   2.220   5.843 -0.1175  0.2852  0.8182
  166SAPE   O1118670   1.436   2.422   5.971  0.2126 -0.2271  0.8234
  166SAPE    C118671   1.429   2.558   6.003 -0.4223  0.0862  0.6444
  166SAPE    HA18672   1.532   2.590   6.029 -0.1444 -1.3410  1.4332
  166SAPE    HB18673   1.386   2.612   5.916  2.1389 -0.8455 -1.3179
  166SAPE    C218674   1.330   2.588   6.113 -0.5514 -0.3801 -0.2770
  166SAPE    HS18675   1.318   2.699   6.118  3.5081  0.1485  1.3280
  166SAPE   O2118676   1.373   2.539   6.242 -0.2570 -0.3086  0.0853
  166SAPE   C2118677   1.469   2.609   6.299 -0.2823 -0.2149  0.1348
  166SAPE   O2218678   1.515   2.715   6.257  0.2657 -0.9208  0.2348
  166SAPE   C2218679   1.522   2.530   6.415  0.0194 -0.4059 -0.6357
  166SAPE   H2R18680   1.552   2.440   6.358 -0.7059  0.1957 -2.0308
  166SAPE   H2S18681   1.609   2.580   6.461  0.4565 -1.7616  0.0534
  166SAPE    C318682   1.192   2.519   6.096 -0.5372  0.1205  0.4258
  166SAPE    HX18683   1.202   2.409   6.092  2.7015  0.3194  0.6915
  166SAPE    HY18684   1.155   2.561   6.000  1.0507 -1.4599 -0.9437
  166SAPE   O3118685   1.092   2.560   6.202  0.4016  0.1242 -0.0978
  166SAPE   C3118686   1.086   2.477   6.304 -0.5983 -0.0489  0.0906
  166SAPE   O3218687   1.147   2.372   6.314 -0.3558 -0.6117  0.6546
  166SAPE   C3218688   1.001   2.535   6.418  0.0400 -0.4059 -0.0038
  166SAPE   H2X18689   0.910   2.578   6.371  1.0138  1.2582 -0.4510
  166SAPE   H2Y18690   1.057   2.616   6.470 -2.2362 -0.0249  2.0775
  166SAPE   C2318691   1.419   2.488   6.529 -0.2088  0.0853 -0.8063
  166SAPE   H3R18692   1.477   2.419   6.593  1.1643  0.9676 -1.0520
  166SAPE   H3S18693   1.328   2.438   6.490 -1.4738 -0.4005  2.4671
  166SAPE   C2418694   1.375   2.607   6.619  0.1592  1.0363 -0.0171
  166SAPE   H4R18695   1.273   2.586   6.657  0.2575  0.5762 -0.0021
  166SAPE   H4S18696   1.348   2.698   6.562 -2.2884  1.1961  1.2851
  166SAPE   C2518697   1.467   2.626   6.733  0.0978 -0.4571  0.5973
  166SAPE   H5R18698   1.570   2.646   6.700 -0.3719  0.5503 -0.3424
  166SAPE   C2618699   1.442   2.632   6.864 -0.3258 -0.2325  0.2277
  166SAPE   H6R18700   1.531   2.657   6.923  0.2641 -1.4059 -0.1278
  166SAPE   C2718701   1.311   2.607   6.938  0.1161  0.1445  0.0617
  166SAPE   H7R18702   1.232   2.602   6.860  1.2961 -1.6680 -1.1220
  166SAPE   H7S18703   1.289   2.692   7.006  0.3263 -0.4630  0.9021
  166SAPE   C2818704   1.325   2.476   7.017  0.2994  1.0458  0.0386
  166SAPE   H8R18705   1.358   2.388   6.961 -0.7705  0.3891  0.4177
  166SAPE   C2918706   1.312   2.465   7.150 -0.3883 -0.0575 -0.0798
  166SAPE   H9R18707   1.334   2.368   7.197  3.2308  1.3365  1.4926
  166SAPE  C21018708   1.290   2.569   7.254  0.6237 -0.5702 -0.2705
  166SAPE  H10R18709   1.244   2.516   7.340  1.0319 -0.2362  0.1696
  166SAPE  H10S18710   1.222   2.642   7.207  1.3432 -0.2858 -0.8890
  166SAPE  C21118711   1.410   2.650   7.286  0.2715 -0.6292  0.3395
  166SAPE  H11R18712   1.448   2.715   7.206 -3.0779  0.5507 -0.4577
  166SAPE  C21218713   1.439   2.681   7.408 -0.1962 -0.5724 -0.3450
  166SAPE  H12R18714   1.531   2.740   7.419 -0.0159 -0.0331 -3.6590
  166SAPE  C21318715   1.368   2.637   7.530 -0.6149 -0.7607  0.1606
  166SAPE  H13R18716   1.384   2.531   7.556 -2.6232 -0.7213  1.7864
  166SAPE  H13S18717   1.259   2.654   7.513 -0.3986  0.7294  0.1044
  166SAPE  C21418718   1.417   2.709   7.650 -0.3276  0.2861 -0.7351
  166SAPE  H14R18719   1.522   2.740   7.641  0.1249 -1.1389 -0.5541
  166SAPE  C21518720   1.353   2.718   7.768 -0.1456  0.8893  0.0636
  166SAPE  H15R18721   1.401   2.771   7.852  0.1855  0.0374  0.4205
  166SAPE  C21618722   1.221   2.663   7.811  0.2867 -0.4460  0.5352
  166SAPE  H16R18723   1.188   2.587   7.738  1.5364 -2.2452  1.7632
  166SAPE  H16S18724   1.138   2.737   7.803  1.0080  0.2954 -0.2898
  166SAPE  C21718725   1.213   2.613   7.956 -0.1368 -0.3159  0.5339
  166SAPE  H17R18726   1.308   2.562   7.981  0.5951  1.3499  1.3022
  166SAPE  H17S18727   1.124   2.548   7.975 -0.6803  0.6369  1.3391
  166SAPE  C21818728   1.194   2.727   8.064  0.3089  0.0815 -0.1743
  166SAPE  H18R18729   1.094   2.771   8.044  0.6761  1.0798  0.1441
  166SAPE  H18S18730   1.268   2.809   8.057 -0.8604  1.2445  0.5869
  166SAPE  C21918731   1.197   2.670   8.208  0.7972 -0.8147  0.1437
  166SAPE  H19R18732   1.275   2.592   8.219  0.3182 -1.2729  0.3242
  166SAPE  H19S18733   1.106   2.606   8.211  1.2438 -1.4465  0.4397
  166SAPE  C22018734   1.199   2.769   8.321  0.2738  0.4212 -0.1330
  166SAPE  H20R18735   1.110   2.835   8.328 -0.3707 -0.6266  2.9275
  166SAPE  H20S18736   1.290   2.832   8.308  1.6528 -1.2134  1.1331
  166SAPE  H20T18737   1.212   2.722   8.421  0.9611  2.5424  0.8399
  166SAPE   C3318738   0.967   2.428   6.520 -0.3453 -0.2140  0.6575
  166SAPE   H3X18739   1.056   2.379   6.566  0.8576  0.4487 -0.8611
  166SAPE   H3Y18740   0.913   2.339   6.482 -2.9738 -1.5349  6.3977
  166SAPE   C3418741   0.881   2.479   6.637  0.1528  0.3593 -0.2290
  166SAPE   H4X18742   0.812   2.397   6.667 -1.3913  0.5141 -3.0750
  166SAPE   H4Y18743   0.817   2.564   6.605  1.7730  1.9227  0.4373
  166SAPE   C3518744   0.962   2.507   6.767 -0.1765  0.2251  0.0532
  166SAPE   H5X18745   1.045   2.579   6.748  2.2335 -2.3761  0.0517
  166SAPE   H5Y18746   1.023   2.419   6.795  3.2988  1.9058 -1.6618
  166SAPE   C3618747   0.875   2.552   6.881 -0.3673 -1.3901  0.2024
  166SAPE   H6X18748   0.778   2.497   6.877 -3.8105  3.9802 -0.3977
  166SAPE   H6Y18749   0.837   2.656   6.869 -1.3846 -1.9469 -1.8647
  166SAPE   C3718750   0.950   2.540   7.015  1.0108  0.2305  0.1155
  166SAPE   H7X18751   1.036   2.610   7.023  3.0697 -2.0127 -1.0583
  166SAPE   H7Y18752   0.982   2.435   7.025  0.7259  0.3051  2.1869
  166SAPE   C3818753   0.845   2.552   7.134 -0.8674 -0.3414 -0.2584
  166SAPE   H8X18754   0.767   2.473   7.138 -1.1123 -0.1066 -0.4377
  166SAPE   H8Y18755   0.802   2.652   7.111  1.5605  0.9302  0.3967
  166SAPE   C3918756   0.911   2.561   7.273  0.3609 -0.1853 -0.6009
  166SAPE   H9X18757   0.997   2.631   7.273 -0.9997  1.5452 -1.0253
  166SAPE   H9Y18758   0.938   2.460   7.311  1.8349  0.8115  1.1826
  166SAPE  C31018759   0.811   2.609   7.374  0.7540  0.4129  0.2011
  166SAPE  H10X18760   0.712   2.565   7.350  2.0213 -2.3388 -0.4764
  166SAPE  H10Y18761   0.810   2.720   7.379  3.0660  0.5268 -0.6395
  166SAPE  C31118762   0.850   2.566   7.517  0.1018 -0.0187  0.2689
  166SAPE  H11X18763   0.944   2.615   7.552 -0.0795 -0.3598  1.2664
  166SAPE  H11Y18764   0.862   2.456   7.513 -1.5278 -0.2073 -3.0777
  166SAPE  C31218765   0.739   2.615   7.614  0.3701 -0.3796  0.4932
  166SAPE  H12X18766   0.649   2.550   7.606  1.9571 -2.5093 -1.6643
  166SAPE  H12Y18767   0.703   2.716   7.587 -1.0438 -1.3456 -1.5669
  166SAPE  C31318768   0.787   2.604   7.757  0.1550 -0.4707  0.5481
  166SAPE  H13X18769   0.885   2.657   7.760 -1.8771  3.7634  0.3176
  166SAPE  H13Y18770   0.805   2.498   7.786  0.5230 -0.3818  0.6601
  166SAPE  C31418771   0.686   2.670   7.849  0.4129  0.3326 -0.8066
  166SAPE  H14X18772   0.582   2.640   7.824  0.8800 -1.0672 -1.1673
  166SAPE  H14Y18773   0.696   2.778   7.824 -2.5806  0.7941 -0.4352
  166SAPE  C31518774   0.708   2.654   7.999  0.0329  0.4063 -0.2688
  166SAPE  H15X18775   0.812   2.685   8.023 -0.0677  1.6737 -1.3305
  166SAPE  H15Y18776   0.705   2.546   8.022  2.6447  0.4119  0.3813
  166SAPE  C31618777   0.613   2.740   8.078 -0.1351 -0.2172 -0.5772
  166SAPE  H16X18778   0.512   2.709   8.044  1.8654 -4.8313 -3.3193
  166SAPE  H16Y18779   0.630   2.845   8.047  0.0452 -0.0264  0.1565
  166SAPE  C31718780   0.643   2.728   8.221  0.4704  0.3239  0.0318
  166SAPE  H17X18781   0.643   2.620   8.246  1.2560  0.4520  0.6190
  166SAPE  H17Y18782   0.550   2.751   8.278 -1.9262 -2.0074 -2.5754
  166SAPE  C31818783   0.774   2.784   8.277 -0.4600 -0.1598 -0.2979
  166SAPE  H18X18784   0.777   2.894   8.263 -3.6153  0.2775  1.4263
  166SAPE  H18Y18785   0.857   2.742   8.217 -0.9270 -0.1538 -0.9581
  166SAPE  H18Z18786   0.789   2.758   8.384 -1.4927  0.4703  0.0084
  167SAPE     N18787   1.581   4.116   5.927 -0.0834 -0.1090 -0.1274
  167SAPE   HN118788   1.645   4.195   5.948  0.5227 -0.4966 -0.4872
  167SAPE   HN218789   1.605   4.082   5.832  0.1973  0.4156 -0.2505
  167SAPE   HN318790   1.482   4.149   5.932  0.5422  1.7408  3.4461
  167SAPE   C1218791   1.590   4.007   6.030 -0.3949  0.1795 -0.1498
  167SAPE  H12A18792   1.700   4.008   6.045 -0.0069  0.4679 -2.5978
  167SAPE  H12B18793   1.569   3.903   5.997  0.2189  0.6657 -2.2582
  167SAPE   C1118794   1.538   4.036   6.171  0.5529 -0.3165 -0.2598
  167SAPE  H11A18795   1.576   3.962   6.245 -0.0982  0.7478  1.1907
  167SAPE  H11B18796   1.428   4.025   6.162  0.4018  0.0475  0.8992
  167SAPE     P18797   1.474   4.280   6.269  0.3004 -0.0249 -0.1494
  167SAPE   O1318798   1.534   4.419   6.260  0.0407  0.5217 -0.2671
  167SAPE   O1418799   1.344   4.257   6.201  0.2519 -0.1955  0.1068
  167SAPE   O1218800   1.575   4.170   6.212 -0.6626 -0.0784 -0.1649
  167SAPE   O1118801   1.458   4.236   6.424 -0.6248  0.3303  0.0842
  167SAPE    C118802   1.575   4.222   6.503  0.3250 -0.3322  0.1430
  167SAPE    HA18803   1.626   4.125   6.489  4.0863  1.3368  0.9067
  167SAPE    HB18804   1.647   4.305   6.486 -1.0958  0.6360 -1.4683
  167SAPE    C218805   1.534   4.235   6.650  0.1330 -0.0907  0.3481
  167SAPE    HS18806   1.598   4.169   6.712  0.5508  1.3588  1.5201
  167SAPE   O2118807   1.396   4.187   6.669  0.1073  0.6710  0.3994
  167SAPE   C2118808   1.371   4.058   6.635 -0.3101  0.4288 -0.2530
  167SAPE   O2218809   1.454   3.971   6.614  0.0075  0.1508 -0.2704
  167SAPE   C2218810   1.223   4.028   6.642  0.0256 -0.4826  0.6791
  167SAPE   H2R18811   1.166   4.120   6.666 -0.0524 -0.5690  0.8235
  167SAPE   H2S18812   1.196   3.999   6.538  0.2287  1.9898 -0.1281
  167SAPE    C318813   1.542   4.378   6.721 -0.6609 -0.2512  0.5241
  167SAPE    HX18814   1.471   4.382   6.807 -0.2819 -1.1814  0.8946
  167SAPE    HY18815   1.497   4.445   6.646 -1.1704 -0.5916  0.5206
  167SAPE   O3118816   1.685   4.420   6.734 -0.0678  0.4346 -0.8488
  167SAPE   C3118817   1.706   4.552   6.764 -0.3295  0.4334 -0.0956
  167SAPE   O3218818   1.616   4.628   6.776 -0.9212 -0.3686  0.1344
  167SAPE   C3218819   1.853   4.586   6.768  0.5668  0.7978 -0.0443
  167SAPE   H2X18820   1.868   4.625   6.665 -0.3088  0.9941 -0.1114
  167SAPE   H2Y18821   1.909   4.493   6.791 -0.9295 -0.5476 -1.5569
  167SAPE   C2318822   1.182   3.924   6.745 -0.8044 -0.0782  0.4176
  167SAPE   H3R18823   1.256   3.849   6.781  0.2708  1.4308  1.5332
  167SAPE   H3S18824   1.098   3.867   6.702 -0.1147 -0.5075 -0.4023
  167SAPE   C2418825   1.138   3.994   6.879 -0.4945 -0.7453  0.9257
  167SAPE   H4R18826   1.223   4.059   6.910 -0.1335 -0.6264 -0.2601
  167SAPE   H4S18827   1.124   3.916   6.957 -0.1117 -0.8608  0.8832
  167SAPE   C2518828   1.011   4.070   6.853  0.0248 -0.4127 -0.4735
  167SAPE   H5R18829   0.982   4.095   6.750  1.1470  0.2280 -0.6435
  167SAPE   C2618830   0.939   4.131   6.953  0.5212  0.5019 -0.3323
  167SAPE   H6R18831   0.842   4.174   6.924 -0.9660 -0.8095  2.3436
  167SAPE   C2718832   0.967   4.132   7.099  0.1782 -0.0460 -0.1900
  167SAPE   H7R18833   0.914   4.219   7.143  1.1383  0.5956 -0.2705
  167SAPE   H7S18834   1.075   4.154   7.114  0.8212 -2.1387 -1.3138
  167SAPE   C2818835   0.927   4.011   7.178 -0.5539 -0.4758 -0.5532
  167SAPE   H8R18836   0.860   3.940   7.128 -0.0398 -1.5566  0.2454
  167SAPE   C2918837   0.954   3.979   7.304 -0.1811  0.2997 -0.8568
  167SAPE   H9R18838   0.903   3.890   7.343 -0.3920  0.9766  0.4514
  167SAPE  C21018839   1.050   4.060   7.388 -0.3282 -0.3126 -0.0505
  167SAPE  H10R18840   1.141   4.083   7.327  1.0636 -1.4784  1.4876
  167SAPE  H10S18841   1.101   3.998   7.464  2.7606 -0.1180 -1.7861
  167SAPE  C21118842   0.990   4.181   7.449  0.2073 -0.5302 -0.3192
  167SAPE  H11R18843   0.937   4.251   7.384  1.9553  1.3007  0.1137
  167SAPE  C21218844   0.998   4.219   7.581  0.1613  0.1204 -0.2500
  167SAPE  H12R18845   0.926   4.296   7.613 -1.2381 -0.1924 -2.4422
  167SAPE  C21318846   1.069   4.163   7.698 -0.3709  0.4672 -0.2288
  167SAPE  H13R18847   1.063   4.240   7.777  1.2354 -0.4972  0.9016
  167SAPE  H13S18848   1.176   4.140   7.680 -0.4953 -2.3221  1.9250
  167SAPE  C21418849   0.995   4.043   7.747  0.2945 -0.0802  0.4572
  167SAPE  H14R18850   0.991   3.956   7.680 -0.3741  0.3517 -0.0711
  167SAPE  C21518851   0.934   4.034   7.866  0.2809  0.3422 -0.1540
  167SAPE  H15R18852   0.892   3.940   7.903  0.8671  1.1225  2.7092
  167SAPE  C21618853   0.928   4.130   7.979  0.0328 -0.1133 -1.1678
  167SAPE  H16R18854   0.850   4.106   8.055  1.2371  3.5066  1.5446
  167SAPE  H16S18855   0.898   4.231   7.944 -1.0583  0.7328  1.8436
  167SAPE  C21718856   1.063   4.132   8.061 -0.4944 -0.1384 -0.2859
  167SAPE  H17R18857   1.058   4.220   8.128 -2.3099  0.5550 -1.2617
  167SAPE  H17S18858   1.135   4.164   7.983 -0.4771  2.7151  0.7571
  167SAPE  C21818859   1.110   4.003   8.123 -0.0232  0.0201  0.3985
  167SAPE  H18R18860   1.120   3.929   8.040  1.2402  2.1235 -1.4075
  167SAPE  H18S18861   1.025   3.977   8.189 -0.0060  0.4252  0.5815
  167SAPE  C21918862   1.242   4.018   8.211 -0.4506  0.2260  0.8389
  167SAPE  H19R18863   1.327   4.029   8.141 -2.1669  0.5444 -1.3124
  167SAPE  H19S18864   1.258   3.921   8.262  2.3461 -1.1097 -2.2266
  167SAPE  C22018865   1.229   4.133   8.311 -0.2229 -0.3017 -0.3106
  167SAPE  H20R18866   1.326   4.159   8.359 -0.3419 -0.4087 -0.0089
  167SAPE  H20S18867   1.159   4.112   8.395  1.0728  3.3470  1.9222
  167SAPE  H20T18868   1.194   4.228   8.266 -0.1912  0.1878  0.6645
  167SAPE   C3318869   1.879   4.700   6.869 -0.0012 -1.0259  0.4453
  167SAPE   H3X18870   1.817   4.688   6.960  0.6878  3.3186  1.7230
  167SAPE   H3Y18871   1.842   4.794   6.822 -0.1684 -1.5419 -0.4688
  167SAPE   C3418872   2.024   4.710   6.918  0.5017  0.8861  0.3703
  167SAPE   H4X18873   2.044   4.808   6.965 -0.5453  2.3666 -2.0752
  167SAPE   H4Y18874   2.085   4.710   6.826  0.5818 -0.1033  0.4106
  167SAPE   C3518875   2.071   4.590   7.002 -0.5078  0.3850  0.3809
  167SAPE   H5X18876   2.083   4.491   6.953  0.1523  0.6328  0.0296
  167SAPE   H5Y18877   2.008   4.582   7.092 -0.2881  2.0588  0.7144
  167SAPE   C3618878   2.219   4.606   7.056 -0.1406  0.1479 -0.0892
  167SAPE   H6X18879   2.234   4.713   7.082  1.3126 -0.0202 -0.1712
  167SAPE   H6Y18880   2.281   4.581   6.967 -0.4371 -0.0318 -0.2475
  167SAPE   C3718881   2.268   4.522   7.176  0.1660 -0.8535  0.1244
  167SAPE   H7X18882   2.377   4.542   7.177  0.2859 -0.8330 -3.2494
  167SAPE   H7Y18883   2.261   4.418   7.137  2.4301 -0.0011 -2.8736
  167SAPE   C3818884   2.197   4.546   7.312 -0.8134 -0.8968 -0.0094
  167SAPE   H8X18885   2.132   4.636   7.306  1.0529  1.0207  4.5951
  167SAPE   H8Y18886   2.270   4.580   7.388  1.5308  2.0436 -3.2338
  167SAPE   C3918887   2.135   4.420   7.360  0.0579  0.7735 -0.0480
  167SAPE   H9X18888   2.206   4.335   7.358 -0.2156  0.5459 -1.3661
  167SAPE   H9Y18889   2.055   4.397   7.286  1.4671 -2.0958 -0.8227
  167SAPE  C31018890   2.086   4.432   7.501 -0.0492  0.4648 -0.5070
  167SAPE  H10X18891   2.018   4.519   7.510 -1.3499 -0.4273 -1.3343
  167SAPE  H10Y18892   2.173   4.437   7.569  0.0862 -0.0418 -0.6408
  167SAPE  C31118893   2.008   4.305   7.544 -0.1501 -0.0128 -0.0212
  167SAPE  H11X18894   2.075   4.217   7.555 -0.3791 -0.5309 -2.3364
  167SAPE  H11Y18895   1.928   4.269   7.475 -1.4995  0.2367  1.3588
  167SAPE  C31218896   1.944   4.315   7.687  0.2804 -0.6544 -0.3170
  167SAPE  H12X18897   1.868   4.234   7.699 -0.9810  0.7486  1.6462
  167SAPE  H12Y18898   1.892   4.413   7.681  1.5955  0.0109 -1.3492
  167SAPE  C31318899   2.039   4.317   7.810  0.4071  0.2911 -0.6656
  167SAPE  H13X18900   2.131   4.377   7.793  0.7112  0.0847  0.2233
  167SAPE  H13Y18901   2.060   4.210   7.831  0.6796 -0.3702 -3.8313
  167SAPE  C31418902   1.965   4.382   7.931  0.3037  0.4385  0.9217
  167SAPE  H14X18903   1.880   4.320   7.965  1.5731 -1.5873  0.6494
  167SAPE  H14Y18904   1.934   4.485   7.904  0.4006  0.8677  2.3772
  167SAPE  C31518905   2.050   4.379   8.057 -0.1464  0.1389  0.1234
  167SAPE  H15X18906   2.078   4.274   8.084 -2.1897 -0.2842  0.7505
  167SAPE  H15Y18907   1.982   4.414   8.137  0.5193  0.6298  0.4799
  167SAPE  C31618908   2.181   4.460   8.058  0.6727 -0.0182 -0.9533
  167SAPE  H16X18909   2.158   4.565   8.032 -2.9883 -0.5342 -0.2728
  167SAPE  H16Y18910   2.253   4.417   7.985  1.2524  0.8376 -0.8951
  167SAPE  C31718911   2.247   4.452   8.198 -0.1506  0.2697  1.1650
  167SAPE  H17X18912   2.222   4.355   8.245  2.3355 -1.0768 -0.1220
  167SAPE  H17Y18913   2.208   4.529   8.268  3.3640  1.4423  2.0541
  167SAPE  C31818914   2.396   4.482   8.178 -0.7635  0.2640 -0.4016
  167SAPE  H18X18915   2.434   4.422   8.093  1.9641  2.1827 -0.6693
  167SAPE  H18Y18916   2.451   4.448   8.269 -1.9037  1.2130  0.6932
  167SAPE  H18Z18917   2.420   4.587   8.150  0.0224  0.9695  2.5060
  168SAPE     N18918   3.998   4.986   6.034  0.3975  0.1361  0.2675
  168SAPE   HN118919   4.012   5.043   6.120 -0.7168  2.0342 -0.7492
  168SAPE   HN218920   3.933   5.043   5.977  0.5770 -0.6962 -0.8037
  168SAPE   HN318921   3.967   4.889   6.054  0.6727  0.0076  0.0859
  168SAPE   C1218922   4.125   4.963   5.965  0.9198  0.0419 -0.2091
  168SAPE  H12A18923   4.174   5.056   5.930  3.1782 -0.1710  2.1548
  168SAPE  H12B18924   4.109   4.884   5.888 -1.0174  0.6531 -0.4927
  168SAPE   C1118925   4.233   4.906   6.065  0.0829 -0.0935 -0.0692
  168SAPE  H11A18926   4.323   4.854   6.026 -0.1583 -0.7861  0.2864
  168SAPE  H11B18927   4.182   4.825   6.121 -1.5836  0.8492 -0.1902
  168SAPE     P18928   4.380   5.118   6.141  0.1126  0.2322  0.4849
  168SAPE   O1318929   4.522   5.070   6.137  0.0699  0.4807  0.1825
  168SAPE   O1418930   4.330   5.189   6.026 -0.1821  0.1590  0.7438
  168SAPE   O1218931   4.280   4.995   6.165  0.0427 -0.1314  0.1632
  168SAPE   O1118932   4.359   5.209   6.270  0.2423  0.4980  0.0534
  168SAPE    C118933   4.395   5.171   6.405 -0.1267 -0.2202  0.8562
  168SAPE    HA18934   4.498   5.130   6.402  0.4674  1.0403 -3.7594
  168SAPE    HB18935   4.399   5.256   6.476  1.2236  0.0258  0.5152
  168SAPE    C218936   4.306   5.054   6.460 -0.4336  0.4384 -0.0972
  168SAPE    HS18937   4.301   4.977   6.380 -1.9214  0.5264 -0.1079
  168SAPE   O2118938   4.176   5.114   6.493 -0.2462  0.5901 -0.7427
  168SAPE   C2118939   4.088   5.019   6.513 -0.0538 -0.2392  0.0919
  168SAPE   O2218940   4.109   4.897   6.493  0.4367 -0.1438 -0.7595
  168SAPE   C2218941   3.965   5.075   6.580  0.3159  0.0736 -0.3570
  168SAPE   H2R18942   3.936   5.169   6.527  1.2500 -0.3832 -1.7621
  168SAPE   H2S18943   3.884   5.002   6.563  1.1194 -0.5582 -1.6860
  168SAPE    C318944   4.384   5.001   6.586 -0.0917 -0.2615 -0.3180
  168SAPE    HX18945   4.468   4.942   6.544  0.3893  1.5012 -1.9291
  168SAPE    HY18946   4.312   4.938   6.643  2.7257 -3.8540 -0.3641
  168SAPE   O3118947   4.420   5.115   6.670 -0.2726 -0.0674  0.4108
  168SAPE   C3118948   4.544   5.107   6.724  0.5572  0.0218  0.4995
  168SAPE   O3218949   4.630   5.024   6.692  0.4501  0.1668  1.1359
  168SAPE   C3218950   4.549   5.218   6.826 -0.1241 -0.0542 -1.0683
  168SAPE   H2X18951   4.451   5.247   6.868  1.0721  0.8669  1.2380
  168SAPE   H2Y18952   4.588   5.313   6.783  1.5328 -0.6789 -1.0490
  168SAPE   C2318953   3.993   5.083   6.727  0.4427  0.0208  0.3271
  168SAPE   H3R18954   4.072   5.156   6.757 -0.5829  1.0482  0.5886
  168SAPE   H3S18955   4.025   4.980   6.756 -1.1093  0.0527  2.3582
  168SAPE   C2418956   3.868   5.098   6.813  0.2007 -0.4462  0.3256
  168SAPE   H4R18957   3.888   5.065   6.918  0.2701  1.4912  0.9616
  168SAPE   H4S18958   3.790   5.030   6.774  0.3355 -2.1858  2.8252
  168SAPE   C2518959   3.823   5.246   6.816  0.0382  0.4536  0.2397
  168SAPE   H5R18960   3.827   5.298   6.719  1.8311 -0.8975 -0.4598
  168SAPE   C2618961   3.781   5.316   6.924  0.2052 -0.1383 -0.6028
  168SAPE   H6R18962   3.750   5.420   6.905  2.5989  0.4803 -1.4999
  168SAPE   C2718963   3.775   5.263   7.068 -0.8369 -0.3457 -0.2358
  168SAPE   H7R18964   3.849   5.181   7.077  1.4530  1.6660  0.7134
  168SAPE   H7S18965   3.682   5.205   7.085  0.2660 -2.0512  0.2437
  168SAPE   C2818966   3.791   5.373   7.174 -0.0846  0.3126 -0.4064
  168SAPE   H8R18967   3.796   5.475   7.133 -0.9017 -0.1158 -1.6186
  168SAPE   C2918968   3.814   5.356   7.306 -0.2834  0.5958  0.6241
  168SAPE   H9R18969   3.829   5.442   7.372 -1.1156  0.6110  0.7999
  168SAPE  C21018970   3.831   5.220   7.370 -0.2656  0.8010 -0.3315
  168SAPE  H10R18971   3.937   5.209   7.402 -0.1390  2.7467  0.0658
  168SAPE  H10S18972   3.816   5.140   7.295 -0.3557  0.6879 -0.1938
  168SAPE  C21118973   3.732   5.208   7.483 -0.2009  0.2636  0.3971
  168SAPE  H11R18974   3.627   5.221   7.452 -0.1755 -1.5465 -0.5835
  168SAPE  C21218975   3.762   5.178   7.608  0.2588  0.7537  0.3033
  168SAPE  H12R18976   3.682   5.164   7.683  0.1994 -2.7853 -0.2831
  168SAPE  C21318977   3.902   5.143   7.662 -0.2464 -0.2766 -0.6070
  168SAPE  H13R18978   3.974   5.108   7.585 -0.5571 -0.2339 -0.9211
  168SAPE  H13S18979   3.899   5.063   7.739  1.3424 -0.4117 -0.6624
  168SAPE  C21418980   3.967   5.275   7.705 -0.1769  0.8485  0.1139
  168SAPE  H14R18981   4.019   5.330   7.626  0.2433  1.7543  0.9922
  168SAPE  C21518982   3.979   5.323   7.828 -0.0016 -0.2962 -0.4766
  168SAPE  H15R18983   4.028   5.421   7.837  1.8533 -1.2369  0.2992
  168SAPE  C21618984   3.934   5.269   7.959  0.1344 -0.9018 -0.1834
  168SAPE  H16R18985   4.019   5.220   8.012  0.6617 -1.3122 -1.3658
  168SAPE  H16S18986   3.857   5.192   7.940 -2.0207  1.4789 -1.7917
  168SAPE  C21718987   3.854   5.363   8.051 -0.3793 -0.1992 -0.4688
  168SAPE  H17R18988   3.771   5.410   7.994 -1.8672 -2.5377 -0.3570
  168SAPE  H17S18989   3.921   5.432   8.106 -0.3913 -1.3399  1.0250
  168SAPE  C21818990   3.803   5.273   8.166  0.4391  0.1650 -0.5064
  168SAPE  H18R18991   3.885   5.221   8.219  1.8185  0.5370 -2.1775
  168SAPE  H18S18992   3.733   5.199   8.121 -0.0741 -1.2578  2.3959
  168SAPE  C21918993   3.712   5.355   8.263  0.3914  0.2879 -0.7113
  168SAPE  H19R18994   3.637   5.284   8.302  0.8834  1.1385  1.9499
  168SAPE  H19S18995   3.653   5.429   8.204 -0.7466 -0.1422 -0.1526
  168SAPE  C22018996   3.776   5.416   8.396  0.5547  0.0493  0.0297
  168SAPE  H20R18997   3.859   5.483   8.364  2.0132 -1.7340 -0.0570
  168SAPE  H20S18998   3.830   5.332   8.444  0.9335 -0.7142 -1.6763
  168SAPE  H20T18999   3.701   5.463   8.465 -1.7320 -0.4596 -1.9759
  168SAPE   C3319000   4.624   5.183   6.955 -0.1309  0.2199 -0.0650
  168SAPE   H3X19001   4.676   5.265   7.008  0.9269 -0.5923  0.1858
  168SAPE   H3Y19002   4.697   5.106   6.921 -0.7053 -0.3811  0.0363
  168SAPE   C3419003   4.539   5.114   7.060  0.2364 -0.2790 -0.8953
  168SAPE   H4X19004   4.488   5.036   7.000  0.6187  0.1735 -1.8179
  168SAPE   H4Y19005   4.472   5.191   7.102 -0.2328 -1.1269 -0.0290
  168SAPE   C3519006   4.619   5.062   7.182  0.1628 -0.1354  0.1888
  168SAPE   H5X19007   4.706   5.014   7.133  0.3043  0.8714 -0.5668
  168SAPE   H5Y19008   4.567   4.977   7.232  1.7621 -0.7428  0.8661
  168SAPE   C3619009   4.665   5.167   7.277 -0.3071 -0.3679 -0.3637
  168SAPE   H6X19010   4.586   5.223   7.332 -0.1291 -0.5528  0.0926
  168SAPE   H6Y19011   4.711   5.252   7.222 -1.6415  1.3710  1.0651
  168SAPE   C3719012   4.751   5.108   7.394  0.4745 -0.1705  0.6700
  168SAPE   H7X19013   4.834   5.058   7.340  0.6600 -0.2127  0.9936
  168SAPE   H7Y19014   4.678   5.041   7.445 -0.0164 -1.3383 -1.4676
  168SAPE   C3819015   4.804   5.222   7.480 -0.5240 -0.2840 -0.9251
  168SAPE   H8X19016   4.720   5.293   7.499 -0.5994 -0.7245  0.5719
  168SAPE   H8Y19017   4.880   5.280   7.424 -0.3034  1.7408  1.2595
  168SAPE   C3919018   4.876   5.176   7.608 -0.0622  0.3529 -0.6146
  168SAPE   H9X19019   4.971   5.232   7.615  0.6583 -0.8365 -0.4701
  168SAPE   H9Y19020   4.903   5.068   7.596  0.2290  0.4581 -0.9116
  168SAPE  C31019021   4.795   5.189   7.733 -0.3038 -0.6002 -0.5189
  168SAPE  H10X19022   4.690   5.155   7.719 -0.8687  1.1367 -0.8118
  168SAPE  H10Y19023   4.783   5.297   7.759  1.3056  0.4292 -3.5137
  168SAPE  C31119024   4.867   5.117   7.847 -0.1511 -0.0390 -1.3425
  168SAPE  H11X19025   4.966   5.162   7.873 -0.8594  0.2727  1.0404
  168SAPE  H11Y19026   4.889   5.010   7.827  2.1675  0.1607 -0.2165
  168SAPE  C31219027   4.783   5.125   7.982  0.5318  0.5654 -0.0744
  168SAPE  H12X19028   4.685   5.079   7.959  1.0932  0.5110 -2.5579
  168SAPE  H12Y19029   4.751   5.230   8.001 -0.9674  0.3550 -1.2450
  168SAPE  C31319030   4.859   5.055   8.097 -0.5577 -0.1066 -0.2074
  168SAPE  H13X19031   4.952   5.112   8.114 -0.8194  0.6399 -1.1881
  168SAPE  H13Y19032   4.892   4.954   8.063 -0.9313 -0.7738  1.3106
  168SAPE  C31419033   4.783   5.058   8.237  0.3284  0.1298  0.6891
  168SAPE  H14X19034   4.767   5.165   8.261  0.7637  0.2169  0.6123
  168SAPE  H14Y19035   4.846   5.008   8.314  0.2723 -0.5519  0.2994
  168SAPE  C31519036   4.651   4.970   8.230 -0.6048 -0.3880 -0.1928
  168SAPE  H15X19037   4.677   4.878   8.173  1.9630  1.7682 -2.8506
  168SAPE  H15Y19038   4.574   5.032   8.181  1.7767  3.4449  0.5212
  168SAPE  C31619039   4.619   4.943   8.371 -0.2382  0.9326 -0.3160
  168SAPE  H16X19040   4.605   5.031   8.437 -2.3909  0.1524  0.3443
  168SAPE  H16Y19041   4.700   4.875   8.409  0.1442 -0.4765 -3.3597
  168SAPE  C31719042   4.487   4.874   8.389  0.4278  0.6852 -0.1491
  168SAPE  H17X19043   4.498   4.765   8.369  2.8322  0.4564  1.9583
  168SAPE  H17Y19044   4.411   4.913   8.318  0.2124  0.4750 -0.0367
  168SAPE  C31819045   4.419   4.885   8.529  0.5744  0.2084  0.3445
  168SAPE  H18X19046   4.345   4.803   8.541 -0.6996  1.5287  1.8612
  168SAPE  H18Y19047   4.370   4.984   8.531  0.4719  0.1758 -0.2387
  168SAPE  H18Z19048   4.497   4.868   8.606 -1.1561 -1.2617  1.8822
  169SAPE     N19049   2.717   0.680   6.483 -0.3986 -0.0297 -0.3308
  169SAPE   HN119050   2.676   0.622   6.406  1.5972  0.7472 -2.0706
  169SAPE   HN219051   2.651   0.700   6.561  0.3526 -2.3476  0.9986
  169SAPE   HN319052   2.749   0.769   6.439  1.8703 -1.0135 -0.7936
  169SAPE   C1219053   2.829   0.601   6.548  0.1793 -0.0694  0.2064
  169SAPE  H12A19054   2.778   0.520   6.603  0.6679  0.4489  1.4457
  169SAPE  H12B19055   2.879   0.666   6.623  0.8258 -0.3375  0.0183
  169SAPE   C1119056   2.933   0.535   6.458 -0.1055  0.3878  0.2996
  169SAPE  H11A19057   2.879   0.459   6.399 -1.7027  1.8828 -0.2323
  169SAPE  H11B19058   3.001   0.483   6.529  2.1037 -0.0981 -2.0257
  169SAPE     P19059   3.152   0.608   6.324 -0.3120 -0.1354 -0.1129
  169SAPE   O1319060   3.150   0.485   6.241 -0.3492  0.5132  0.4925
  169SAPE   O1419061   3.207   0.729   6.262  0.2504  0.3867  0.0192
  169SAPE   O1219062   3.002   0.630   6.378 -0.0941 -0.1174 -0.0386
  169SAPE   O1119063   3.222   0.582   6.461  0.0445 -0.2598  0.5445
  169SAPE    C119064   3.344   0.512   6.473  0.6406  0.9125 -0.1194
  169SAPE    HA19065   3.330   0.407   6.440  1.4246  1.0082 -0.7859
  169SAPE    HB19066   3.425   0.546   6.405 -0.3345  0.1086 -1.7412
  169SAPE    C219067   3.399   0.498   6.623  0.2272 -0.3488 -0.4150
  169SAPE    HS19068   3.308   0.499   6.686  1.7388  1.4350  1.9135
  169SAPE   O2119069   3.471   0.610   6.654 -0.8191 -0.2296 -0.2942
  169SAPE   C2119070   3.494   0.631   6.785  0.3817  0.2890 -0.2622
  169SAPE   O2219071   3.438   0.580   6.876 -0.1075 -0.6605 -0.6666
  169SAPE   C2219072   3.593   0.748   6.797 -0.0533  0.1870  0.1646
  169SAPE   H2R19073   3.684   0.704   6.752  0.4257  2.3760 -1.1708
  169SAPE   H2S19074   3.560   0.837   6.739  1.1572  0.2011 -0.5428
  169SAPE    C319075   3.475   0.362   6.639  0.5963 -0.8254 -0.0436
  169SAPE    HX19076   3.565   0.357   6.573 -0.2970 -0.9723 -1.2842
  169SAPE    HY19077   3.406   0.286   6.597 -0.2448  0.3690 -0.8972
  169SAPE   O3119078   3.497   0.321   6.772 -0.2413  0.7216 -0.1892
  169SAPE   C3119079   3.400   0.262   6.834  0.0917  0.6738 -0.0205
  169SAPE   O3219080   3.285   0.255   6.802 -0.2807 -0.1847 -0.3810
  169SAPE   C3219081   3.457   0.234   6.973 -0.7177 -0.2515 -0.3671
  169SAPE   H2X19082   3.484   0.331   7.019  2.1352 -1.3210  0.4858
  169SAPE   H2Y19083   3.561   0.194   6.964 -0.5807 -0.2146  0.9038
  169SAPE   C2319084   3.599   0.790   6.944  0.3266  0.0993  0.6571
  169SAPE   H3R19085   3.668   0.714   6.987  0.7932 -0.8916 -1.7081
  169SAPE   H3S19086   3.499   0.799   6.991 -0.9922  0.1015 -2.0040
  169SAPE   C2419087   3.656   0.932   6.966  0.7110  0.2046  0.3024
  169SAPE   H4R19088   3.651   0.952   7.076 -1.7069 -0.7385  0.4217
  169SAPE   H4S19089   3.594   1.018   6.931  0.6832 -0.0735 -0.3395
  169SAPE   C2519090   3.793   0.966   6.909 -0.4999  0.5881 -0.1130
  169SAPE   H5R19091   3.796   0.993   6.802 -0.1638 -0.0845 -0.2761
  169SAPE   C2619092   3.900   0.974   6.997  0.2080 -0.5394 -0.3239
  169SAPE   H6R19093   3.995   0.966   6.943 -0.6351 -0.3565 -1.8867
  169SAPE   C2719094   3.885   0.943   7.148 -0.5977 -0.9814  0.0959
  169SAPE   H7R19095   3.796   0.880   7.174 -0.4112 -0.2973  2.6737
  169SAPE   H7S19096   3.851   1.041   7.188 -0.0742 -0.5448 -0.5146
  169SAPE   C2819097   4.015   0.887   7.206  0.6735 -0.1796 -0.9468
  169SAPE   H8R19098   4.074   0.824   7.139  1.7342 -2.3230  1.8090
  169SAPE   C2919099   4.051   0.898   7.333 -0.3423  0.4993 -0.1797
  169SAPE   H9R19100   4.143   0.846   7.363 -0.5792  0.0423 -0.2459
  169SAPE  C21019101   3.979   0.971   7.441 -0.0112  0.1043 -0.3877
  169SAPE  H10R19102   3.902   1.032   7.389 -0.1107  2.1961  2.0281
  169SAPE  H10S19103   4.040   1.047   7.494  0.3901 -0.8844  0.6001
  169SAPE  C21119104   3.902   0.882   7.531  0.6781 -0.2161 -0.1486
  169SAPE  H11R19105   3.833   0.806   7.488  0.0587  0.6609 -0.7370
  169SAPE  C21219106   3.902   0.889   7.666  0.3899  0.0320 -0.3716
  169SAPE  H12R19107   3.832   0.819   7.715 -0.5790  0.0941 -1.6134
  169SAPE  C21319108   3.980   0.991   7.747 -0.2306  0.4949  0.5612
  169SAPE  H13R19109   3.939   1.092   7.724 -0.7627  0.2245  0.2947
  169SAPE  H13S19110   4.088   0.985   7.726  0.0895  2.4521  1.4141
  169SAPE  C21419111   3.958   0.965   7.900  0.2976  1.5086  0.0433
  169SAPE  H14R19112   3.860   0.940   7.943  1.3055  1.8368  2.6757
  169SAPE  C21519113   4.049   0.987   7.997  0.1715 -0.4507 -0.5197
  169SAPE  H15R19114   4.020   0.960   8.099 -0.3234  0.0400 -0.5248
  169SAPE  C21619115   4.196   1.021   7.984 -0.0802 -0.9533  0.0616
  169SAPE  H16R19116   4.216   1.082   7.893  1.0340 -0.2274  0.7576
  169SAPE  H16S19117   4.244   0.922   7.969  0.3681 -0.5287 -1.5473
  169SAPE  C21719118   4.271   1.093   8.102 -0.2962  0.1068  0.0817
  169SAPE  H17R19119   4.228   1.194   8.114 -2.6663 -1.0174  1.9282
  169SAPE  H17S19120   4.381   1.090   8.082 -0.6054  1.2849 -2.1498
  169SAPE  C21819121   4.240   1.022   8.236 -0.0254 -0.8443 -0.7500
  169SAPE  H18R19122   4.132   1.034   8.256  0.2546  0.9325 -0.1379
  169SAPE  H18S19123   4.280   1.079   8.323 -1.3115 -1.0360 -0.0187
  169SAPE  C21919124   4.311   0.895   8.268  0.2028 -0.8081 -0.2784
  169SAPE  H19R19125   4.420   0.914   8.257  0.0576 -0.5303 -1.3179
  169SAPE  H19S19126   4.298   0.813   8.194  2.4987 -0.6920 -0.8643
  169SAPE  C22019127   4.278   0.844   8.408  1.0822  0.0227  0.0895
  169SAPE  H20R19128   4.167   0.836   8.415  1.1320  0.4401  1.9051
  169SAPE  H20S19129   4.320   0.918   8.479  3.1644 -1.0402  0.0488
  169SAPE  H20T19130   4.321   0.744   8.431  1.4264  0.3223  0.7927
  169SAPE   C3319131   3.373   0.151   7.070  0.6628  0.9740 -0.3745
  169SAPE   H3X19132   3.345   0.051   7.031 -0.6518  0.9015  0.6921
  169SAPE   H3Y19133   3.285   0.206   7.110  0.7069  0.7420  0.0549
  169SAPE   C3419134   3.453   0.106   7.197  0.3682  0.0548  0.5364
  169SAPE   H4X19135   3.460   0.198   7.258 -1.7842  1.2424 -0.8957
  169SAPE   H4Y19136   3.559   0.086   7.168 -0.0626 -1.6015 -0.0472
  169SAPE   C3519137   3.368   0.005   7.279  0.3469 -0.0357 -1.0881
  169SAPE   H5X19138   3.392  -0.086   7.218 -0.3243 -0.0507 -1.3349
  169SAPE   H5Y19139   3.260   0.028   7.266  0.8750  3.2785 -0.4896
  169SAPE   C3619140   3.409   0.012   7.424 -0.1872 -0.4762 -0.0843
  169SAPE   H6X19141   3.517   0.033   7.433 -0.4892  0.8980  0.5460
  169SAPE   H6Y19142   3.395  -0.094   7.456 -3.0870  0.0024  0.5607
  169SAPE   C3719143   3.336   0.115   7.514  0.1874 -0.1170  0.3353
  169SAPE   H7X19144   3.227   0.097   7.501  0.2226 -2.0914  2.1074
  169SAPE   H7Y19145   3.371   0.217   7.488  2.3099 -0.9901 -0.4748
  169SAPE   C3819146   3.380   0.108   7.653 -0.4408  0.2427 -0.1945
  169SAPE   H8X19147   3.488   0.129   7.665 -0.7313  1.3922  0.7524
  169SAPE   H8Y19148   3.355   0.006   7.687  1.8738 -1.2150 -2.5661
  169SAPE   C3919149   3.304   0.215   7.739  0.5669  0.9574  0.1402
  169SAPE   H9X19150   3.199   0.180   7.727  0.9360 -0.1519 -0.0261
  169SAPE   H9Y19151   3.312   0.319   7.702 -0.6996  1.3406  0.8708
  169SAPE  C31019152   3.339   0.199   7.882 -0.1032 -0.0974 -0.0054
  169SAPE  H10X19153   3.437   0.249   7.896  1.3397 -2.9149  0.7912
  169SAPE  H10Y19154   3.365   0.093   7.903 -1.2847 -0.2153  0.9793
  169SAPE  C31119155   3.244   0.257   7.987  0.7753 -0.0562  0.2530
  169SAPE  H11X19156   3.151   0.197   7.994  0.9785 -0.5794 -1.1697
  169SAPE  H11Y19157   3.230   0.363   7.958  1.3624  0.2497  1.0438
  169SAPE  C31219158   3.320   0.269   8.125  0.1135  0.0914 -0.1498
  169SAPE  H12X19159   3.416   0.320   8.103  0.0109  0.5291  0.3804
  169SAPE  H12Y19160   3.337   0.165   8.159 -0.3936  0.9325  3.0568
  169SAPE  C31319161   3.243   0.357   8.224 -0.5714  0.0319 -0.3294
  169SAPE  H13X19162   3.155   0.299   8.259 -0.9661  1.0460  0.3908
  169SAPE  H13Y19163   3.208   0.448   8.171 -2.7336  0.3831  1.5557
  169SAPE  C31419164   3.310   0.409   8.350 -0.5076  0.0158 -0.5735
  169SAPE  H14X19165   3.238   0.465   8.414  0.3832 -0.9968  1.4017
  169SAPE  H14Y19166   3.392   0.478   8.321 -1.5983  0.1854 -3.5850
  169SAPE  C31519167   3.389   0.300   8.431 -0.4923 -0.5719 -0.3004
  169SAPE  H15X19168   3.462   0.249   8.364  0.7691  1.1758 -0.3149
  169SAPE  H15Y19169   3.319   0.220   8.464  0.2647 -0.0704  2.8380
  169SAPE  C31619170   3.472   0.341   8.550  0.2659 -0.1721 -0.7498
  169SAPE  H16X19171   3.534   0.430   8.529 -0.5679  0.2955 -1.2920
  169SAPE  H16Y19172   3.542   0.257   8.570 -0.9216 -1.0678 -0.2411
  169SAPE  C31719173   3.383   0.360   8.679 -0.1377  0.8684  0.8367
  169SAPE  H17X19174   3.295   0.294   8.674  0.3998  0.2223 -0.9784
  169SAPE  H17Y19175   3.340   0.462   8.673 -2.7613 -0.1884  0.4941
  169SAPE  C31819176   3.467   0.331   8.799  0.1654  0.5383  0.1672
  169SAPE  H18X19177   3.543   0.409   8.814  0.2187  0.1696  2.0777
  169SAPE  H18Y19178   3.515   0.231   8.801  1.1933  0.9947 -0.9114
  169SAPE  H18Z19179   3.404   0.334   8.891  0.0545 -0.9409  0.1667
  170SAPE     N19180   3.259   3.567   5.970  0.5187 -0.3339 -0.1898
  170SAPE   HN119181   3.332   3.564   6.043  0.0596 -1.5343  0.2487
  170SAPE   HN219182   3.168   3.531   6.006 -1.2410  1.7966 -2.1568
  170SAPE   HN319183   3.299   3.508   5.894  0.0320 -1.1226  0.1486
  170SAPE   C1219184   3.241   3.713   5.931  0.2629 -0.8214  0.0195
  170SAPE  H12A19185   3.145   3.715   5.875 -0.3646  1.6468  1.0346
  170SAPE  H12B19186   3.333   3.744   5.876  1.5392  2.8600  3.7186
  170SAPE   C1119187   3.234   3.813   6.050 -0.5636 -0.3094 -0.0294
  170SAPE  H11A19188   3.213   3.915   6.012 -2.7716 -0.8989 -0.4908
  170SAPE  H11B19189   3.331   3.813   6.106 -0.8857 -2.3321  0.6271
  170SAPE     P19190   3.122   3.825   6.284  0.1883  0.2631 -0.2534
  170SAPE   O1319191   3.259   3.842   6.334  0.1617  0.2504  0.0955
  170SAPE   O1419192   3.031   3.939   6.284  0.3616  0.3217 -0.0317
  170SAPE   O1219193   3.135   3.757   6.141 -0.7502  0.3102 -0.0056
  170SAPE   O1119194   3.055   3.707   6.369 -0.3439  0.3285 -0.1221
  170SAPE    C119195   2.951   3.727   6.467  0.4748  0.2997  0.0143
  170SAPE    HA19196   2.912   3.831   6.473 -1.5824 -0.3950 -0.4461
  170SAPE    HB19197   2.867   3.655   6.451 -0.2784  1.2976 -0.6324
  170SAPE    C219198   3.004   3.685   6.612 -0.1104  0.2662 -0.8271
  170SAPE    HS19199   2.940   3.610   6.662 -0.4918  1.2180  0.1494
  170SAPE   O2119200   3.027   3.796   6.704 -0.2786 -0.0795 -0.5700
  170SAPE   C2119201   2.921   3.840   6.757 -0.5912  0.0134  0.8679
  170SAPE   O2219202   2.807   3.790   6.752 -0.3130  0.4581 -0.0338
  170SAPE   C2219203   2.963   3.975   6.816 -0.1371 -0.2164 -0.4953
  170SAPE   H2R19204   3.063   3.969   6.864 -0.0550  2.7207 -0.0616
  170SAPE   H2S19205   2.974   4.040   6.726  0.6289 -0.4147 -0.5499
  170SAPE    C319206   3.143   3.612   6.598  0.5044  1.0022  0.2439
  170SAPE    HX19207   3.210   3.676   6.537 -0.6130  1.7426 -0.2225
  170SAPE    HY19208   3.137   3.524   6.531  2.8358  0.2157  0.9438
  170SAPE   O3119209   3.208   3.582   6.730 -0.3714  0.0774 -0.3290
  170SAPE   C3119210   3.165   3.460   6.775 -0.0476 -0.3402  0.2985
  170SAPE   O3219211   3.092   3.388   6.718 -0.3891  0.6034 -0.4719
  170SAPE   C3219212   3.242   3.432   6.901  0.1192  0.5495  0.1163
  170SAPE   H2X19213   3.341   3.408   6.857  0.3535  0.5812  0.6219
  170SAPE   H2Y19214   3.191   3.352   6.958 -0.9378 -0.0569 -1.6116
  170SAPE   C2319215   2.862   4.041   6.917 -0.0065 -0.5442 -1.1607
  170SAPE   H3R19216   2.844   3.976   7.005 -2.0321  1.6802  0.1508
  170SAPE   H3S19217   2.772   4.049   6.853  0.3373 -1.1418 -1.7387
  170SAPE   C2419218   2.904   4.183   6.968  0.1607  0.1931  0.6597
  170SAPE   H4R19219   2.810   4.234   6.996 -1.1504 -0.4915 -2.0522
  170SAPE   H4S19220   2.939   4.245   6.883  1.7143 -0.4191  0.8195
  170SAPE   C2519221   3.002   4.186   7.076  0.0122 -0.8738 -0.6989
  170SAPE   H5R19222   3.000   4.101   7.145  1.4340 -2.3272 -2.3490
  170SAPE   C2619223   3.099   4.278   7.098 -0.2706  0.4521  0.3391
  170SAPE   H6R19224   3.157   4.272   7.191  1.0605  3.7588 -0.1551
  170SAPE   C2719225   3.146   4.386   7.010  0.1830 -0.1336  0.4102
  170SAPE   H7R19226   3.105   4.485   7.038  1.0950  1.5189 -3.4008
  170SAPE   H7S19227   3.129   4.371   6.901 -0.1019  0.0146  0.4353
  170SAPE   C2819228   3.297   4.395   7.018 -0.3463 -0.2408  0.3284
  170SAPE   H8R19229   3.343   4.327   6.945  2.6575  2.3327 -0.3930
  170SAPE   C2919230   3.378   4.472   7.095  0.0269 -0.2059 -0.7379
  170SAPE   H9R19231   3.485   4.469   7.070 -0.1172 -0.4170 -1.3519
  170SAPE  C21019232   3.339   4.580   7.191 -0.7326 -0.3662  0.5802
  170SAPE  H10R19233   3.235   4.607   7.162  0.2318  1.7418 -1.2853
  170SAPE  H10S19234   3.389   4.676   7.165  0.8910 -1.1336  0.8151
  170SAPE  C21119235   3.351   4.544   7.341 -0.6194  0.4320 -0.1139
  170SAPE  H11R19236   3.459   4.541   7.363 -0.3273 -1.4220 -1.4974
  170SAPE  C21219237   3.255   4.535   7.433 -0.1780 -0.2364  0.0376
  170SAPE  H12R19238   3.286   4.493   7.530 -0.8969 -1.9129 -0.4244
  170SAPE  C21319239   3.105   4.549   7.408  0.0310 -0.2854 -0.8282
  170SAPE  H13R19240   3.084   4.455   7.354 -0.4528 -0.9242  0.4257
  170SAPE  H13S19241   3.094   4.632   7.335 -1.3269 -0.3305 -0.6944
  170SAPE  C21419242   3.036   4.575   7.537  0.4052 -0.2023  0.2858
  170SAPE  H14R19243   3.079   4.649   7.607 -0.0668  1.0907 -0.7588
  170SAPE  C21519244   2.950   4.487   7.605  0.2019  0.3145  0.0540
  170SAPE  H15R19245   2.915   4.512   7.706  0.5680 -0.7441  0.4564
  170SAPE  C21619246   2.902   4.355   7.557 -0.3860  0.1423 -0.5523
  170SAPE  H16R19247   2.942   4.330   7.456 -0.9044  1.6094 -1.1464
  170SAPE  H16S19248   2.791   4.363   7.547 -0.2951  3.1405 -0.0657
  170SAPE  C21719249   2.942   4.230   7.643  0.3859 -1.5051  0.3990
  170SAPE  H17R19250   2.878   4.218   7.733  0.8013 -1.6211  0.6785
  170SAPE  H17S19251   3.046   4.230   7.681  1.1581 -0.7420 -1.5679
  170SAPE  C21819252   2.911   4.104   7.560  0.2281  0.6502 -0.1390
  170SAPE  H18R19253   2.808   4.095   7.520 -0.8082  0.9773  2.2620
  170SAPE  H18S19254   2.920   4.019   7.631  0.8396 -0.6013 -1.6608
  170SAPE  C21919255   3.007   4.066   7.444  0.0087  0.5889 -0.3603
  170SAPE  H19R19256   3.105   4.066   7.496 -0.0531 -3.2349  0.0776
  170SAPE  H19S19257   3.017   4.143   7.364  2.4531  0.2249 -0.4873
  170SAPE  C22019258   2.989   3.922   7.400 -0.4908  0.0204  0.0648
  170SAPE  H20R19259   3.000   3.874   7.500  2.1287  4.7037  2.3726
  170SAPE  H20S19260   3.066   3.898   7.324  0.3920 -0.4728  1.0861
  170SAPE  H20T19261   2.888   3.911   7.355 -1.0059  2.7615  0.4154
  170SAPE   C3319262   3.243   3.553   6.999  0.5400 -0.3548 -0.2576
  170SAPE   H3X19263   3.142   3.580   7.035 -0.8178  0.1590 -4.0156
  170SAPE   H3Y19264   3.286   3.638   6.943  1.8067 -1.1150 -0.5007
  170SAPE   C3419265   3.313   3.529   7.133 -0.1983  0.2926 -0.5155
  170SAPE   H4X19266   3.400   3.596   7.149  1.6590 -1.4634 -2.5912
  170SAPE   H4Y19267   3.366   3.431   7.126 -0.4546  0.2297 -1.8690
  170SAPE   C3519268   3.225   3.535   7.257 -0.3562  0.0487 -0.6111
  170SAPE   H5X19269   3.159   3.446   7.247  0.3968 -0.7286  0.9626
  170SAPE   H5Y19270   3.162   3.624   7.273 -1.9071 -1.3716  1.7907
  170SAPE   C3619271   3.313   3.514   7.376  0.0155  0.4558 -0.9235
  170SAPE   H6X19272   3.375   3.606   7.382  0.7580  0.0430 -2.0140
  170SAPE   H6Y19273   3.379   3.428   7.357 -0.9086 -0.5437  0.2103
  170SAPE   C3719274   3.240   3.485   7.512 -0.4208 -0.6458  0.1036
  170SAPE   H7X19275   3.190   3.386   7.509 -1.9016  0.0818 -0.6266
  170SAPE   H7Y19276   3.154   3.555   7.527 -0.8658 -0.8898 -1.1805
  170SAPE   C3819277   3.338   3.499   7.629  0.2741 -0.0551 -0.7019
  170SAPE   H8X19278   3.380   3.601   7.638  0.2795  0.0978 -2.1763
  170SAPE   H8Y19279   3.423   3.428   7.618  2.0143  1.8724 -0.3011
  170SAPE   C3919280   3.263   3.474   7.763 -0.0688  0.1893  0.0917
  170SAPE   H9X19281   3.352   3.468   7.830  2.2869  0.8083 -2.7299
  170SAPE   H9Y19282   3.217   3.374   7.748  0.2497  0.0855 -0.2094
  170SAPE  C31019283   3.152   3.567   7.815 -0.0455  0.1519 -0.0747
  170SAPE  H10X19284   3.063   3.506   7.842  0.2906  1.1647  4.1143
  170SAPE  H10Y19285   3.132   3.638   7.731  0.1964 -0.0257 -0.2830
  170SAPE  C31119286   3.204   3.641   7.944  0.1104 -0.6731 -0.4551
  170SAPE  H11X19287   3.301   3.692   7.929  1.1465 -2.3096  0.3369
  170SAPE  H11Y19288   3.232   3.557   8.011  0.4067 -0.9831 -0.9648
  170SAPE  C31219289   3.103   3.734   8.006  0.4624  0.2786 -0.2037
  170SAPE  H12X19290   3.136   3.740   8.112  0.9866 -3.6728  0.0255
  170SAPE  H12Y19291   3.003   3.686   8.014  0.6508  0.0267  0.7469
  170SAPE  C31319292   3.093   3.876   7.944 -0.2089 -0.4050  0.1307
  170SAPE  H13X19293   3.095   3.865   7.834 -1.1403 -0.1774  0.0914
  170SAPE  H13Y19294   3.182   3.938   7.970 -1.2455  1.2971 -0.2427
  170SAPE  C31419295   2.967   3.958   7.979  0.0063 -0.2041  0.4773
  170SAPE  H14X19296   2.874   3.897   7.980  0.0969 -0.4724  3.6462
  170SAPE  H14Y19297   2.961   4.040   7.904 -2.7557 -1.8075 -1.2328
  170SAPE  C31519298   2.976   4.017   8.120 -0.1758  0.5483 -0.4941
  170SAPE  H15X19299   3.073   4.071   8.132  1.4936 -2.3235 -0.2349
  170SAPE  H15Y19300   2.981   3.932   8.191  2.3983 -0.2501 -1.4909
  170SAPE  C31619301   2.857   4.101   8.166  0.1343  0.4251 -0.1449
  170SAPE  H16X19302   2.873   4.158   8.260 -2.5407 -1.5558  1.6331
  170SAPE  H16Y19303   2.768   4.036   8.165 -0.2820  0.9888 -0.4930
  170SAPE  C31719304   2.837   4.214   8.060  0.6185  0.0301 -0.1329
  170SAPE  H17X19305   2.800   4.151   7.976  4.4610 -4.0620  0.8352
  170SAPE  H17Y19306   2.937   4.245   8.024 -0.0660  2.2524 -0.2537
  170SAPE  C31819307   2.752   4.340   8.102  0.9865 -0.0229  0.0744
  170SAPE  H18X19308   2.756   4.419   8.025  0.0352  0.9239  0.9645
  170SAPE  H18Y19309   2.794   4.379   8.197  0.2825  2.8705 -0.7140
  170SAPE  H18Z19310   2.644   4.316   8.113  0.5365  1.5078 -0.7527
  171SAPE     N19311   5.205   5.063   6.241  0.0437 -0.0109  0.4783
  171SAPE   HN119312   5.148   5.049   6.327 -0.5335  0.4546  0.1764
  171SAPE   HN219313   5.274   5.137   6.264  0.1114 -0.1221  0.6311
  171SAPE   HN319314   5.142   5.105   6.170  1.7844 -0.6928 -1.5521
  171SAPE   C1219315   5.268   4.939   6.202 -0.0400  0.2521 -0.5338
  171SAPE  H12A19316   5.221   4.915   6.104  0.0806  0.2999 -0.6024
  171SAPE  H12B19317   5.235   4.857   6.271  0.6270  0.3629 -0.0733
  171SAPE   C1119318   5.420   4.939   6.196  1.0525  0.0377  0.9185
  171SAPE  H11A19319   5.453   5.017   6.125 -0.9849 -0.0705 -0.1987
  171SAPE  H11B19320   5.450   4.843   6.148  1.1535  0.3095  0.4309
  171SAPE     P19321   5.618   4.931   6.363 -0.0894  0.1450  0.0535
  171SAPE   O1319322   5.698   4.934   6.239 -0.2932 -0.0549 -1.2431
  171SAPE   O1419323   5.665   5.018   6.475  0.7961  0.5806  0.1530
  171SAPE   O1219324   5.474   4.961   6.326  0.0525  0.2400 -0.7313
  171SAPE   O1119325   5.605   4.780   6.420  0.5403  0.2122  0.4024
  171SAPE    C119326   5.513   4.735   6.519  0.2023 -0.3024 -0.0120
  171SAPE    HA19327   5.439   4.808   6.559  2.4449  0.9021  2.2116
  171SAPE    HB19328   5.452   4.656   6.469 -1.0735  1.6362 -1.7211
  171SAPE    C219329   5.571   4.683   6.647 -0.0321 -0.0306 -0.9133
  171SAPE    HS19330   5.583   4.771   6.713  0.6780  0.2720 -1.4369
  171SAPE   O2119331   5.694   4.614   6.622  0.3700 -0.7547  0.2446
  171SAPE   C2119332   5.804   4.689   6.655 -0.8736  0.8850  1.0396
  171SAPE   O2219333   5.802   4.804   6.686 -0.5857  0.4433 -0.2296
  171SAPE   C2219334   5.933   4.601   6.660 -0.2854  0.7292  0.4197
  171SAPE   H2R19335   5.905   4.506   6.610 -0.1376  1.3310 -0.8438
  171SAPE   H2S19336   6.012   4.650   6.601 -0.4711 -0.7475 -1.1461
  171SAPE    C319337   5.470   4.593   6.732  0.3013 -0.3917  0.3374
  171SAPE    HX19338   5.453   4.496   6.680  3.2296 -0.6247 -0.3566
  171SAPE    HY19339   5.375   4.651   6.739  0.5234 -0.1719  1.7159
  171SAPE   O3119340   5.529   4.562   6.863  0.1910 -0.1231 -0.2980
  171SAPE   C3119341   5.477   4.613   6.977 -0.3565  0.4126 -0.6953
  171SAPE   O3219342   5.374   4.677   6.973 -0.3807 -0.0991  0.1508
  171SAPE   C3219343   5.547   4.570   7.097  0.2564  0.1738 -0.0623
  171SAPE   H2X19344   5.646   4.621   7.098  0.6139 -0.5209  0.6964
  171SAPE   H2Y19345   5.565   4.461   7.083 -0.9091  0.0568 -0.7798
  171SAPE   C2319346   5.976   4.578   6.806  0.5536  0.5625 -0.0268
  171SAPE   H3R19347   5.976   4.674   6.862 -2.3532 -0.4036  1.8997
  171SAPE   H3S19348   6.081   4.542   6.812  0.0994 -0.9183 -0.3455
  171SAPE   C2419349   5.885   4.479   6.885 -0.4999 -0.1308 -0.2897
  171SAPE   H4R19350   5.778   4.481   6.855 -1.5035 -1.2131  2.8489
  171SAPE   H4S19351   5.894   4.512   6.991  0.2277 -0.5566 -0.2098
  171SAPE   C2519352   5.922   4.335   6.870 -0.1929  0.8452 -0.0647
  171SAPE   H5R19353   5.912   4.288   6.771  1.5932  1.9883 -0.8402
  171SAPE   C2619354   5.966   4.259   6.967 -0.2774  0.8699  0.1946
  171SAPE   H6R19355   5.994   4.153   6.952 -1.0657  0.5797  0.7506
  171SAPE   C2719356   5.995   4.309   7.107  0.6853  0.1651  0.3597
  171SAPE   H7R19357   6.032   4.413   7.098  0.3377  0.1261 -2.3903
  171SAPE   H7S19358   6.071   4.242   7.151  0.0530  0.1889  1.5311
  171SAPE   C2819359   5.864   4.293   7.180 -0.5629  0.2931 -0.6439
  171SAPE   H8R19360   5.776   4.324   7.123 -0.7922 -0.4461 -0.6993
  171SAPE   C2919361   5.852   4.267   7.315 -0.5878  0.0888  0.4917
  171SAPE   H9R19362   5.754   4.263   7.365 -0.5235 -1.8774  0.5590
  171SAPE  C21019363   5.958   4.243   7.414 -0.4929 -0.4280  0.0513
  171SAPE  H10R19364   6.051   4.214   7.360  0.0012 -2.1539  1.7355
  171SAPE  H10S19365   5.920   4.164   7.482 -1.9376  0.0135 -0.2083
  171SAPE  C21119366   6.000   4.367   7.488 -0.2139 -0.6634  0.1808
  171SAPE  H11R19367   6.074   4.433   7.440  1.6447 -1.0445  2.3568
  171SAPE  C21219368   5.969   4.394   7.617 -0.1254 -1.3545  0.5491
  171SAPE  H12R19369   6.029   4.474   7.663  0.1765 -0.0026 -1.9899
  171SAPE  C21319370   5.881   4.319   7.711 -0.5259 -0.6159 -0.1593
  171SAPE  H13R19371   5.862   4.217   7.671  0.0985 -0.6572 -0.3660
  171SAPE  H13S19372   5.780   4.362   7.720 -0.0344  0.1544  2.5859
  171SAPE  C21419373   5.954   4.313   7.842  0.4791 -0.4357  0.8145
  171SAPE  H14R19374   6.053   4.265   7.832  0.4237 -0.2615 -0.9881
  171SAPE  C21519375   5.907   4.347   7.966  0.0842  0.4118  0.3130
  171SAPE  H15R19376   5.966   4.315   8.054 -0.8922  1.2225  1.2913
  171SAPE  C21619377   5.763   4.393   7.992  0.2209 -0.5686 -0.6380
  171SAPE  H16R19378   5.728   4.468   7.918 -0.3269  1.4532  1.5617
  171SAPE  H16S19379   5.773   4.448   8.088  0.4517  0.8449 -1.4403
  171SAPE  C21719380   5.666   4.279   7.999  0.0092  0.3474 -0.1789
  171SAPE  H17R19381   5.703   4.183   7.958 -0.5011  0.5684 -1.2001
  171SAPE  H17S19382   5.576   4.290   7.935  0.2699 -2.1983 -1.0878
  171SAPE  C21819383   5.611   4.246   8.136 -0.9467 -0.0171 -0.3463
  171SAPE  H18R19384   5.541   4.160   8.129 -0.8267 -0.0089 -1.9958
  171SAPE  H18S19385   5.551   4.331   8.174 -0.4682  0.3866 -0.4809
  171SAPE  C21919386   5.717   4.206   8.240  0.7414  0.5419  0.5565
  171SAPE  H19R19387   5.814   4.261   8.233  1.2039 -0.4423 -1.8717
  171SAPE  H19S19388   5.730   4.097   8.229 -0.4511  0.4530 -0.1965
  171SAPE  C22019389   5.653   4.230   8.371 -0.5177  0.0489 -0.1168
  171SAPE  H20R19390   5.559   4.172   8.379  0.2566 -1.1408  0.7405
  171SAPE  H20S19391   5.627   4.337   8.387 -2.8801 -0.0025 -2.7580
  171SAPE  H20T19392   5.718   4.196   8.454  0.4468 -0.4337 -1.0441
  171SAPE   C3319393   5.474   4.614   7.223 -0.2284  0.0658 -0.0682
  171SAPE   H3X19394   5.369   4.576   7.225 -0.3122  0.2379 -0.8670
  171SAPE   H3Y19395   5.465   4.724   7.226 -1.6093 -0.0425  1.7760
  171SAPE   C3419396   5.545   4.571   7.356 -0.2320 -0.0170  0.3982
  171SAPE   H4X19397   5.647   4.614   7.349 -0.2344 -0.0989 -0.1964
  171SAPE   H4Y19398   5.543   4.460   7.346 -0.9289  0.0472 -0.3530
  171SAPE   C3519399   5.475   4.606   7.491 -0.2137 -0.4408 -0.2614
  171SAPE   H5X19400   5.400   4.524   7.490 -0.1857 -0.4994  1.0309
  171SAPE   H5Y19401   5.432   4.708   7.486 -1.0117 -0.7488  0.1668
  171SAPE   C3619402   5.571   4.599   7.617 -1.0156  0.2357  0.5553
  171SAPE   H6X19403   5.655   4.669   7.597 -0.1594 -0.7363  0.6475
  171SAPE   H6Y19404   5.609   4.495   7.625 -0.5815  0.0154 -3.0614
  171SAPE   C3719405   5.514   4.658   7.744  0.4610 -0.3364 -0.2921
  171SAPE   H7X19406   5.467   4.758   7.731 -0.7859 -1.0209 -1.2873
  171SAPE   H7Y19407   5.584   4.668   7.829 -1.1344  0.2108  1.0180
  171SAPE   C3819408   5.400   4.574   7.794 -0.4715  0.2835  0.0722
  171SAPE   H8X19409   5.436   4.469   7.791 -0.9568  0.1189 -1.9020
  171SAPE   H8Y19410   5.311   4.593   7.730 -0.6872  0.4883  0.4321
  171SAPE   C3919411   5.365   4.631   7.931  0.3055  0.0259 -0.3455
  171SAPE   H9X19412   5.256   4.649   7.934  0.0983 -1.1653 -0.0693
  171SAPE   H9Y19413   5.401   4.736   7.934  1.5903 -0.3287 -1.9684
  171SAPE  C31019414   5.421   4.567   8.054 -0.2345 -0.3333  0.1007
  171SAPE  H10X19415   5.531   4.570   8.039 -0.4924  0.1294 -2.1714
  171SAPE  H10Y19416   5.403   4.458   8.058  2.3909 -0.8325 -0.0765
  171SAPE  C31119417   5.388   4.626   8.196  0.5684  0.4987  0.7524
  171SAPE  H11X19418   5.328   4.556   8.257  0.3256 -0.2405 -0.3058
  171SAPE  H11Y19419   5.315   4.711   8.189  0.8839  0.6458 -1.3538
  171SAPE  C31219420   5.513   4.672   8.261  0.0867  0.4286 -0.3676
  171SAPE  H12X19421   5.553   4.767   8.218 -1.3396  0.8971 -0.7493
  171SAPE  H12Y19422   5.590   4.596   8.238  0.1586 -0.1368  1.5572
  171SAPE  C31319423   5.490   4.691   8.413  0.2670  0.1140  0.6441
  171SAPE  H13X19424   5.452   4.595   8.452  2.9726 -1.9108 -1.2246
  171SAPE  H13Y19425   5.413   4.770   8.425  0.5028  0.4692 -0.1053
  171SAPE  C31419426   5.617   4.747   8.487  0.3805 -0.3063  0.6916
  171SAPE  H14X19427   5.574   4.789   8.580  0.8834  1.5935  0.0965
  171SAPE  H14Y19428   5.660   4.827   8.423  0.3793 -1.1275 -0.3842
  171SAPE  C31519429   5.724   4.642   8.511 -0.7334  0.0701  0.1333
  171SAPE  H15X19430   5.754   4.596   8.414  0.0738 -1.9306  1.2669
  171SAPE  H15Y19431   5.669   4.566   8.571 -1.6099  0.3833 -0.2657
  171SAPE  C31619432   5.845   4.701   8.593  0.4270 -0.3894 -0.1634
  171SAPE  H16X19433   5.813   4.726   8.697  0.9649 -0.0794 -0.0655
  171SAPE  H16Y19434   5.879   4.795   8.544 -1.4289 -0.2802 -1.3126
  171SAPE  C31719435   5.961   4.603   8.617  0.1066 -0.1848  0.5228
  171SAPE  H17X19436   6.004   4.572   8.519  1.3348 -0.4517  1.1172
  171SAPE  H17Y19437   5.925   4.512   8.669 -0.8622 -0.3539 -0.4065
  171SAPE  C31819438   6.076   4.670   8.689 -0.0284  0.0199  0.0686
  171SAPE  H18X19439   6.164   4.601   8.691 -0.0143  0.0466  0.3953
  171SAPE  H18Y19440   6.053   4.693   8.795 -1.5885  1.0841 -0.4696
  171SAPE  H18Z19441   6.086   4.763   8.629 -1.6322  1.1614  1.4928
  172SAPE     N19442   6.620   3.060   6.017 -0.3298 -0.8371 -0.1675
  172SAPE   HN119443   6.692   3.132   6.036  0.9332 -2.0492 -0.2312
  172SAPE   HN219444   6.604   3.025   6.114  0.6027  1.1062  0.7350
  172SAPE   HN319445   6.648   2.982   5.953  2.1882 -0.0608 -0.0862
  172SAPE   C1219446   6.492   3.119   5.974 -0.0962 -0.2238  0.1107
  172SAPE  H12A19447   6.414   3.040   5.985 -0.3796  0.0933  0.3960
  172SAPE  H12B19448   6.514   3.151   5.870  2.2730  0.9271  0.9032
  172SAPE   C1119449   6.457   3.244   6.064  1.0690  0.3254 -0.0759
  172SAPE  H11A19450   6.437   3.200   6.164 -2.8196 -0.9929 -1.2516
  172SAPE  H11B19451   6.358   3.277   6.024  1.3569  0.0988 -0.9890
  172SAPE     P19452   6.513   3.470   6.166 -0.0819 -0.1193  0.3302
  172SAPE   O1319453   6.638   3.534   6.202 -0.1698 -0.1463 -0.3995
  172SAPE   O1419454   6.413   3.564   6.126  0.4027  0.1092  0.2150
  172SAPE   O1219455   6.552   3.352   6.060 -0.1070 -0.1909 -0.2134
  172SAPE   O1119456   6.466   3.389   6.297  0.2240  0.1331 -0.4727
  172SAPE    C119457   6.565   3.322   6.381 -0.1792  0.3971  0.0133
  172SAPE    HA19458   6.555   3.212   6.387 -2.0475  0.4797 -0.8402
  172SAPE    HB19459   6.666   3.328   6.337  0.6541 -2.4312  1.2994
  172SAPE    C219460   6.561   3.376   6.532  0.6795  0.2862  0.0916
  172SAPE    HS19461   6.638   3.319   6.588  0.3192 -0.2906  0.0133
  172SAPE   O2119462   6.430   3.364   6.585  0.6602  0.0411  0.2370
  172SAPE   C2119463   6.391   3.235   6.620 -0.3171  0.5037  0.3666
  172SAPE   O2219464   6.464   3.136   6.608  0.1730 -0.0027  0.2259
  172SAPE   C2219465   6.247   3.234   6.674 -0.7551 -0.1937 -0.6026
  172SAPE   H2R19466   6.226   3.327   6.730  0.8415 -0.0169 -0.2613
  172SAPE   H2S19467   6.178   3.230   6.586 -2.2055 -0.2666  0.4893
  172SAPE    C319468   6.591   3.532   6.533  0.5121  0.3648 -0.2528
  172SAPE    HX19469   6.528   3.583   6.457  0.4608 -0.9651 -1.1425
  172SAPE    HY19470   6.696   3.536   6.496 -0.1835  0.7071 -2.3349
  172SAPE   O3119471   6.567   3.592   6.667  0.2099 -0.2982 -0.3353
  172SAPE   C3119472   6.450   3.655   6.688 -0.1214 -0.4931  0.0233
  172SAPE   O3219473   6.355   3.654   6.611 -0.6312 -0.2551  0.1842
  172SAPE   C3219474   6.435   3.723   6.826 -0.2563 -0.4652  0.5220
  172SAPE   H2X19475   6.521   3.793   6.835 -1.1079  1.0006 -1.7358
  172SAPE   H2Y19476   6.438   3.636   6.895 -1.3354 -0.5677  0.4524
  172SAPE   C2319477   6.223   3.122   6.777 -0.7766  0.8628 -0.0982
  172SAPE   H3R19478   6.315   3.111   6.838 -0.0424 -1.2195 -1.4615
  172SAPE   H3S19479   6.220   3.023   6.726 -0.9939  0.5570  0.4995
  172SAPE   C2419480   6.098   3.133   6.862  0.9399 -0.0289  0.2675
  172SAPE   H4R19481   6.012   3.122   6.793 -1.6510  1.4126  3.0274
  172SAPE   H4S19482   6.091   3.239   6.897 -2.2362  0.1397 -0.5956
  172SAPE   C2519483   6.092   3.036   6.982  0.1249  0.1656 -0.4921
  172SAPE   H5R19484   6.083   2.934   6.942 -4.7509  0.5013 -0.8225
  172SAPE   C2619485   6.106   3.058   7.115 -0.1038  0.0937  1.1799
  172SAPE   H6R19486   6.101   2.973   7.184 -0.1528  0.2987  1.4288
  172SAPE   C2719487   6.141   3.189   7.178  0.0017 -0.7995 -1.2006
  172SAPE   H7R19488   6.192   3.264   7.113  0.3359  2.2092  2.2278
  172SAPE   H7S19489   6.222   3.179   7.253  3.2306  0.1954 -4.2516
  172SAPE   C2819490   6.012   3.255   7.225  0.0538  0.0993 -0.1303
  172SAPE   H8R19491   5.943   3.277   7.142 -1.2386 -0.4902  0.7567
  172SAPE   C2919492   5.973   3.292   7.348 -0.1247 -0.3247  0.2523
  172SAPE   H9R19493   5.875   3.342   7.353  0.2067  0.2358  1.4153
  172SAPE  C21019494   6.040   3.282   7.485 -0.4874 -0.1095 -0.6906
  172SAPE  H10R19495   6.137   3.229   7.472 -1.1861 -1.7667  0.5264
  172SAPE  H10S19496   5.988   3.222   7.563  3.2865 -0.6069  1.6740
  172SAPE  C21119497   6.052   3.424   7.540 -0.4388  0.6133 -0.0491
  172SAPE  H11R19498   5.996   3.504   7.489 -1.4265  0.0439  0.1080
  172SAPE  C21219499   6.124   3.464   7.645 -0.6523  0.2529  0.1510
  172SAPE  H12R19500   6.126   3.572   7.665  2.9419  0.5478 -1.0619
  172SAPE  C21319501   6.205   3.381   7.737  0.4928 -0.2096  0.1283
  172SAPE  H13R19502   6.308   3.400   7.700  0.4873  1.1258  0.7438
  172SAPE  H13S19503   6.190   3.272   7.721  0.1024 -0.0571 -0.5897
  172SAPE  C21419504   6.185   3.417   7.880  0.2584 -0.1306  0.1507
  172SAPE  H14R19505   6.085   3.391   7.916 -0.4543  2.0945 -0.1065
  172SAPE  C21519506   6.281   3.488   7.950  1.2418 -0.1877 -0.1706
  172SAPE  H15R19507   6.254   3.514   8.054 -1.0373  0.6062 -0.9064
  172SAPE  C21619508   6.412   3.535   7.895  0.5040 -0.2039  1.1092
  172SAPE  H16R19509   6.408   3.536   7.784 -0.8723  3.5986  1.0486
  172SAPE  H16S19510   6.503   3.482   7.931  0.1407 -0.8734  1.0456
  172SAPE  C21719511   6.436   3.682   7.942 -0.2588  0.7000  0.1685
  172SAPE  H17R19512   6.367   3.751   7.890  1.1525  1.1098 -1.2469
  172SAPE  H17S19513   6.539   3.710   7.910 -0.8086 -0.9402 -3.5824
  172SAPE  C21819514   6.413   3.707   8.100  0.4501  0.3031  0.6083
  172SAPE  H18R19515   6.468   3.631   8.159 -0.7002 -0.8718  0.1995
  172SAPE  H18S19516   6.307   3.681   8.120  0.4047 -1.9672 -1.9718
  172SAPE  C21919517   6.455   3.848   8.136  0.3574 -0.3492 -0.0556
  172SAPE  H19R19518   6.392   3.918   8.077  3.3700  1.8548 -0.8917
  172SAPE  H19S19519   6.558   3.871   8.101 -0.0729 -0.1570 -1.2276
  172SAPE  C22019520   6.435   3.882   8.287 -0.1116  0.3065 -0.3607
  172SAPE  H20R19521   6.508   3.832   8.355 -3.0665  0.2525  3.1180
  172SAPE  H20S19522   6.338   3.858   8.335  0.7742  0.2696  1.5386
  172SAPE  H20T19523   6.449   3.992   8.294  1.9176  0.0373  0.7089
  172SAPE   C3319524   6.301   3.791   6.861  0.9174  0.8415 -0.0143
  172SAPE   H3X19525   6.224   3.722   6.822 -0.4314  1.9484  0.6093
  172SAPE   H3Y19526   6.301   3.889   6.808 -1.1303  2.6335  2.9946
  172SAPE   C3419527   6.258   3.811   7.008  0.0843 -0.0066 -0.3369
  172SAPE   H4X19528   6.208   3.716   7.036 -0.8180  0.6404  0.3176
  172SAPE   H4Y19529   6.185   3.895   7.008  1.3293  1.1970 -2.8896
  172SAPE   C3519530   6.377   3.843   7.106  0.8267 -0.7957  0.5012
  172SAPE   H5X19531   6.451   3.911   7.057 -1.6712  1.4519 -0.3698
  172SAPE   H5Y19532   6.428   3.745   7.113  1.6794 -0.4528 -0.5490
  172SAPE   C3619533   6.317   3.891   7.239 -0.1917 -0.2314  0.3162
  172SAPE   H6X19534   6.266   3.806   7.290 -0.1923 -0.1659  0.4240
  172SAPE   H6Y19535   6.237   3.962   7.211 -0.5630  0.2385  2.3944
  172SAPE   C3719536   6.415   3.971   7.332  0.4351  0.5445 -0.2332
  172SAPE   H7X19537   6.459   4.062   7.285  0.7993  0.3467 -0.2783
  172SAPE   H7Y19538   6.493   3.893   7.346 -2.6622 -3.2013 -2.0388
  172SAPE   C3819539   6.364   4.014   7.473  0.6617  0.7473 -0.6378
  172SAPE   H8X19540   6.311   3.924   7.510  0.1549  0.6297 -1.6174
  172SAPE   H8Y19541   6.285   4.092   7.472  0.7839  1.0017  1.7598
  172SAPE   C3919542   6.474   4.024   7.590  0.2478 -0.1046 -0.7546
  172SAPE   H9X19543   6.540   4.108   7.556 -0.3966 -0.3705 -2.8130
  172SAPE   H9Y19544   6.544   3.938   7.585  1.9081  1.1168  0.5369
  172SAPE  C31019545   6.438   4.051   7.735  0.0192  0.4217  0.2993
  172SAPE  H10X19546   6.413   3.958   7.791  1.2245 -0.6257 -0.8386
  172SAPE  H10Y19547   6.342   4.106   7.727  0.0163  0.2555 -1.0307
  172SAPE  C31119548   6.546   4.133   7.805 -0.0515 -0.2486 -0.3946
  172SAPE  H11X19549   6.564   4.219   7.736  0.5021  1.2803  1.5619
  172SAPE  H11Y19550   6.636   4.070   7.822  1.3484  2.3369  3.1468
  172SAPE  C31219551   6.519   4.170   7.947  1.1377 -0.1467  0.1747
  172SAPE  H12X19552   6.576   4.263   7.964 -0.4086  0.6888  1.0902
  172SAPE  H12Y19553   6.544   4.089   8.020  0.5335 -1.1538 -0.7048
  172SAPE  C31319554   6.381   4.225   7.977  0.4279  0.3091 -0.4342
  172SAPE  H13X19555   6.294   4.155   7.972 -0.0222  0.7443  0.8616
  172SAPE  H13Y19556   6.373   4.307   7.902  3.4580  2.0118  0.9400
  172SAPE  C31419557   6.368   4.296   8.118 -0.2739  0.7782  0.2113
  172SAPE  H14X19558   6.428   4.388   8.108  1.1040 -0.3153 -2.4931
  172SAPE  H14Y19559   6.400   4.226   8.198  1.7426  1.6541  0.2212
  172SAPE  C31519560   6.224   4.336   8.150 -0.1842 -0.4081  0.2161
  172SAPE  H15X19561   6.163   4.245   8.133  0.2079 -0.3726 -1.6340
  172SAPE  H15Y19562   6.199   4.418   8.078  1.8321  2.3042  2.3882
  172SAPE  C31619563   6.219   4.394   8.289 -0.0622  0.3555  0.7271
  172SAPE  H16X19564   6.126   4.452   8.305 -0.0608 -0.2514  3.3213
  172SAPE  H16Y19565   6.296   4.473   8.299 -0.5440  1.1315 -1.1616
  172SAPE  C31719566   6.235   4.296   8.403 -0.4043 -0.1158 -0.0137
  172SAPE  H17X19567   6.321   4.226   8.388 -0.8744 -0.9307  0.9766
  172SAPE  H17Y19568   6.148   4.232   8.427 -0.1436  0.3038  2.3086
  172SAPE  C31819569   6.265   4.359   8.543  0.0657 -1.0409  0.2540
  172SAPE  H18X19570   6.295   4.280   8.615  3.0010 -0.5335 -0.2870
  172SAPE  H18Y19571   6.171   4.394   8.589  0.6371 -1.1276  1.5490
  172SAPE  H18Z19572   6.346   4.436   8.545 -2.1450  1.3921  1.3603
  173SOPE     N19573   5.882   5.589  11.216 -0.2335  0.1954  0.0888
  173SOPE   HN119574   5.984   5.569  11.216 -0.3144 -0.2307  0.1643
  173SOPE   HN219575   5.858   5.602  11.316 -0.2329  0.0437  0.1090
  173SOPE   HN319576   5.832   5.507  11.176  0.6396 -0.6635  0.7120
  173SOPE   C1219577   5.863   5.719  11.145  0.2158 -0.7919 -0.8089
  173SOPE  H12A19578   5.891   5.800  11.216 -0.9731  0.9576 -2.2319
  173SOPE  H12B19579   5.754   5.728  11.126 -0.0581 -0.3245  0.7661
  173SOPE   C1119580   5.953   5.720  11.016 -0.3185  0.0031  0.3895
  173SOPE  H11A19581   6.057   5.718  11.053  0.6744 -2.3752 -2.1873
  173SOPE  H11B19582   5.946   5.812  10.955  1.7107  1.7131  2.5791
  173SOPE     P19583   5.824   5.597  10.821  0.3502  0.2724  0.1589
  173SOPE   O1319584   5.709   5.669  10.870  0.2840 -0.1015  0.1132
  173SOPE   O1419585   5.799   5.457  10.771 -0.4833  0.3270 -0.4042
  173SOPE   O1219586   5.937   5.600  10.927  0.0835 -0.3052 -0.0864
  173SOPE   O1119587   5.891   5.686  10.716  0.1452 -0.1850 -0.3909
  173SOPE    C119588   5.997   5.656  10.624 -0.4078 -0.0353 -0.6857
  173SOPE    HA19589   5.960   5.661  10.519 -0.9654  0.2739 -0.4786
  173SOPE    HB19590   6.028   5.551  10.641  1.1061  0.5088  0.0868
  173SOPE    C219591   6.122   5.748  10.640  0.0423 -0.2603 -0.1437
  173SOPE    HS19592   6.143   5.766  10.748 -1.8200 -0.1095  0.2356
  173SOPE   O2119593   6.090   5.869  10.562 -0.7376 -0.1465  0.0602
  173SOPE   C2119594   6.080   5.983  10.639 -0.8459  0.0368  0.0990
  173SOPE   O2219595   6.088   5.983  10.762 -0.6955 -0.0959 -0.1875
  173SOPE   C2219596   6.039   6.093  10.548  0.0329  0.1500  0.6319
  173SOPE   H2R19597   6.057   6.181  10.613 -2.3757  0.9522  0.3395
  173SOPE   H2S19598   5.929   6.085  10.531  0.3836 -0.4839 -1.6741
  173SOPE    C319599   6.244   5.664  10.589 -0.0355  0.1315 -0.4268
  173SOPE    HX19600   6.259   5.581  10.661  2.3168  2.3857  1.9478
  173SOPE    HY19601   6.339   5.720  10.600 -1.0557  2.0005 -0.6512
  173SOPE   O3119602   6.224   5.619  10.453 -0.3555  0.3046 -0.0006
  173SOPE   C3119603   6.276   5.703  10.364  0.8416 -0.1498  0.0734
  173SOPE   O3219604   6.339   5.804  10.388 -0.0683 -0.3161  0.1157
  173SOPE   C3219605   6.231   5.653  10.220 -0.2204  0.5107  0.3267
  173SOPE   H2X19606   6.134   5.704  10.205 -0.5955  0.2194  1.6390
  173SOPE   H2Y19607   6.217   5.543  10.230  0.4680  0.2600 -1.1279
  173SOPE   C2319608   6.118   6.104  10.420 -0.6725 -0.7446  0.6062
  173SOPE   H3R19609   6.218   6.056  10.418 -0.0415  0.5605 -0.0322
  173SOPE   H3S19610   6.160   6.207  10.420  2.4002 -1.8837  0.2047
  173SOPE   C2419611   6.033   6.078  10.294 -0.5223 -0.4904 -0.5045
  173SOPE   H4R19612   5.975   5.985  10.308 -1.8278  0.3393 -0.1895
  173SOPE   H4S19613   5.955   6.153  10.270 -1.0374 -1.6995 -2.9343
  173SOPE   C2519614   6.129   6.075  10.176  0.0550 -0.1973  0.8776
  173SOPE   H5R19615   6.178   6.175  10.179  0.0319 -0.0900 -1.1421
  173SOPE   H5S19616   6.209   6.003  10.201 -0.7543 -1.3924  0.1148
  173SOPE   C2619617   6.067   6.060  10.038  0.4208  0.1091 -0.6092
  173SOPE   H6R19618   6.015   5.962  10.039 -1.1802  0.9200  0.6232
  173SOPE   H6S19619   5.991   6.139  10.020 -0.5414 -0.3651  1.0796
  173SOPE   C2719620   6.180   6.063   9.929  0.0165 -0.2957  0.1173
  173SOPE   H7R19621   6.242   6.155   9.928  0.7266 -0.7716 -0.7416
  173SOPE   H7S19622   6.249   5.981   9.957  1.0117  1.0221  1.7547
  173SOPE   C2819623   6.140   6.037   9.782 -0.0416 -0.4387 -0.1468
  173SOPE   H8R19624   6.230   6.029   9.717  0.4126 -1.9829  0.6136
  173SOPE   H8S19625   6.097   5.935   9.769  0.9950 -0.8745 -0.2838
  173SOPE   C2919626   6.054   6.148   9.732  0.1007  0.4068  0.1260
  173SOPE   H9119627   5.944   6.134   9.735  0.1953 -0.2518  0.7762
  173SOPE  C21019628   6.101   6.264   9.680  0.2938  0.2457  0.0063
  173SOPE  H10119629   6.029   6.330   9.629  1.2172 -0.5264 -2.4270
  173SOPE  C21119630   6.245   6.311   9.668 -0.0436  0.3758 -0.8605
  173SOPE  H11R19631   6.315   6.245   9.723 -1.7139 -0.5249  0.2460
  173SOPE  H11S19632   6.241   6.406   9.725  0.9683  1.9642 -3.2433
  173SOPE  C21219633   6.297   6.323   9.521 -0.6178 -0.8795  0.5674
  173SOPE  H12R19634   6.305   6.225   9.469 -0.1568  0.3146 -1.7637
  173SOPE  H12S19635   6.398   6.369   9.526 -0.3681 -1.1388 -1.3406
  173SOPE  C21319636   6.205   6.419   9.439  0.2360 -0.0145  0.3150
  173SOPE  H13R19637   6.225   6.524   9.469  1.1069  0.5175 -1.9193
  173SOPE  H13S19638   6.099   6.386   9.444  0.2452 -0.7477 -2.3793
  173SOPE  C21419639   6.248   6.398   9.291 -0.6081 -0.2259  0.0870
  173SOPE  H14R19640   6.231   6.291   9.267 -0.8979  0.0009 -0.7359
  173SOPE  H14S19641   6.358   6.415   9.290 -0.7410  0.9289  1.7122
  173SOPE  C21519642   6.175   6.493   9.197  0.4874 -0.4696  1.0768
  173SOPE  H15R19643   6.184   6.598   9.234  0.2244 -0.0517 -0.0209
  173SOPE  H15S19644   6.071   6.461   9.177  0.0137  0.4515  1.9264
  173SOPE  C21619645   6.239   6.482   9.058 -0.1858  0.0137 -0.3794
  173SOPE  H16R19646   6.244   6.376   9.025 -1.4906 -0.4409  0.7939
  173SOPE  H16S19647   6.349   6.499   9.067 -0.0792  1.1464 -2.9036
  173SOPE  C21719648   6.184   6.557   8.941  0.1027  0.2691 -0.6341
  173SOPE  H17R19649   6.272   6.567   8.873  0.5502 -0.2212 -0.1385
  173SOPE  H17S19650   6.160   6.658   8.982 -0.3333  0.1043 -0.4848
  173SOPE  C21819651   6.077   6.478   8.865 -0.4301  0.6947  0.1553
  173SOPE  H18R19652   6.113   6.382   8.823  0.4966  1.4925 -0.9407
  173SOPE  H18S19653   6.046   6.535   8.775  0.4061 -1.1457 -1.3407
  173SOPE  H18T19654   5.976   6.459   8.907 -0.3170 -1.2984 -0.3880
  173SOPE   C3319655   6.328   5.680  10.105  1.2803  0.1768  1.2625
  173SOPE   H3X19656   6.433   5.672  10.140  1.6555 -1.3155 -0.1362
  173SOPE   H3Y19657   6.316   5.787  10.078 -0.7086  0.0854  1.6045
  173SOPE   C3419658   6.316   5.587   9.988 -0.1207  0.0021  0.1738
  173SOPE   H4X19659   6.206   5.583   9.970  0.0921  0.3477 -1.3059
  173SOPE   H4Y19660   6.351   5.484  10.014 -1.2975 -0.9246 -1.7021
  173SOPE   C3519661   6.383   5.629   9.859 -0.2353  0.1751 -0.7357
  173SOPE   H5X19662   6.493   5.641   9.868 -0.0985 -1.3099 -0.2741
  173SOPE   H5Y19663   6.349   5.732   9.835  0.2196  1.6542  4.0077
  173SOPE   C3619664   6.349   5.537   9.741 -0.0618 -0.0153  0.2538
  173SOPE   H6X19665   6.238   5.538   9.741 -0.0826  1.0259 -1.3076
  173SOPE   H6Y19666   6.383   5.433   9.755 -0.2395  0.2144  2.9216
  173SOPE   C3719667   6.406   5.597   9.613 -0.0114  0.0577  0.1788
  173SOPE   H7X19668   6.510   5.629   9.634 -0.4751  0.7215  1.6261
  173SOPE   H7Y19669   6.351   5.688   9.581 -0.5408 -0.2850  0.0951
  173SOPE   C3819670   6.389   5.507   9.493  0.0810  0.0175  0.5401
  173SOPE   H8X19671   6.282   5.515   9.467  0.7607 -0.0899 -2.6301
  173SOPE   H8Y19672   6.425   5.404   9.511  1.0282  0.1817 -0.3612
  173SOPE   C3919673   6.456   5.568   9.373  0.4680 -0.2359  0.4336
  173SOPE   H9X19674   6.566   5.583   9.385  0.2736  0.4783  1.4104
  173SOPE   H9Y19675   6.415   5.671   9.377  0.7183 -0.1375  4.3498
  173SOPE  C31019676   6.432   5.488   9.246 -0.6064  0.5514 -0.4550
  173SOPE  H10X19677   6.324   5.466   9.230  0.0035 -1.0486 -3.2120
  173SOPE  H10Y19678   6.477   5.386   9.243 -0.7945  0.4683 -0.4675
  173SOPE  C31119679   6.486   5.553   9.116 -0.4927 -0.0453  0.5896
  173SOPE  H11X19680   6.592   5.583   9.131 -0.0907 -0.5461 -1.0221
  173SOPE  H11Y19681   6.430   5.649   9.108  0.7633  0.6259 -0.4232
  173SOPE  C31219682   6.458   5.473   8.985  0.5300 -0.0332 -0.6537
  173SOPE  H12X19683   6.487   5.366   8.993 -1.5092 -0.5616  0.5340
  173SOPE  H12Y19684   6.515   5.519   8.902  2.6063 -1.8705 -0.3609
  173SOPE  C31319685   6.310   5.472   8.944  0.3771 -0.6498  0.4059
  173SOPE  H13X19686   6.284   5.579   8.928  0.7853 -0.5026  0.7071
  173SOPE  H13Y19687   6.232   5.434   9.014 -0.0397 -0.3576  0.1045
  173SOPE  C31419688   6.290   5.402   8.808 -0.2701 -0.4095  0.3770
  173SOPE  H14X19689   6.383   5.417   8.749 -1.5864 -0.3817 -1.7954
  173SOPE  H14Y19690   6.204   5.447   8.753  1.2560  0.8841 -1.0462
  173SOPE  C31519691   6.268   5.251   8.830 -1.0875  0.1783 -0.5115
  173SOPE  H15X19692   6.193   5.241   8.912 -1.2160 -0.0267 -0.6540
  173SOPE  H15Y19693   6.362   5.208   8.871 -1.1412  1.4062  0.9910
  173SOPE  C31619694   6.219   5.194   8.701  0.2458  0.0392 -0.2021
  173SOPE  H16X19695   6.285   5.214   8.614  0.2846  1.8486  0.1914
  173SOPE  H16Y19696   6.120   5.233   8.671  1.1485  1.2258 -1.7667
  173SOPE  C31719697   6.190   5.041   8.709 -0.1650 -0.3862 -0.0025
  173SOPE  H17X19698   6.136   5.014   8.615 -0.3364  2.2503 -0.7437
  173SOPE  H17Y19699   6.117   5.027   8.792  0.7698  0.6445  1.0132
  173SOPE  C31819700   6.323   4.971   8.725 -0.5511  0.6877 -0.0979
  173SOPE  H18X19701   6.407   5.016   8.668 -0.1896  0.1434 -0.0101
  173SOPE  H18Y19702   6.323   4.864   8.693 -0.6320  0.2232  1.3658
  173SOPE  H18Z19703   6.352   4.973   8.832  2.2520  0.3562 -0.7754
  174SOPE     N19704   6.425   4.697  11.255 -0.2504  0.3491  0.3961
  174SOPE   HN119705   6.497   4.634  11.213  0.4438  0.6088  1.1683
  174SOPE   HN219706   6.449   4.735  11.348  4.9905 -0.1331 -0.4375
  174SOPE   HN319707   6.336   4.645  11.267 -0.6741  0.6076 -1.3457
  174SOPE   C1219708   6.407   4.823  11.179 -0.3576 -0.2818 -0.3958
  174SOPE  H12A19709   6.480   4.896  11.220 -1.8592  1.6377 -0.9922
  174SOPE  H12B19710   6.301   4.852  11.197 -0.5050 -1.4991  0.8311
  174SOPE   C1119711   6.410   4.794  11.028 -0.0957 -0.4948  0.2761
  174SOPE  H11A19712   6.510   4.751  11.004  0.1524  1.0542 -1.7305
  174SOPE  H11B19713   6.398   4.892  10.978  0.3929 -0.5386  0.0652
  174SOPE     P19714   6.288   4.656  10.840  0.2501 -0.3848  0.0234
  174SOPE   O1319715   6.151   4.697  10.796  0.3525 -0.6044  0.0923
  174SOPE   O1419716   6.319   4.511  10.833  0.3979  0.7393 -0.2388
  174SOPE   O1219717   6.296   4.709  10.995  0.1368  0.6520  0.2921
  174SOPE   O1119718   6.409   4.733  10.768  0.0213 -0.5406 -0.5541
  174SOPE    C119719   6.387   4.828  10.666  0.6166 -0.3038  0.1959
  174SOPE    HA19720   6.467   4.902  10.687  0.8590 -0.5223  0.0532
  174SOPE    HB19721   6.291   4.880  10.683  0.8822  0.8430 -1.5762
  174SOPE    C219722   6.408   4.764  10.526  0.0402 -0.1382  0.4912
  174SOPE    HS19723   6.412   4.842  10.448  0.4136 -1.0259 -0.3974
  174SOPE   O2119724   6.304   4.667  10.485  0.3093 -0.0462 -0.0875
  174SOPE   C2119725   6.189   4.727  10.452  1.0177 -0.4420 -0.2312
  174SOPE   O2219726   6.169   4.847  10.448  0.0127  0.2397 -0.3659
  174SOPE   C2219727   6.093   4.619  10.404  0.2873  0.0760  0.3819
  174SOPE   H2R19728   5.986   4.643  10.421 -0.0667 -1.4299  0.4181
  174SOPE   H2S19729   6.117   4.525  10.458 -0.3408 -0.9611 -1.0693
  174SOPE    C319730   6.550   4.697  10.531 -0.0215 -0.7123  0.4548
  174SOPE    HX19731   6.527   4.607  10.594 -2.0717 -0.7225 -0.2196
  174SOPE    HY19732   6.617   4.764  10.588  0.0813  0.9008 -1.4516
  174SOPE   O3119733   6.604   4.662  10.403  0.4124  0.1967  0.5690
  174SOPE   C3119734   6.581   4.535  10.362  0.5691 -0.0288 -0.7085
  174SOPE   O3219735   6.518   4.452  10.428 -0.9071  0.0578  0.2130
  174SOPE   C3219736   6.650   4.519  10.224  0.4156  0.3725 -0.4402
  174SOPE   H2X19737   6.759   4.536  10.238  0.5068  0.1954 -0.9238
  174SOPE   H2Y19738   6.625   4.601  10.154 -0.8038 -0.6045 -1.1905
  174SOPE   C2319739   6.104   4.576  10.250  0.0909 -0.0610  0.0458
  174SOPE   H3R19740   6.053   4.649  10.184 -1.7155  0.4490  1.9074
  174SOPE   H3S19741   6.029   4.495  10.240 -0.9872  0.9684 -0.5306
  174SOPE   C2419742   6.238   4.532  10.199  0.1758  0.5879  0.1935
  174SOPE   H4R19743   6.317   4.604  10.230  0.6178  0.3360 -0.3343
  174SOPE   H4S19744   6.270   4.434  10.241 -0.9613  0.5502  1.0264
  174SOPE   C2519745   6.243   4.521  10.050  0.1039  0.7363  0.4280
  174SOPE   H5R19746   6.337   4.472  10.017 -0.7964 -0.8488  0.1027
  174SOPE   H5S19747   6.148   4.472  10.018 -0.0678  1.0962  0.3786
  174SOPE   C2619748   6.242   4.656   9.979  0.4758 -0.3951  0.0047
  174SOPE   H6R19749   6.148   4.708  10.007  0.2225  0.2661 -1.9557
  174SOPE   H6S19750   6.314   4.714  10.042 -0.2843 -1.5598  2.0585
  174SOPE   C2719751   6.256   4.646   9.825  0.3559  0.0078 -0.0471
  174SOPE   H7R19752   6.238   4.748   9.787 -0.9976  0.5701  1.9412
  174SOPE   H7S19753   6.359   4.611   9.802  0.0417 -1.7376  0.9499
  174SOPE   C2819754   6.160   4.547   9.768  0.1449  0.0865 -0.0421
  174SOPE   H8R19755   6.186   4.450   9.817  0.4497 -0.6205 -1.5375
  174SOPE   H8S19756   6.057   4.565   9.803  0.5932  1.0742  0.8221
  174SOPE   C2919757   6.174   4.552   9.615 -0.1847 -0.1225 -0.3286
  174SOPE   H9119758   6.280   4.557   9.586 -0.1027 -2.6607 -0.6868
  174SOPE  C21019759   6.074   4.552   9.520  0.4653  0.1642 -0.4090
  174SOPE  H10119760   6.091   4.582   9.415 -1.1748  1.2126 -0.4117
  174SOPE  C21119761   5.926   4.544   9.557  0.6465  0.1662 -0.5651
  174SOPE  H11R19762   5.899   4.636   9.613  1.1052 -1.7118  3.0612
  174SOPE  H11S19763   5.911   4.460   9.628 -1.8480  0.5066 -0.6326
  174SOPE  C21219764   5.837   4.528   9.431 -0.5223  1.0012 -0.5931
  174SOPE  H12R19765   5.738   4.491   9.468  0.3390  0.4778  1.3290
  174SOPE  H12S19766   5.881   4.449   9.367  0.8338  0.6190  0.7401
  174SOPE  C21319767   5.820   4.657   9.352  0.0821  0.6480 -0.0659
  174SOPE  H13R19768   5.924   4.691   9.335  1.3069 -0.4357  4.0472
  174SOPE  H13S19769   5.774   4.721   9.430 -1.0650  1.1668 -1.1391
  174SOPE  C21419770   5.735   4.640   9.227  0.5580  0.2764 -1.2735
  174SOPE  H14R19771   5.643   4.596   9.272  1.4146  0.9464  1.3454
  174SOPE  H14S19772   5.779   4.564   9.160 -0.7258 -1.2994 -0.3840
  174SOPE  C21519773   5.705   4.776   9.158 -0.1376 -0.5323  0.4005
  174SOPE  H15R19774   5.666   4.850   9.232  2.0498  0.8803  0.2378
  174SOPE  H15S19775   5.631   4.758   9.077  0.7365 -4.4723  0.2982
  174SOPE  C21619776   5.824   4.848   9.095 -0.1628  0.5655  0.6416
  174SOPE  H16R19777   5.851   4.775   9.016 -1.6300  0.3731  0.2968
  174SOPE  H16S19778   5.907   4.855   9.169  0.4865 -0.6353  0.0514
  174SOPE  C21719779   5.773   4.978   9.031 -0.5833 -0.4401  0.4698
  174SOPE  H17R19780   5.738   5.047   9.111  2.2597  1.2091  0.4318
  174SOPE  H17S19781   5.692   4.956   8.959  1.8591 -0.7674 -2.3814
  174SOPE  C21819782   5.879   5.038   8.952  0.0586 -0.6797  0.2114
  174SOPE  H18R19783   5.842   5.118   8.884  2.5441  0.5060  0.1482
  174SOPE  H18S19784   5.924   4.960   8.888  0.0098 -0.6266  0.1135
  174SOPE  H18T19785   5.963   5.080   9.013  0.5195 -0.4756 -0.5529
  174SOPE   C3319786   6.641   4.377  10.160  0.4452 -0.2136 -0.2041
  174SOPE   H3X19787   6.539   4.334  10.154  0.2026  0.4924 -2.0438
  174SOPE   H3Y19788   6.697   4.316  10.233 -0.7988 -0.2231  0.7778
  174SOPE   C3419789   6.702   4.365  10.022 -1.2637  0.2258 -0.4339
  174SOPE   H4X19790   6.723   4.259   9.999 -0.7690 -0.4793  2.7812
  174SOPE   H4Y19791   6.799   4.419  10.027 -1.4145  0.7005 -2.1870
  174SOPE   C3519792   6.602   4.415   9.912 -0.4132 -0.3346  0.4450
  174SOPE   H5X19793   6.576   4.516   9.951 -0.1032 -0.9241  2.2844
  174SOPE   H5Y19794   6.506   4.360   9.912 -1.1859  0.9604 -0.7881
  174SOPE   C3619795   6.671   4.422   9.776 -0.3200 -0.2899  0.3438
  174SOPE   H6X19796   6.718   4.324   9.750  0.4355  0.2607 -0.4251
  174SOPE   H6Y19797   6.763   4.483   9.788 -0.1509 -0.1285 -1.4805
  174SOPE   C3719798   6.576   4.478   9.663  0.2015 -0.2238 -0.2301
  174SOPE   H7X19799   6.582   4.589   9.657  0.3759 -0.2945 -1.5852
  174SOPE   H7Y19800   6.471   4.461   9.696  0.1332  0.1881 -0.2249
  174SOPE   C3819801   6.602   4.411   9.529 -0.8198  0.5988 -0.5920
  174SOPE   H8X19802   6.594   4.301   9.543 -2.5949  1.0662  3.1396
  174SOPE   H8Y19803   6.701   4.441   9.490 -0.2054 -1.2361 -0.5520
  174SOPE   C3919804   6.502   4.461   9.418  0.4286  0.2463  0.2031
  174SOPE   H9X19805   6.522   4.569   9.400 -2.8973  0.8849 -0.3867
  174SOPE   H9Y19806   6.402   4.442   9.463 -0.0749 -0.1739 -1.0428
  174SOPE  C31019807   6.501   4.394   9.284 -0.1246 -0.3343  0.1269
  174SOPE  H10X19808   6.446   4.464   9.218 -3.2935 -2.2366  0.5776
  174SOPE  H10Y19809   6.467   4.289   9.293  2.1616 -1.0525  1.2557
  174SOPE  C31119810   6.642   4.379   9.218 -0.2815 -0.0495  0.6325
  174SOPE  H11X19811   6.690   4.288   9.259 -0.7532 -0.3204  0.5977
  174SOPE  H11Y19812   6.704   4.468   9.242  0.5064 -1.0670  2.6748
  174SOPE  C31219813   6.624   4.368   9.065 -0.4608 -0.0300 -0.5916
  174SOPE  H12X19814   6.540   4.302   9.035  1.2927 -1.3552 -2.9534
  174SOPE  H12Y19815   6.717   4.319   9.030  1.0625  1.3509  1.2978
  174SOPE  C31319816   6.634   4.506   8.988 -0.0605 -0.1428  0.2442
  174SOPE  H13X19817   6.739   4.542   8.996  0.0634 -0.5837  0.6329
  174SOPE  H13Y19818   6.559   4.569   9.041 -2.3919 -2.7725  0.2452
  174SOPE  C31419819   6.603   4.500   8.835 -0.1325  0.4045 -0.2505
  174SOPE  H14X19820   6.501   4.456   8.833  0.3140 -0.6756  0.1372
  174SOPE  H14Y19821   6.681   4.434   8.790  0.3168  0.5825  0.2511
  174SOPE  C31519822   6.598   4.645   8.775 -0.0178  0.0545  0.5798
  174SOPE  H15X19823   6.704   4.678   8.788  0.1818 -1.0475  2.0470
  174SOPE  H15Y19824   6.530   4.713   8.830  1.0406  0.5113  1.3713
  174SOPE  C31619825   6.576   4.646   8.621 -0.1923  0.1547  0.1401
  174SOPE  H16X19826   6.581   4.747   8.575  0.0949 -0.3793 -1.0408
  174SOPE  H16Y19827   6.473   4.605   8.609  0.8249 -2.7893  0.5159
  174SOPE  C31719828   6.674   4.565   8.535  0.0703 -0.0324  0.4067
  174SOPE  H17X19829   6.645   4.571   8.428  0.5810  0.5762  0.2938
  174SOPE  H17Y19830   6.662   4.459   8.564 -2.9661 -1.2289 -4.1400
  174SOPE  C31819831   6.818   4.605   8.547 -0.0943  0.2930  0.2492
  174SOPE  H18X19832   6.864   4.532   8.477 -3.0761 -0.2505 -1.3164
  174SOPE  H18Y19833   6.867   4.591   8.645 -0.0600 -0.6774  0.1087
  174SOPE  H18Z19834   6.838   4.710   8.518 -1.7076  0.6606  0.3812
  175SOPE     N19835   1.146   0.415  10.750 -0.6565 -0.7178  0.6208
  175SOPE   HN119836   1.221   0.374  10.810  2.1928  0.4350 -1.8611
  175SOPE   HN219837   1.104   0.336  10.696 -1.1748 -0.8519  1.2111
  175SOPE   HN319838   1.189   0.474  10.676 -0.2259  0.0149  1.4378
  175SOPE   C1219839   1.034   0.475  10.826  0.2615 -0.3798  0.5025
  175SOPE  H12A19840   1.049   0.583  10.804  0.4440 -0.8580 -2.0196
  175SOPE  H12B19841   1.049   0.452  10.934  0.8684  0.7458  0.6645
  175SOPE   C1119842   0.890   0.425  10.778  0.4919  0.4008 -0.0092
  175SOPE  H11A19843   0.816   0.499  10.816  4.2465  2.9540  3.2028
  175SOPE  H11B19844   0.858   0.336  10.835 -1.6632  0.9827 -0.2472
  175SOPE     P19845   0.752   0.415  10.548  0.5044 -0.0702  0.0710
  175SOPE   O1319846   0.753   0.546  10.486  0.1571 -0.3115  0.2266
  175SOPE   O1419847   0.628   0.374  10.626 -0.5730  0.0581 -0.4188
  175SOPE   O1219848   0.877   0.403  10.641  0.0863  0.0928  0.2733
  175SOPE   O1119849   0.779   0.303  10.440 -0.2558  0.4327 -0.4576
  175SOPE    C119850   0.871   0.323  10.335 -0.1683 -0.2079 -0.1783
  175SOPE    HA19851   0.902   0.225  10.294 -0.7259 -1.5107  2.3130
  175SOPE    HB19852   0.965   0.378  10.357  0.1146 -0.9197  0.4166
  175SOPE    C219853   0.809   0.400  10.214  0.3021  0.2198 -0.3771
  175SOPE    HS19854   0.851   0.502  10.226 -1.5742  0.7963  2.2946
  175SOPE   O2119855   0.663   0.394  10.225 -0.8074 -0.4473  0.1778
  175SOPE   C2119856   0.611   0.511  10.202  0.2735 -0.3000 -0.2425
  175SOPE   O2219857   0.671   0.613  10.178  0.3743  0.1446  0.2187
  175SOPE   C2219858   0.460   0.496  10.224 -0.0972 -0.0815  0.1377
  175SOPE   H2R19859   0.447   0.538  10.326 -0.0165  2.5479 -0.8573
  175SOPE   H2S19860   0.429   0.389  10.215 -1.2213  0.2554 -0.1914
  175SOPE    C319861   0.855   0.339  10.078  0.6744  0.4470  0.1044
  175SOPE    HX19862   0.825   0.233  10.066 -1.8694  1.2122 -0.9347
  175SOPE    HY19863   0.965   0.329  10.089  0.5706  1.5762  3.6487
  175SOPE   O3119864   0.812   0.414   9.968  0.1969  0.8365  0.0072
  175SOPE   C3119865   0.884   0.533   9.959  0.6148  0.3421  0.2894
  175SOPE   O3219866   0.975   0.561  10.033 -0.1683 -0.0671  0.0702
  175SOPE   C3219867   0.810   0.620   9.851  0.0315  0.0186 -0.4038
  175SOPE   H2X19868   0.724   0.664   9.906 -0.1927 -1.3366  0.3762
  175SOPE   H2Y19869   0.766   0.547   9.780 -3.9578  0.5661  1.2652
  175SOPE   C2319870   0.382   0.585  10.131  0.4773  0.3377 -0.2131
  175SOPE   H3R19871   0.429   0.683  10.112  0.2561  0.2392 -1.3230
  175SOPE   H3S19872   0.285   0.600  10.184 -0.0072  0.2622 -1.0464
  175SOPE   C2419873   0.337   0.519   9.995 -0.1734  0.1805 -0.3916
  175SOPE   H4R19874   0.319   0.410  10.004 -1.8769  0.5766  2.1668
  175SOPE   H4S19875   0.231   0.551   9.983 -0.7078  0.1626  3.1499
  175SOPE   C2519876   0.415   0.567   9.875 -0.4355 -0.6134  0.5170
  175SOPE   H5R19877   0.385   0.671   9.851  3.2974  0.6308  0.6059
  175SOPE   H5S19878   0.525   0.564   9.890 -0.6395 -3.0901  2.2411
  175SOPE   C2619879   0.379   0.476   9.758  0.3728 -1.0460  0.4056
  175SOPE   H6R19880   0.415   0.372   9.775  3.4234 -0.3492 -1.0443
  175SOPE   H6S19881   0.269   0.487   9.763  0.3686  1.0692 -2.0200
  175SOPE   C2719882   0.438   0.515   9.618 -0.1604 -1.0677  0.5621
  175SOPE   H7R19883   0.394   0.617   9.610 -0.1966 -1.1281 -0.1061
  175SOPE   H7S19884   0.549   0.520   9.627 -0.3009  1.4980  2.0866
  175SOPE   C2819885   0.382   0.439   9.502 -0.0193 -0.3304  0.6959
  175SOPE   H8R19886   0.272   0.451   9.491  0.2718  1.3373 -1.1091
  175SOPE   H8S19887   0.430   0.476   9.409  1.0017  0.5677  1.5555
  175SOPE   C2919888   0.409   0.292   9.499  0.4821  0.2389 -0.0599
  175SOPE   H9119889   0.402   0.254   9.602  0.2074  0.9948  0.2095
  175SOPE  C21019890   0.427   0.214   9.391  0.1425  0.5599 -0.3435
  175SOPE  H10119891   0.454   0.109   9.409  2.4297  0.5848 -3.0941
  175SOPE  C21119892   0.431   0.249   9.250 -0.0642 -0.8627  0.5730
  175SOPE  H11R19893   0.525   0.305   9.233 -0.4678 -0.2358  0.3416
  175SOPE  H11S19894   0.350   0.322   9.227  1.4184  0.9113  0.8163
  175SOPE  C21219895   0.439   0.132   9.156 -0.5233  0.3943  0.6946
  175SOPE  H12R19896   0.426   0.155   9.048 -1.0897  0.5148  0.7853
  175SOPE  H12S19897   0.365   0.056   9.190 -0.6600 -0.3150 -1.1038
  175SOPE  C21319898   0.576   0.068   9.159  0.9912  0.6396 -0.2826
  175SOPE  H13R19899   0.614   0.074   9.263  2.9613 -0.9000 -0.8630
  175SOPE  H13S19900   0.644   0.116   9.085  0.2961  3.1214  0.5837
  175SOPE  C21419901   0.564  -0.081   9.134 -0.2725 -0.6355 -0.4797
  175SOPE  H14R19902   0.488  -0.116   9.207  0.8498  0.4669  1.2904
  175SOPE  H14S19903   0.664  -0.124   9.158  0.7295  2.0153  0.4278
  175SOPE  C21519904   0.520  -0.121   8.992 -0.1558  0.4454 -0.1191
  175SOPE  H15R19905   0.416  -0.090   8.967 -0.2327  0.2768 -0.0049
  175SOPE  H15S19906   0.520  -0.231   9.007 -0.5231  0.2389 -1.4342
  175SOPE  C21619907   0.623  -0.097   8.882 -0.1153  0.0552 -0.1430
  175SOPE  H16R19908   0.700  -0.176   8.891  2.3007  2.3189  0.4465
  175SOPE  H16S19909   0.677  -0.004   8.908 -0.1596 -0.2542  1.1083
  175SOPE  C21719910   0.562  -0.081   8.743 -0.1915  0.0237 -0.2023
  175SOPE  H17R19911   0.641  -0.058   8.669  1.2453 -0.4679  1.1347
  175SOPE  H17S19912   0.496   0.008   8.749  0.0873  0.1895  0.6464
  175SOPE  C21819913   0.506  -0.212   8.679  0.2973  0.2696 -0.0825
  175SOPE  H18R19914   0.425  -0.206   8.603 -1.2137 -3.9886  0.9535
  175SOPE  H18S19915   0.460  -0.274   8.759  1.7561  0.0469  0.6059
  175SOPE  H18T19916   0.591  -0.260   8.627  0.9385  3.0890 -1.8802
  175SOPE   C3319917   0.901   0.728   9.793  0.3325  0.3372 -0.2034
  175SOPE   H3X19918   0.940   0.796   9.872  1.3363 -1.6469  1.0876
  175SOPE   H3Y19919   0.837   0.778   9.717  0.2541 -2.2417 -1.9779
  175SOPE   C3419920   1.016   0.675   9.706  1.0262  0.2331 -1.0250
  175SOPE   H4X19921   0.965   0.589   9.657  0.3672  0.2957 -0.4668
  175SOPE   H4Y19922   1.105   0.638   9.759  0.8611 -0.9900 -1.5734
  175SOPE   C3519923   1.063   0.779   9.594 -0.3253  0.5493 -0.0070
  175SOPE   H5X19924   1.140   0.847   9.637 -0.1864  1.5483 -1.7705
  175SOPE   H5Y19925   0.975   0.834   9.556 -0.7636 -0.0740  0.0916
  175SOPE   C3619926   1.142   0.704   9.488 -0.7660  0.1462 -0.6534
  175SOPE   H6X19927   1.078   0.620   9.452  0.2874 -0.7588 -0.4629
  175SOPE   H6Y19928   1.228   0.655   9.539  0.0971  1.6169 -0.6308
  175SOPE   C3719929   1.200   0.789   9.382 -0.7250 -0.4516  0.1901
  175SOPE   H7X19930   1.260   0.878   9.408 -0.6718 -0.4123 -0.0654
  175SOPE   H7Y19931   1.105   0.827   9.339  0.1306 -0.9601 -2.2967
  175SOPE   C3819932   1.278   0.714   9.271  0.3828  1.2756  0.3956
  175SOPE   H8X19933   1.217   0.626   9.243  0.3806  1.2640  0.4379
  175SOPE   H8Y19934   1.379   0.687   9.307 -0.7249 -1.3439  1.7481
  175SOPE   C3919935   1.303   0.796   9.144 -0.2963  0.2100  0.8630
  175SOPE   H9X19936   1.204   0.836   9.115 -0.2284  1.1268  1.8076
  175SOPE   H9Y19937   1.345   0.738   9.059 -1.0478 -0.2060  0.7745
  175SOPE  C31019938   1.401   0.907   9.178  0.0559 -0.2337 -0.2729
  175SOPE  H10X19939   1.479   0.875   9.250 -2.6894 -1.3736  2.3999
  175SOPE  H10Y19940   1.356   1.004   9.210 -1.0487 -0.0773 -2.1548
  175SOPE  C31119941   1.475   0.952   9.053  0.5513 -0.3823  0.3546
  175SOPE  H11X19942   1.403   0.994   8.980  0.1862 -2.2889 -0.4325
  175SOPE  H11Y19943   1.523   0.869   8.998 -0.7293  0.3008 -1.9358
  175SOPE  C31219944   1.586   1.055   9.086  0.0892 -0.1370  0.7373
  175SOPE  H12X19945   1.654   1.022   9.167  0.1671  1.4539  1.3455
  175SOPE  H12Y19946   1.532   1.145   9.122 -1.1480 -0.6700  0.2836
  175SOPE  C31319947   1.668   1.109   8.964  0.2367  0.0257  0.2166
  175SOPE  H13X19948   1.691   1.017   8.906  1.1954  0.7190 -0.5424
  175SOPE  H13Y19949   1.761   1.150   9.009  0.1947 -0.2249  0.5314
  175SOPE  C31419950   1.584   1.201   8.871 -0.1058 -0.8080  0.0111
  175SOPE  H14X19951   1.475   1.187   8.891 -0.7905  4.7048  1.6762
  175SOPE  H14Y19952   1.611   1.184   8.765 -0.1641  1.5287 -0.4346
  175SOPE  C31519953   1.607   1.345   8.913  0.3901  0.0578  0.1968
  175SOPE  H15X19954   1.716   1.366   8.919  0.5907 -1.2087  1.8155
  175SOPE  H15Y19955   1.569   1.355   9.017 -2.3937  0.8108 -0.8147
  175SOPE  C31619956   1.542   1.452   8.824 -0.0457 -0.8154  0.8064
  175SOPE  H16X19957   1.434   1.449   8.850 -0.2012  0.2370  0.3323
  175SOPE  H16Y19958   1.552   1.413   8.721 -3.4731  0.3317 -0.1159
  175SOPE  C31719959   1.589   1.603   8.831 -0.6588  0.0457 -0.1163
  175SOPE  H17X19960   1.696   1.605   8.802 -0.8187 -3.1133 -1.3644
  175SOPE  H17Y19961   1.576   1.632   8.937  2.1474 -0.3762  0.4037
  175SOPE  C31819962   1.506   1.693   8.746  0.4356 -0.7156  0.3376
  175SOPE  H18X19963   1.518   1.671   8.638  2.7346  1.0486  0.1604
  175SOPE  H18Y19964   1.522   1.802   8.762  2.7652 -0.7542 -1.2519
  175SOPE  H18Z19965   1.398   1.679   8.766  0.3122  0.1072  0.2705
  176SOPE     N19966   6.735   0.386  10.946 -0.1854  0.6700 -0.1732
  176SOPE   HN119967   6.822   0.425  10.985  1.8445 -2.1089 -1.5458
  176SOPE   HN219968   6.662   0.458  10.926 -1.9886 -1.0169  0.0003
  176SOPE   HN319969   6.702   0.320  11.019  1.4648 -0.4657 -0.4136
  176SOPE   C1219970   6.776   0.308  10.818 -0.7945  0.2253 -1.0163
  176SOPE  H12A19971   6.826   0.216  10.857  0.8475  0.3798 -2.5975
  176SOPE  H12B19972   6.853   0.371  10.769 -0.0332  1.2870  1.4413
  176SOPE   C1119973   6.645   0.288  10.750  0.0695 -0.1363  0.6303
  176SOPE  H11A19974   6.672   0.241  10.653 -0.4080 -0.3635  0.6035
  176SOPE  H11B19975   6.590   0.377  10.714 -0.2839 -0.4454  0.3913
  176SOPE     P19976   6.552   0.048  10.797  0.1494  0.5119  0.2450
  176SOPE   O1319977   6.418   0.010  10.851 -0.4239 -0.0197 -0.3997
  176SOPE   O1419978   6.675  -0.019  10.847 -0.7276  0.2921  0.0958
  176SOPE   O1219979   6.557   0.200  10.822 -0.2725  0.2530 -0.1407
  176SOPE   O1119980   6.537   0.029  10.642 -0.1437  0.0965  0.4799
  176SOPE    C119981   6.439  -0.070  10.600  0.1144 -0.4758 -0.7316
  176SOPE    HA19982   6.336  -0.055  10.639  0.8777 -1.6668  2.0274
  176SOPE    HB19983   6.477  -0.172  10.627  0.4557  0.7575  4.6956
  176SOPE    C219984   6.424  -0.052  10.446  0.4673  0.3143 -0.9745
  176SOPE    HS19985   6.321  -0.082  10.418  1.3227 -3.1588 -0.8506
  176SOPE   O2119986   6.525  -0.125  10.369  0.5480 -0.0929 -0.1582
  176SOPE   C2119987   6.480  -0.237  10.328  1.3507  0.3275 -0.1023
  176SOPE   O2219988   6.377  -0.295  10.370  0.2424  0.1562  0.1279
  176SOPE   C2219989   6.559  -0.294  10.212  0.6538 -0.7024  0.4055
  176SOPE   H2R19990   6.666  -0.295  10.242  0.3515  2.5384  2.0022
  176SOPE   H2S19991   6.536  -0.238  10.118  1.0655 -1.8792 -0.4235
  176SOPE    C319992   6.431   0.093  10.406  0.5465 -0.7285 -0.2242
  176SOPE    HX19993   6.534   0.132  10.413  0.2971  0.0551 -0.7296
  176SOPE    HY19994   6.382   0.158  10.482  0.5876  0.2921 -1.0477
  176SOPE   O3119995   6.377   0.117  10.273  0.9894 -0.7457  0.0806
  176SOPE   C3119996   6.461   0.111  10.174 -0.1129 -0.4210  0.4712
  176SOPE   O3219997   6.578   0.078  10.186 -0.1300  0.7748  0.4810
  176SOPE   C3219998   6.389   0.150  10.042  0.1495 -0.8777 -0.3570
  176SOPE   H2X19999   6.411   0.258  10.026  1.2113 -0.9562  0.4359
  176SOPE   H2Y20000   6.284   0.118  10.058  0.2533  0.1372  3.1665
  176SOPE   C2320001   6.519  -0.441  10.187 -0.0685 -0.0405 -0.0525
  176SOPE   H3R20002   6.412  -0.465  10.170  0.1531 -0.9465 -0.2414
  176SOPE   H3S20003   6.563  -0.502  10.268  4.5933  1.2920 -1.2441
  176SOPE   C2420004   6.576  -0.484  10.050 -0.1829  1.1969 -0.2768
  176SOPE   H4R20005   6.534  -0.433   9.960 -1.0279 -0.7455 -1.0632
  176SOPE   H4S20006   6.685  -0.466  10.053  0.0986 -0.3405 -0.5540
  176SOPE   C2520007   6.571  -0.637  10.015 -0.0072 -0.2796 -0.2625
  176SOPE   H5R20008   6.628  -0.702  10.086 -0.3123  0.6006  0.8187
  176SOPE   H5S20009   6.464  -0.668  10.017  0.7164 -3.1926 -1.5863
  176SOPE   C2620010   6.621  -0.657   9.872 -0.3676  0.4828  0.4009
  176SOPE   H6R20011   6.553  -0.603   9.803 -2.2243  1.1403  2.5829
  176SOPE   H6S20012   6.725  -0.621   9.871  0.1712 -0.9747  0.7829
  176SOPE   C2720013   6.595  -0.804   9.831 -0.7349  0.1496  0.7328
  176SOPE   H7R20014   6.662  -0.874   9.885  1.2087  0.3487 -1.2836
  176SOPE   H7S20015   6.490  -0.823   9.864 -0.9594 -1.2483 -0.7104
  176SOPE   C2820016   6.600  -0.825   9.682 -0.5163  0.1714  0.1531
  176SOPE   H8R20017   6.549  -0.920   9.656  1.1291 -0.0538 -2.6067
  176SOPE   H8S20018   6.537  -0.753   9.626  1.8503  1.6012 -0.8075
  176SOPE   C2920019   6.747  -0.832   9.641 -0.4715  0.1350  0.0018
  176SOPE   H9120020   6.811  -0.870   9.723  1.8574  0.8094 -1.4142
  176SOPE  C21020021   6.804  -0.794   9.519 -0.2105  0.3686 -0.4438
  176SOPE  H10120022   6.913  -0.789   9.513 -0.0651  0.4274  1.6964
  176SOPE  C21120023   6.735  -0.723   9.404  0.4324 -0.1915 -0.2248
  176SOPE  H11R20024   6.805  -0.657   9.349  2.1169 -0.8978  0.9912
  176SOPE  H11S20025   6.643  -0.666   9.427 -1.0445 -3.1930  1.9999
  176SOPE  C21220026   6.684  -0.834   9.307 -0.0425 -0.2240 -0.4480
  176SOPE  H12R20027   6.615  -0.780   9.239  0.1883  1.3138  0.4766
  176SOPE  H12S20028   6.610  -0.895   9.363 -0.3159  0.1785 -0.3609
  176SOPE  C21320029   6.786  -0.919   9.239 -0.5647 -0.1809  0.5375
  176SOPE  H13R20030   6.741  -1.014   9.203  1.7277 -1.2946  0.3593
  176SOPE  H13S20031   6.859  -0.953   9.317 -1.2347  0.0233  1.2681
  176SOPE  C21420032   6.867  -0.851   9.126 -0.4358 -0.6741 -0.1771
  176SOPE  H14R20033   6.903  -0.756   9.172 -1.1818 -0.8634  0.8440
  176SOPE  H14S20034   6.800  -0.823   9.042 -0.5492 -1.0804 -0.2246
  176SOPE  C21520035   6.983  -0.937   9.072  0.1076 -0.4936  0.0570
  176SOPE  H15R20036   7.045  -0.956   9.163 -1.2239 -1.6182  0.7604
  176SOPE  H15S20037   7.044  -0.880   8.998  4.5555 -3.7345  0.7876
  176SOPE  C21620038   6.937  -1.071   9.010  0.6003  0.0705  0.5828
  176SOPE  H16R20039   6.900  -1.134   9.094 -0.8268  0.0464 -0.0286
  176SOPE  H16S20040   7.015  -1.122   8.950 -0.7084 -0.1738 -0.9888
  176SOPE  C21720041   6.812  -1.069   8.920  0.9281  0.3208 -0.1779
  176SOPE  H17R20042   6.826  -0.990   8.843  1.1646 -1.3221 -1.9158
  176SOPE  H17S20043   6.711  -1.054   8.964  0.1719  0.8126 -1.9830
  176SOPE  C21820044   6.803  -1.203   8.840  0.2623  0.1722 -0.0463
  176SOPE  H18R20045   6.893  -1.215   8.775 -0.3543 -1.0918 -0.7053
  176SOPE  H18S20046   6.710  -1.196   8.779 -0.1677  0.1557  0.5977
  176SOPE  H18T20047   6.783  -1.284   8.913 -2.7844  0.9051  0.0751
  176SOPE   C3320048   6.439   0.080   9.915  0.4258  0.3944  0.0708
  176SOPE   H3X20049   6.419  -0.030   9.918  2.2559  0.0518  1.0119
  176SOPE   H3Y20050   6.548   0.101   9.906  1.1305 -0.8240  3.9557
  176SOPE   C3420051   6.347   0.106   9.793 -0.1744  0.1853 -0.2565
  176SOPE   H4X20052   6.327   0.214   9.777  1.6632  0.3061 -2.2039
  176SOPE   H4Y20053   6.248   0.057   9.807 -0.5023  0.6390 -0.9534
  176SOPE   C3520054   6.409   0.043   9.667 -0.4290  0.2772 -0.1046
  176SOPE   H5X20055   6.417  -0.067   9.679 -1.3872  0.0686 -1.2071
  176SOPE   H5Y20056   6.512   0.082   9.656  0.0695 -1.1980 -0.8778
  176SOPE   C3620057   6.331   0.068   9.536 -0.3093 -0.0560 -0.6077
  176SOPE   H6X20058   6.329   0.178   9.520 -0.8601  0.1193  0.5560
  176SOPE   H6Y20059   6.223   0.044   9.545 -0.0833 -1.8654 -2.0372
  176SOPE   C3720060   6.404   0.003   9.415  0.2927  0.1181 -0.6095
  176SOPE   H7X20061   6.376  -0.104   9.409  0.0411  0.2528 -3.1034
  176SOPE   H7Y20062   6.514   0.015   9.417  0.2499  1.7458  4.2745
  176SOPE   C3820063   6.350   0.070   9.288  0.2538  0.2974 -0.4644
  176SOPE   H8X20064   6.356   0.180   9.302  2.4486 -0.0014  1.9967
  176SOPE   H8Y20065   6.252   0.023   9.270  0.0063 -1.0002  3.2687
  176SOPE   C3920066   6.444   0.030   9.170  0.1497  0.0241 -0.6778
  176SOPE   H9X20067   6.438  -0.081   9.166 -0.6778 -0.1048  1.9839
  176SOPE   H9Y20068   6.546   0.063   9.199 -0.9241  3.1406 -0.0475
  176SOPE  C31020069   6.385   0.084   9.042 -0.0580 -0.4718 -0.5027
  176SOPE  H10X20070   6.378   0.194   9.058 -0.7053 -0.6097  0.2831
  176SOPE  H10Y20071   6.280   0.047   9.036 -0.6402  0.9391  0.4428
  176SOPE  C31120072   6.458   0.037   8.923 -0.3471 -0.0697  0.2541
  176SOPE  H11X20073   6.472  -0.073   8.924 -1.9897 -0.3204 -0.3793
  176SOPE  H11Y20074   6.557   0.087   8.917  1.4049 -3.3022  0.2601
  176SOPE  C31220075   6.384   0.064   8.784  0.2032  0.1195 -0.1481
  176SOPE  H12X20076   6.334   0.163   8.782  0.5994  0.3985  1.6605
  176SOPE  H12Y20077   6.304  -0.013   8.778 -0.4131  0.8531 -2.5473
  176SOPE  C31320078   6.484   0.057   8.666 -0.1919  0.9139 -0.4713
  176SOPE  H13X20079   6.539  -0.035   8.694 -1.5695 -0.1292 -1.0476
  176SOPE  H13Y20080   6.558   0.139   8.674 -0.6242  1.3979 -1.2818
  176SOPE  C31420081   6.405   0.037   8.540  0.6796  0.3619  0.4628
  176SOPE  H14X20082   6.326   0.115   8.537 -0.5833 -0.7496  2.3884
  176SOPE  H14Y20083   6.343  -0.055   8.543  1.7050 -0.3675  0.0061
  176SOPE  C31520084   6.497   0.036   8.417 -0.1885  0.0891  0.4256
  176SOPE  H15X20085   6.559  -0.057   8.415 -0.2282  0.0590  0.5833
  176SOPE  H15Y20086   6.566   0.120   8.437  2.1072 -1.0093 -2.1588
  176SOPE  C31620087   6.435   0.060   8.281  0.4474  0.3594  0.6786
  176SOPE  H16X20088   6.509   0.060   8.199 -0.1704 -0.6584  0.1010
  176SOPE  H16Y20089   6.379   0.157   8.276  0.1479  0.1176 -2.3050
  176SOPE  C31720090   6.344  -0.054   8.233  0.3032 -0.0795 -0.9863
  176SOPE  H17X20091   6.276  -0.065   8.320  1.5373  2.1311  0.3613
  176SOPE  H17Y20092   6.406  -0.143   8.211  0.4829 -0.2219  0.0511
  176SOPE  C31820093   6.266  -0.015   8.108  0.4578 -0.0672 -0.4042
  176SOPE  H18X20094   6.319  -0.016   8.010  0.4161 -0.1082 -0.4259
  176SOPE  H18Y20095   6.210   0.080   8.124 -0.5557 -0.6780 -0.2756
  176SOPE  H18Z20096   6.184  -0.089   8.099  1.3793 -1.4531  1.6963
  177SOPE     N20097   6.311   4.155  11.285  0.3669  0.3991  0.3378
  177SOPE   HN120098   6.235   4.145  11.356 -1.5349 -1.8620 -1.8511
  177SOPE   HN220099   6.294   4.085  11.210 -0.1420  1.9801 -1.0889
  177SOPE   HN320100   6.405   4.125  11.318  0.9750 -0.2211 -1.8020
  177SOPE   C1220101   6.308   4.295  11.225 -0.1603 -0.3071  0.1820
  177SOPE  H12A20102   6.349   4.359  11.306 -1.5942  1.1591 -0.2027
  177SOPE  H12B20103   6.203   4.322  11.204  0.2757  1.8834  0.4818
  177SOPE   C1120104   6.400   4.301  11.101 -0.6358  0.3500 -0.1943
  177SOPE  H11A20105   6.390   4.406  11.065  0.5885 -0.1267 -2.0870
  177SOPE  H11B20106   6.369   4.244  11.012 -2.5182 -0.1617  0.7445
  177SOPE     P20107   6.653   4.382  11.125  0.1092  0.4023  0.4134
  177SOPE   O1320108   6.773   4.340  11.204  0.6201 -0.2317 -0.1058
  177SOPE   O1420109   6.576   4.505  11.163 -0.2161  0.2144  0.0737
  177SOPE   O1220110   6.538   4.264  11.133  0.5775  0.4746  0.1353
  177SOPE   O1120111   6.700   4.391  10.975 -0.2529 -0.2987  0.0984
  177SOPE    C120112   6.808   4.309  10.927 -0.0660  0.7196 -0.0291
  177SOPE    HA20113   6.799   4.207  10.969 -0.2767 -0.4686 -2.7339
  177SOPE    HB20114   6.910   4.350  10.943 -0.5857  1.8824  0.3961
  177SOPE    C220115   6.804   4.276  10.775  0.7418  0.5330 -0.3503
  177SOPE    HS20116   6.883   4.199  10.764  0.1921 -0.1015  0.0799
  177SOPE   O2120117   6.832   4.397  10.705  0.7411 -0.1041 -0.2879
  177SOPE   C2120118   6.947   4.444  10.698  0.1151 -0.2609  0.2549
  177SOPE   O2220119   7.048   4.380  10.733  0.5604  0.4587 -0.1289
  177SOPE   C2220120   6.933   4.584  10.639  0.5265  0.0601 -0.1413
  177SOPE   H2R20121   6.943   4.653  10.726  2.7985 -0.9946  0.5208
  177SOPE   H2S20122   6.837   4.602  10.586  0.6273 -0.2965 -0.4477
  177SOPE    C320123   6.663   4.238  10.742 -0.4547 -0.1121 -0.6346
  177SOPE    HX20124   6.613   4.336  10.755 -0.1678 -0.1606  1.0054
  177SOPE    HY20125   6.625   4.167  10.818 -0.0758  0.2176 -0.1295
  177SOPE   O3120126   6.655   4.178  10.613 -0.1603  0.1582 -0.1720
  177SOPE   C3120127   6.717   4.058  10.594  0.0078 -0.2405 -0.0891
  177SOPE   O3220128   6.773   3.993  10.679  0.1126 -0.0420  0.1746
  177SOPE   C3220129   6.683   4.021  10.453 -0.8364  0.2617 -0.5422
  177SOPE   H2X20130   6.730   4.101  10.392 -1.8709 -0.7291 -2.7344
  177SOPE   H2Y20131   6.572   4.013  10.453 -1.1599  2.7261  2.1660
  177SOPE   C2320132   7.062   4.625  10.552  1.1709 -0.3154 -0.6538
  177SOPE   H3R20133   7.156   4.606  10.608  0.6378 -2.2041 -0.3407
  177SOPE   H3S20134   7.054   4.735  10.542 -1.4108 -0.5612 -2.4977
  177SOPE   C2420135   7.056   4.565  10.412 -0.5339 -0.4379 -0.2925
  177SOPE   H4R20136   7.094   4.461  10.424  0.9505 -0.0813 -1.6147
  177SOPE   H4S20137   6.949   4.564  10.381 -0.3761 -1.9079 -0.8663
  177SOPE   C2520138   7.161   4.638  10.325 -0.3867  0.0105 -0.0639
  177SOPE   H5R20139   7.139   4.746  10.330 -1.0956 -0.0300 -1.6436
  177SOPE   H5S20140   7.262   4.617  10.366 -0.9115 -1.4948  0.5343
  177SOPE   C2620141   7.162   4.613  10.174  0.4135  0.6774  0.3998
  177SOPE   H6R20142   7.228   4.675  10.111 -1.1302  1.3407 -0.6363
  177SOPE   H6S20143   7.184   4.506  10.153 -1.4987  0.6385 -1.9384
  177SOPE   C2720144   7.027   4.639  10.108  0.2687 -0.2254 -0.0895
  177SOPE   H7R20145   6.951   4.559  10.121 -1.0833  0.6185 -2.1581
  177SOPE   H7S20146   6.998   4.735  10.156  1.4200 -0.2762  0.7317
  177SOPE   C2820147   7.042   4.653   9.954 -0.3225 -0.2021 -1.1457
  177SOPE   H8R20148   7.100   4.563   9.927  0.5770  0.0041  0.0586
  177SOPE   H8S20149   6.945   4.632   9.902  0.1615 -2.1556 -1.3186
  177SOPE   C2920150   7.125   4.770   9.897 -0.1191 -0.1258  0.1238
  177SOPE   H9120151   7.157   4.855   9.959 -4.0235  1.2160  0.5428
  177SOPE  C21020152   7.132   4.791   9.765  0.1309 -0.3923  0.8554
  177SOPE  H10120153   7.181   4.883   9.729 -3.0805  0.4917 -1.8016
  177SOPE  C21120154   7.077   4.697   9.661 -0.8548 -1.1723  0.9508
  177SOPE  H11R20155   6.989   4.633   9.685 -2.0431 -0.0088 -0.2073
  177SOPE  H11S20156   7.161   4.629   9.636  1.3504  1.9169 -0.6517
  177SOPE  C21220157   7.043   4.785   9.543 -0.0735 -0.0998 -0.4563
  177SOPE  H12R20158   7.138   4.820   9.498  0.6309 -2.0036 -0.5521
  177SOPE  H12S20159   6.981   4.869   9.580 -0.3353 -0.6791  0.4571
  177SOPE  C21320160   6.971   4.713   9.437  0.2983 -0.3591 -0.0427
  177SOPE  H13R20161   6.860   4.711   9.452  0.2646 -2.5724 -0.3362
  177SOPE  H13S20162   7.000   4.607   9.425  0.9781 -0.0312 -1.4841
  177SOPE  C21420163   6.999   4.767   9.294  0.0714 -0.8828 -0.1020
  177SOPE  H14R20164   7.101   4.731   9.270  0.9681  2.3150 -1.7127
  177SOPE  H14S20165   6.995   4.878   9.298  1.4508 -0.7290 -1.8157
  177SOPE  C21520166   6.897   4.717   9.189  0.1277  0.1291  0.3277
  177SOPE  H15R20167   6.792   4.734   9.221  0.0495 -1.3105  0.9110
  177SOPE  H15S20168   6.906   4.608   9.169  1.5489  0.1355  0.8231
  177SOPE  C21620169   6.923   4.797   9.053  0.1353 -0.2384  0.3474
  177SOPE  H16R20170   6.903   4.905   9.071  0.1178  0.2392 -2.0924
  177SOPE  H16S20171   6.852   4.760   8.975  1.3988 -2.1603  0.0314
  177SOPE  C21720172   7.061   4.778   8.995  0.7287 -0.3093  0.4913
  177SOPE  H17R20173   7.140   4.784   9.073  2.3128 -0.9363 -1.0151
  177SOPE  H17S20174   7.070   4.859   8.919 -1.7641  0.8974  1.3737
  177SOPE  C21820175   7.062   4.642   8.917 -0.3111 -0.4680 -0.5766
  177SOPE  H18R20176   7.075   4.558   8.989  0.8401 -0.9362 -1.2924
  177SOPE  H18S20177   7.154   4.624   8.857 -0.5563 -0.5922 -0.9195
  177SOPE  H18T20178   6.970   4.620   8.859  0.0200 -0.2517 -1.2017
  177SOPE   C3320179   6.762   3.891  10.414 -0.8479 -0.0701  0.5241
  177SOPE   H3X20180   6.739   3.809  10.486 -1.4329 -1.2090 -0.9161
  177SOPE   H3Y20181   6.870   3.912  10.424 -0.2341 -2.2946 -0.9227
  177SOPE   C3420182   6.729   3.835  10.275  0.5452  0.3956  0.1309
  177SOPE   H4X20183   6.622   3.805  10.263  0.8260  0.2576 -2.5522
  177SOPE   H4Y20184   6.788   3.743  10.258  0.3223  0.2970 -0.1199
  177SOPE   C3520185   6.754   3.932  10.161  0.2326 -0.2059  0.1221
  177SOPE   H5X20186   6.859   3.966  10.147 -0.4670  1.2680 -2.1422
  177SOPE   H5Y20187   6.685   4.018  10.177 -0.0596 -0.2129 -1.0084
  177SOPE   C3620188   6.723   3.879  10.025 -0.3416  0.7459  0.0204
  177SOPE   H6X20189   6.612   3.872  10.022 -0.4366  1.8315  0.4016
  177SOPE   H6Y20190   6.777   3.783  10.013 -0.3746  0.9221 -1.8270
  177SOPE   C3720191   6.744   3.978   9.903  0.1938  0.6863  0.1863
  177SOPE   H7X20192   6.854   3.995   9.899  0.4890 -1.2524 -1.7133
  177SOPE   H7Y20193   6.674   4.061   9.926 -0.2322  0.0888  1.0913
  177SOPE   C3820194   6.703   3.913   9.768 -0.1014 -0.6647  0.1153
  177SOPE   H8X20195   6.594   3.895   9.774 -0.0457 -0.8745  0.4782
  177SOPE   H8Y20196   6.751   3.813   9.760 -2.2986 -1.7333 -0.4734
  177SOPE   C3920197   6.739   4.015   9.658  0.5824 -0.6183  0.0096
  177SOPE   H9X20198   6.850   4.020   9.659  0.5640 -0.1245 -0.0519
  177SOPE   H9Y20199   6.697   4.116   9.676 -0.0624 -1.0877  1.2094
  177SOPE  C31020200   6.684   3.973   9.517 -0.7823  0.6004  0.0401
  177SOPE  H10X20201   6.574   3.986   9.525 -0.7103  1.1318  0.1536
  177SOPE  H10Y20202   6.711   3.865   9.508 -0.7053  0.7479 -1.7569
  177SOPE  C31120203   6.739   4.041   9.389  0.5576 -0.3739  0.2174
  177SOPE  H11X20204   6.850   4.042   9.394  0.8494 -1.0021 -3.2210
  177SOPE  H11Y20205   6.713   4.149   9.396  1.3787 -0.2097  0.9389
  177SOPE  C31220206   6.706   3.972   9.260 -0.0929 -0.1482  0.3521
  177SOPE  H12X20207   6.604   4.001   9.229  1.0516  1.4086 -2.3198
  177SOPE  H12Y20208   6.707   3.866   9.294 -0.1020 -0.3823 -0.3635
  177SOPE  C31320209   6.807   4.007   9.152 -0.8054  0.4720 -0.1013
  177SOPE  H13X20210   6.912   3.976   9.175 -0.0330  0.1308 -3.5271
  177SOPE  H13Y20211   6.817   4.117   9.146  0.3668  0.4943  1.5041
  177SOPE  C31420212   6.782   3.939   9.019  0.0391  0.0379 -0.4645
  177SOPE  H14X20213   6.707   3.862   9.046 -0.5617  0.5210 -0.7384
  177SOPE  H14Y20214   6.877   3.886   8.996  0.2654 -0.0080  0.5503
  177SOPE  C31520215   6.725   4.037   8.918  0.7036 -0.6356 -0.0352
  177SOPE  H15X20216   6.798   4.121   8.923  1.5764 -1.3091 -0.9926
  177SOPE  H15Y20217   6.626   4.075   8.951  1.4318  1.1295  0.2175
  177SOPE  C31620218   6.730   3.987   8.771  0.9882  0.4660  0.1015
  177SOPE  H16X20219   6.824   3.932   8.751  1.1066  0.9690 -0.8240
  177SOPE  H16Y20220   6.731   4.077   8.706 -3.6180  0.2582 -0.6125
  177SOPE  C31720221   6.597   3.913   8.734  0.0505  0.5928 -1.3541
  177SOPE  H17X20222   6.555   3.860   8.823 -0.3224  1.0890 -1.2311
  177SOPE  H17Y20223   6.624   3.828   8.668 -0.8797 -0.5101 -0.3675
  177SOPE  C31820224   6.493   4.014   8.674 -0.2726 -0.2452 -0.2161
  177SOPE  H18X20225   6.532   4.074   8.589 -0.8312  1.0723  0.4264
  177SOPE  H18Y20226   6.463   4.081   8.758  2.0293  1.4696 -0.6729
  177SOPE  H18Z20227   6.412   3.949   8.633  0.6623 -1.1048 -0.7486
  178SOPE     N20228   2.113   1.875  10.861 -0.7710  0.0445  0.8039
  178SOPE   HN120229   2.146   1.778  10.880 -3.5074 -0.4608  3.7958
  178SOPE   HN220230   2.035   1.873  10.792 -2.1019 -0.8652  2.2757
  178SOPE   HN320231   2.198   1.912  10.814  0.5651 -0.8049  2.4394
  178SOPE   C1220232   2.068   1.941  10.988 -0.0419 -0.0745  0.6110
  178SOPE  H12A20233   2.154   1.926  11.057  0.5005 -1.4806 -0.3096
  178SOPE  H12B20234   1.991   1.870  11.026  0.6972 -0.7587  0.8681
  178SOPE   C1120235   2.013   2.082  10.963 -0.3336 -0.0295 -0.6947
  178SOPE  H11A20236   2.094   2.150  10.929  2.5020 -1.6568  2.2171
  178SOPE  H11B20237   1.985   2.132  11.058 -0.0852  1.2771 -1.2847
  178SOPE     P20238   1.900   2.139  10.723 -0.1493 -0.0226  0.0787
  178SOPE   O1320239   1.969   2.266  10.707  0.7156  0.2312  0.7304
  178SOPE   O1420240   1.758   2.145  10.690  0.0996  0.1840 -0.2717
  178SOPE   O1220241   1.907   2.086  10.873 -0.1721 -0.0281  0.6018
  178SOPE   O1120242   1.983   2.032  10.640  0.2623  0.2571 -0.0169
  178SOPE    C120243   2.105   2.050  10.576  0.6912 -0.4111 -0.3672
  178SOPE    HA20244   2.143   1.948  10.553 -0.2456 -1.1400  1.1798
  178SOPE    HB20245   2.170   2.118  10.636 -3.0228  4.5458 -1.2857
  178SOPE    C220246   2.089   2.136  10.442 -0.1576 -0.0392 -0.0748
  178SOPE    HS20247   2.031   2.225  10.475 -1.7460 -1.2168  0.4545
  178SOPE   O2120248   2.023   2.064  10.336 -0.4396  0.3751  0.1716
  178SOPE   C2120249   1.947   2.143  10.259 -0.3301 -0.2105 -0.2197
  178SOPE   O2220250   1.929   2.264  10.281  0.4696 -0.6774  0.4637
  178SOPE   C2220251   1.873   2.067  10.152  0.3182 -0.5913 -1.0734
  178SOPE   H2R20252   1.774   2.057  10.200  0.8001  0.6871  0.2500
  178SOPE   H2S20253   1.912   1.964  10.133 -0.4485 -1.6549  2.4487
  178SOPE    C320254   2.236   2.179  10.398  0.5723 -0.3305 -0.2845
  178SOPE    HX20255   2.299   2.088  10.398  1.8127  0.5028 -0.5243
  178SOPE    HY20256   2.284   2.243  10.475 -0.9450 -1.0350  1.3113
  178SOPE   O3120257   2.236   2.254  10.279 -0.1865  0.3120  0.0507
  178SOPE   C3120258   2.216   2.388  10.289 -0.0679  0.0483  0.5894
  178SOPE   O3220259   2.208   2.446  10.395  0.0391  0.1734  0.2816
  178SOPE   C3220260   2.241   2.432  10.150  0.1630  0.0102  0.8038
  178SOPE   H2X20261   2.350   2.434  10.131 -0.1634 -1.1973 -1.6763
  178SOPE   H2Y20262   2.202   2.536  10.143 -1.6433 -0.6617  0.2217
  178SOPE   C2320263   1.867   2.144  10.019  0.0231  0.5930  0.1474
  178SOPE   H3R20264   1.962   2.149   9.961 -0.5454 -0.0831 -0.8545
  178SOPE   H3S20265   1.837   2.250  10.028 -0.9140  0.3264  0.1852
  178SOPE   C2420266   1.759   2.086   9.927 -0.2327 -0.4156 -0.2406
  178SOPE   H4R20267   1.687   2.021   9.981  0.2661 -0.0126  0.9438
  178SOPE   H4S20268   1.694   2.162   9.880 -0.5615 -2.1643 -2.8128
  178SOPE   C2520269   1.815   2.000   9.813 -0.3148 -0.2866  0.4158
  178SOPE   H5R20270   1.890   2.053   9.751 -1.5280  1.7599  0.6239
  178SOPE   H5S20271   1.863   1.907   9.852 -0.3836 -0.3252  0.4089
  178SOPE   C2620272   1.691   1.957   9.722  0.8992  0.2773 -0.2297
  178SOPE   H6R20273   1.613   1.914   9.789  0.3820  0.8251 -0.4593
  178SOPE   H6S20274   1.648   2.054   9.688  1.5358  0.4216 -0.6346
  178SOPE   C2720275   1.721   1.854   9.617  0.4615 -0.5051  0.2815
  178SOPE   H7R20276   1.829   1.828   9.611  0.8823 -0.2245  3.8852
  178SOPE   H7S20277   1.657   1.765   9.632 -0.5338  0.5869  3.3289
  178SOPE   C2820278   1.693   1.907   9.472 -0.0030  0.5589  0.4712
  178SOPE   H8R20279   1.591   1.952   9.467  0.0294  0.5965  0.1296
  178SOPE   H8S20280   1.754   2.000   9.462 -0.6137  1.2042  2.2562
  178SOPE   C2920281   1.722   1.800   9.366  0.1481 -0.1193  0.2902
  178SOPE   H9120282   1.696   1.699   9.399  3.1547 -0.3140  2.5708
  178SOPE  C21020283   1.764   1.814   9.237 -0.2875 -0.8075 -0.0230
  178SOPE  H10120284   1.756   1.727   9.170  0.2352 -0.7646 -0.1432
  178SOPE  C21120285   1.805   1.945   9.170  0.1087  0.5150  0.9916
  178SOPE  H11R20286   1.914   1.950   9.147 -0.1564  0.9433 -0.2563
  178SOPE  H11S20287   1.790   2.028   9.243  1.5870  1.7406 -0.0415
  178SOPE  C21220288   1.735   1.975   9.031 -0.1660  0.3025 -0.0183
  178SOPE  H12R20289   1.749   2.083   9.012  3.5307 -0.0480  0.1440
  178SOPE  H12S20290   1.626   1.973   9.056  0.2262  0.6289  1.8762
  178SOPE  C21320291   1.789   1.895   8.920 -0.3068  0.0301  0.2755
  178SOPE  H13R20292   1.729   1.918   8.830  1.3997  1.2281 -0.6209
  178SOPE  H13S20293   1.781   1.785   8.929 -0.6060 -0.0420 -0.7485
  178SOPE  C21420294   1.946   1.916   8.889  0.7510 -0.1070 -0.3749
  178SOPE  H14R20295   2.008   1.858   8.962 -1.0514  0.8695  2.0934
  178SOPE  H14S20296   1.980   2.021   8.904  0.0736  0.0722 -0.0644
  178SOPE  C21520297   1.981   1.884   8.744  0.2431 -0.6067 -0.1616
  178SOPE  H15R20298   1.928   1.963   8.687 -1.1336 -1.6322 -0.3264
  178SOPE  H15S20299   1.943   1.787   8.706 -2.3049  0.2514 -0.0009
  178SOPE  C21620300   2.126   1.901   8.705  0.1369 -0.1464  0.6226
  178SOPE  H16R20301   2.189   1.848   8.780 -0.2492  0.2781  1.2518
  178SOPE  H16S20302   2.155   2.008   8.710  1.1237 -0.3056 -0.9625
  178SOPE  C21720303   2.158   1.865   8.562  0.0761 -0.2718  1.1093
  178SOPE  H17R20304   2.108   1.943   8.500 -0.4781 -1.1717  0.3782
  178SOPE  H17S20305   2.113   1.766   8.540  0.3281 -0.0989 -0.2675
  178SOPE  C21820306   2.305   1.868   8.535  0.0990 -0.2234  0.5407
  178SOPE  H18R20307   2.345   1.816   8.446  0.3989 -0.4506  0.8038
  178SOPE  H18S20308   2.355   1.827   8.626 -0.4049  1.8820  1.8289
  178SOPE  H18T20309   2.352   1.969   8.535  0.1329 -0.2279 -0.5726
  178SOPE   C3320310   2.163   2.358  10.038  0.3162  0.7211  0.4988
  178SOPE   H3X20311   2.054   2.344  10.054  0.3453  1.6604  1.6734
  178SOPE   H3Y20312   2.211   2.259  10.028 -0.3071  0.5378 -1.0637
  178SOPE   C3420313   2.179   2.419   9.899 -0.7708  0.1604 -0.3968
  178SOPE   H4X20314   2.287   2.429   9.878 -0.4998  1.1566  1.2655
  178SOPE   H4Y20315   2.132   2.519   9.895 -0.8309  0.2705  1.7580
  178SOPE   C3520316   2.117   2.341   9.788 -0.1101 -0.1099 -0.5262
  178SOPE   H5X20317   2.008   2.330   9.803 -0.1455  1.1349  0.2935
  178SOPE   H5Y20318   2.179   2.249   9.778  1.2343  0.3270  2.7301
  178SOPE   C3620319   2.123   2.414   9.653 -0.4300  1.2524 -0.1755
  178SOPE   H6X20320   2.225   2.436   9.613 -1.0581 -0.5962 -3.1253
  178SOPE   H6Y20321   2.052   2.499   9.655 -2.0518 -0.0405 -0.7377
  178SOPE   C3720322   2.062   2.319   9.540  0.0636  0.2158  0.3988
  178SOPE   H7X20323   1.961   2.279   9.559  0.8001 -1.9380  0.0642
  178SOPE   H7Y20324   2.124   2.227   9.527 -2.7348 -2.0641  2.0769
  178SOPE   C3820325   2.036   2.405   9.409  0.0361  0.1535 -0.1028
  178SOPE   H8X20326   2.122   2.468   9.378  0.6520  0.1993  1.5800
  178SOPE   H8Y20327   1.951   2.475   9.423 -1.5401 -0.8777 -3.4501
  178SOPE   C3920328   2.002   2.323   9.280 -0.0263 -0.0770  0.3348
  178SOPE   H9X20329   1.918   2.253   9.300  1.2177 -1.2996  1.5638
  178SOPE   H9Y20330   2.086   2.251   9.268 -0.9031 -0.9499 -0.8448
  178SOPE  C31020331   1.970   2.399   9.152  0.2571 -0.0113 -0.5114
  178SOPE  H10X20332   2.045   2.479   9.129  0.4626 -0.1581 -0.3552
  178SOPE  H10Y20333   1.872   2.445   9.175 -0.2187 -1.4750  0.4492
  178SOPE  C31120334   1.954   2.305   9.041 -0.4302 -0.6910  0.1719
  178SOPE  H11X20335   1.892   2.220   9.077 -1.3803 -0.4547 -0.8406
  178SOPE  H11Y20336   2.053   2.268   9.006  0.2241  1.4355 -0.3444
  178SOPE  C31220337   1.868   2.367   8.931 -0.0740 -0.3582  0.0410
  178SOPE  H12X20338   1.770   2.396   8.973 -0.9422 -3.2459  0.2388
  178SOPE  H12Y20339   1.848   2.291   8.853 -0.4405  1.1385 -1.3770
  178SOPE  C31320340   1.925   2.485   8.853 -0.1445  0.1698  0.0938
  178SOPE  H13X20341   2.026   2.462   8.814  1.3862 -0.9988  4.1999
  178SOPE  H13Y20342   1.941   2.577   8.912  0.9834  2.0201 -2.9051
  178SOPE  C31420343   1.823   2.520   8.746  0.2675  0.2214  0.6767
  178SOPE  H14X20344   1.725   2.546   8.792 -0.5311  0.4372 -1.0450
  178SOPE  H14Y20345   1.804   2.431   8.681  0.4130  0.2256  0.6287
  178SOPE  C31520346   1.862   2.635   8.653 -0.4514 -0.0030  0.5509
  178SOPE  H15X20347   1.962   2.612   8.609 -1.1818  0.1976 -1.3189
  178SOPE  H15Y20348   1.867   2.726   8.717  0.7367  0.7439 -0.5429
  178SOPE  C31620349   1.766   2.654   8.537  0.5271  0.6371  0.1527
  178SOPE  H16X20350   1.782   2.589   8.449 -0.7697  0.4493  0.0395
  178SOPE  H16Y20351   1.770   2.760   8.503 -1.5901  0.4407 -0.8897
  178SOPE  C31720352   1.616   2.637   8.587 -0.5996 -0.1628 -0.1515
  178SOPE  H17X20353   1.595   2.692   8.681 -3.7481  0.4597 -1.0705
  178SOPE  H17Y20354   1.581   2.532   8.598  0.2633 -0.6144 -1.5011
  178SOPE  C31820355   1.508   2.682   8.488  0.0679 -0.0145 -0.1854
  178SOPE  H18X20356   1.501   2.793   8.483 -0.8074  0.0381  1.7505
  178SOPE  H18Y20357   1.417   2.637   8.532  1.2031  0.5301  2.9703
  178SOPE  H18Z20358   1.512   2.637   8.386 -0.6426 -3.4021  1.1771
  179SOPE     N20359   2.714   6.119   6.263 -0.0533  0.1291 -0.1767
  179SOPE   HN120360   2.637   6.050   6.249  1.1633 -1.4575  0.6871
  179SOPE   HN220361   2.725   6.186   6.184  2.5213  0.0060 -0.0005
  179SOPE   HN320362   2.792   6.051   6.269  0.2995  0.6243  1.2214
  179SOPE   C1220363   2.690   6.208   6.387 -0.0210  0.6559 -0.1486
  179SOPE  H12A20364   2.761   6.293   6.379  2.5413 -1.3946 -0.4688
  179SOPE  H12B20365   2.704   6.142   6.475  1.2039  0.7847 -0.2390
  179SOPE   C1120366   2.548   6.274   6.378 -0.6966  0.4578 -0.0568
  179SOPE  H11A20367   2.536   6.325   6.279 -1.0985  1.3634  0.4455
  179SOPE  H11B20368   2.546   6.356   6.452 -0.1991  0.8806 -0.5033
  179SOPE     P20369   2.423   6.103   6.540 -0.2580  0.3413 -0.3789
  179SOPE   O1320370   2.519   5.994   6.555 -0.2185  0.4158  0.3065
  179SOPE   O1420371   2.276   6.072   6.537  0.5277  0.5137  0.1525
  179SOPE   O1220372   2.449   6.174   6.394 -0.1821 -0.0523 -0.0026
  179SOPE   O1120373   2.457   6.224   6.638  0.2606  0.3158  0.4314
  179SOPE    C120374   2.370   6.346   6.659  0.2568  0.0856 -0.2651
  179SOPE    HA20375   2.294   6.353   6.578 -1.8903 -2.8479  1.3068
  179SOPE    HB20376   2.434   6.436   6.663  1.4241 -0.7475  0.2485
  179SOPE    C220377   2.294   6.332   6.799  0.2652  0.0953  0.3023
  179SOPE    HS20378   2.241   6.427   6.821 -0.0915 -0.3892  1.6022
  179SOPE   O2120379   2.386   6.307   6.912  0.1663  0.0513  0.2080
  179SOPE   C2120380   2.466   6.400   6.942 -0.7527 -0.2131 -0.1206
  179SOPE   O2220381   2.463   6.517   6.902 -0.0334  0.0151  0.5520
  179SOPE   C2220382   2.564   6.344   7.039  0.0245 -0.1726 -0.1870
  179SOPE   H2R20383   2.659   6.401   7.033  0.4028 -0.7786 -0.0056
  179SOPE   H2S20384   2.587   6.237   7.019  1.2788  0.1998 -0.9007
  179SOPE    C320385   2.191   6.213   6.804  0.0269  0.0753  0.1275
  179SOPE    HX20386   2.251   6.123   6.779  1.6461  1.1442  0.0425
  179SOPE    HY20387   2.112   6.226   6.726  0.4423 -1.0292 -0.5012
  179SOPE   O3120388   2.133   6.197   6.929 -0.0537 -1.0673 -0.1591
  179SOPE   C3120389   2.040   6.102   6.937 -0.4746 -0.4740 -0.1218
  179SOPE   O3220390   1.995   6.030   6.845 -0.5981 -0.0731 -0.3752
  179SOPE   C3220391   2.005   6.092   7.080  0.4908  0.0772 -0.1736
  179SOPE   H2X20392   1.996   6.194   7.123  0.5309 -0.5160  1.3154
  179SOPE   H2Y20393   2.094   6.053   7.133 -1.6748 -0.3743  3.4925
  179SOPE   C2320394   2.524   6.361   7.191  0.2425 -0.6772 -0.0045
  179SOPE   H3R20395   2.544   6.272   7.253 -0.2722 -0.2830  0.7463
  179SOPE   H3S20396   2.413   6.358   7.183  0.0633 -0.7930  2.0434
  179SOPE   C2420397   2.568   6.495   7.241 -0.0458  0.6023 -0.2580
  179SOPE   H4R20398   2.677   6.491   7.220  0.0867 -0.1028  0.4993
  179SOPE   H4S20399   2.503   6.564   7.183  1.4958  0.9489 -1.6632
  179SOPE   C2520400   2.556   6.501   7.395  1.2837 -0.1460 -0.1258
  179SOPE   H5R20401   2.456   6.464   7.424  0.5721  1.4984 -0.3768
  179SOPE   H5S20402   2.622   6.424   7.442  1.1689  1.2362  2.4445
  179SOPE   C2620403   2.582   6.638   7.448 -0.8519  0.0121 -0.2287
  179SOPE   H6R20404   2.681   6.685   7.429 -0.3302 -0.5961  0.9031
  179SOPE   H6S20405   2.507   6.708   7.404 -1.0979 -0.8466 -1.2150
  179SOPE   C2720406   2.569   6.646   7.599 -0.3013 -1.0635  0.8068
  179SOPE   H7R20407   2.494   6.575   7.641 -1.4309  0.0199  0.6826
  179SOPE   H7S20408   2.665   6.618   7.647 -1.6207 -1.5057  3.3912
  179SOPE   C2820409   2.555   6.795   7.650  0.2021 -0.0945 -0.8503
  179SOPE   H8R20410   2.589   6.803   7.755 -1.8278 -1.4583 -0.0169
  179SOPE   H8S20411   2.630   6.854   7.593  1.5779 -1.2540 -0.3246
  179SOPE   C2920412   2.421   6.862   7.645 -0.5540 -0.3094  0.5998
  179SOPE   H9120413   2.390   6.875   7.540  2.8865 -1.1494 -0.6600
  179SOPE  C21020414   2.346   6.909   7.746  0.2850  0.4565 -0.2948
  179SOPE  H10120415   2.258   6.971   7.722  1.3914  1.9848 -0.5136
  179SOPE  C21120416   2.386   6.894   7.890 -0.4591 -0.4598 -0.3302
  179SOPE  H11R20417   2.462   6.813   7.896 -0.0336  0.0460  2.2730
  179SOPE  H11S20418   2.306   6.866   7.963  0.0903 -2.6127 -0.4912
  179SOPE  C21220419   2.471   7.023   7.920  0.3318  0.2283 -0.1905
  179SOPE  H12R20420   2.550   7.037   7.843 -1.2603  1.0513 -1.7269
  179SOPE  H12S20421   2.516   7.023   8.022  2.9588  1.9107 -1.2439
  179SOPE  C21320422   2.378   7.145   7.926  0.4299 -0.5747 -0.1818
  179SOPE  H13R20423   2.310   7.152   7.839 -0.6871 -1.1214  0.6175
  179SOPE  H13S20424   2.447   7.232   7.921 -0.5013  0.1502 -0.8707
  179SOPE  C21420425   2.299   7.168   8.050 -0.8202  0.9098 -0.1426
  179SOPE  H14R20426   2.341   7.132   8.146 -0.6594  2.4214  0.3804
  179SOPE  H14S20427   2.205   7.110   8.034  0.8767 -1.7928 -1.1396
  179SOPE  C21520428   2.259   7.315   8.067 -0.7334 -0.4655  0.2116
  179SOPE  H15R20429   2.198   7.355   7.983 -0.9402 -1.5384 -0.1590
  179SOPE  H15S20430   2.358   7.366   8.064 -0.4333 -1.0827 -1.4807
  179SOPE  C21620431   2.176   7.327   8.186  0.4408 -0.0586 -1.0383
  179SOPE  H16R20432   2.222   7.267   8.268 -2.4626  2.5984  2.9826
  179SOPE  H16S20433   2.072   7.296   8.161  0.9431 -1.0827 -1.9191
  179SOPE  C21720434   2.159   7.471   8.240 -0.0516 -0.3673  0.9480
  179SOPE  H17R20435   2.087   7.480   8.325 -0.1016 -0.9179  0.9686
  179SOPE  H17S20436   2.113   7.539   8.164 -2.6890 -1.7761  1.1537
  179SOPE  C21820437   2.291   7.534   8.288  0.1637  0.0938 -0.0176
  179SOPE  H18R20438   2.266   7.629   8.339  1.5813  0.1148  0.6898
  179SOPE  H18S20439   2.362   7.565   8.209 -0.3271  0.3211 -0.3773
  179SOPE  H18T20440   2.341   7.463   8.356  2.8353  3.0032  1.2729
  179SOPE   C3320441   1.879   6.006   7.096  0.8311 -0.2013 -0.3449
  179SOPE   H3X20442   1.877   5.906   7.047  1.0888 -1.1491  1.4889
  179SOPE   H3Y20443   1.792   6.072   7.078  0.9209 -0.2692 -1.0772
  179SOPE   C3420444   1.847   5.953   7.244 -0.1623 -0.6030  0.6701
  179SOPE   H4X20445   1.904   5.859   7.267  2.5248  1.0999  1.5055
  179SOPE   H4Y20446   1.738   5.934   7.245 -0.1891 -0.4432  0.6332
  179SOPE   C3520447   1.866   6.058   7.346 -0.7161 -0.1783 -0.6877
  179SOPE   H5X20448   1.819   6.157   7.324 -0.3396  0.2765  0.4984
  179SOPE   H5Y20449   1.976   6.070   7.355 -0.9174  0.2545  1.5803
  179SOPE   C3620450   1.826   5.997   7.482 -0.8060  0.0028 -0.5836
  179SOPE   H6X20451   1.897   5.914   7.505 -1.8186 -0.7034  0.0809
  179SOPE   H6Y20452   1.722   5.958   7.469 -1.3025  1.7787 -2.5795
  179SOPE   C3720453   1.837   6.103   7.592 -0.1144 -0.4712  0.0185
  179SOPE   H7X20454   1.755   6.178   7.582 -1.0448 -1.4817 -0.1143
  179SOPE   H7Y20455   1.938   6.149   7.586  0.6815 -2.0322  0.8935
  179SOPE   C3820456   1.815   6.045   7.723 -0.5796 -0.1313 -0.0431
  179SOPE   H8X20457   1.743   5.962   7.713 -2.4550  1.3574  0.5316
  179SOPE   H8Y20458   1.768   6.124   7.784 -0.6483 -0.7371  0.6944
  179SOPE   C3920459   1.944   5.994   7.794  0.1308 -0.2212 -0.0097
  179SOPE   H9X20460   2.016   6.078   7.799  1.4513 -1.2419 -0.9728
  179SOPE   H9Y20461   1.987   5.905   7.743 -0.9422 -0.8488  0.1388
  179SOPE  C31020462   1.911   5.963   7.937  0.3121 -0.0416  0.5065
  179SOPE  H10X20463   1.847   6.044   7.977 -0.9206 -1.6391  1.9033
  179SOPE  H10Y20464   1.998   5.952   8.005 -0.7303 -0.1699  1.8686
  179SOPE  C31120465   1.850   5.830   7.955 -0.1859  0.0234  0.0223
  179SOPE  H11X20466   1.903   5.767   7.881  0.6599  1.9134 -1.0450
  179SOPE  H11Y20467   1.740   5.830   7.942 -0.3755  0.5055  1.4648
  179SOPE  C31220468   1.876   5.770   8.096 -0.0436  0.5045 -0.5203
  179SOPE  H12X20469   1.985   5.774   8.118  0.0463  1.9667 -1.1514
  179SOPE  H12Y20470   1.842   5.665   8.107 -0.1506  0.3211 -2.2993
  179SOPE  C31320471   1.816   5.859   8.213  0.2044 -0.1806  0.3522
  179SOPE  H13X20472   1.706   5.866   8.194  0.2303  1.4016  0.6339
  179SOPE  H13Y20473   1.854   5.963   8.212  0.3435 -0.1957 -2.2743
  179SOPE  C31420474   1.845   5.804   8.355  0.0518  0.2033 -0.5571
  179SOPE  H14X20475   1.844   5.890   8.425  2.7570 -0.8270  0.9269
  179SOPE  H14Y20476   1.951   5.769   8.356  0.2321  0.7362  0.4154
  179SOPE  C31520477   1.756   5.682   8.393 -0.4281  0.0958  0.5456
  179SOPE  H15X20478   1.775   5.588   8.336 -0.9399  0.2614  0.0970
  179SOPE  H15Y20479   1.651   5.711   8.372  0.6587  3.2234 -1.1903
  179SOPE  C31620480   1.768   5.639   8.541 -0.0113 -0.0296  0.3462
  179SOPE  H16X20481   1.687   5.565   8.558 -1.3889  1.3788  0.1782
  179SOPE  H16Y20482   1.742   5.721   8.611  1.8026 -0.8806  2.0987
  179SOPE  C31720483   1.897   5.572   8.564  0.2450  0.3395 -0.0039
  179SOPE  H17X20484   1.978   5.625   8.509  0.7872  0.6387  1.0498
  179SOPE  H17Y20485   1.894   5.473   8.513  1.0112 -0.3778  1.2844
  179SOPE  C31820486   1.903   5.549   8.715  0.0161 -0.0146  0.4578
  179SOPE  H18X20487   1.817   5.485   8.746  1.0139 -1.7190 -0.1503
  179SOPE  H18Y20488   1.903   5.636   8.784 -2.5006 -0.5016  1.1905
  179SOPE  H18Z20489   1.999   5.495   8.733  1.3918  0.8789 -3.3466
  180SOPE     N20490   2.215   5.674   6.327 -0.0171 -0.3624  0.1144
  180SOPE   HN120491   2.263   5.742   6.265  0.9612 -0.9243  0.2336
  180SOPE   HN220492   2.195   5.713   6.421 -1.6884 -1.3850  0.2444
  180SOPE   HN320493   2.276   5.591   6.344  2.3165  1.6300  2.2882
  180SOPE   C1220494   2.082   5.634   6.270  0.3862 -0.4566  0.1912
  180SOPE  H12A20495   2.033   5.560   6.337 -0.9837 -0.5738 -0.8977
  180SOPE  H12B20496   2.103   5.590   6.171 -1.4104 -1.6821  0.3196
  180SOPE   C1120497   1.983   5.759   6.270 -0.3074  0.4191 -0.4354
  180SOPE  H11A20498   2.044   5.840   6.225  1.8105 -1.6789 -1.5867
  180SOPE  H11B20499   1.965   5.779   6.377  1.6542 -0.9411  0.2174
  180SOPE     P20500   1.724   5.777   6.239  0.1220  0.6265  0.0473
  180SOPE   O1320501   1.639   5.720   6.132 -0.0512 -0.2899 -0.6693
  180SOPE   O1420502   1.725   5.922   6.256 -0.0623 -0.3207 -0.1672
  180SOPE   O1220503   1.866   5.725   6.202 -0.2092 -0.5517 -0.0761
  180SOPE   O1120504   1.707   5.706   6.378  0.4405  0.0487 -0.0541
  180SOPE    C120505   1.628   5.769   6.480  0.6942 -0.2779 -0.1022
  180SOPE    HA20506   1.522   5.776   6.445 -0.4518 -2.9869  2.4129
  180SOPE    HB20507   1.663   5.873   6.494  1.5947 -0.6059  0.1230
  180SOPE    C220508   1.644   5.699   6.623 -0.2327 -0.6070 -0.9092
  180SOPE    HS20509   1.613   5.784   6.688 -0.9218 -0.6976 -1.1098
  180SOPE   O2120510   1.775   5.646   6.646 -0.2412  0.0261 -0.6598
  180SOPE   C2120511   1.848   5.711   6.734 -0.3569  0.0679 -0.3250
  180SOPE   O2220512   1.817   5.822   6.781 -0.2305 -0.3054 -0.2417
  180SOPE   C2220513   1.962   5.621   6.777  0.3376  0.6354  0.3935
  180SOPE   H2R20514   2.044   5.614   6.703  0.7536 -0.4602  0.9406
  180SOPE   H2S20515   1.920   5.519   6.785  1.3424  0.1287 -0.4868
  180SOPE    C320516   1.542   5.584   6.647  0.4713 -0.2682 -0.4298
  180SOPE    HX20517   1.550   5.496   6.580  0.2706 -0.9783  0.4534
  180SOPE    HY20518   1.439   5.626   6.644  1.0466  1.3541  0.8749
  180SOPE   O3120519   1.544   5.540   6.783  0.3864  0.1270  0.1634
  180SOPE   C3120520   1.565   5.407   6.803 -0.7711 -0.1914 -0.2500
  180SOPE   O3220521   1.569   5.316   6.724  0.2704 -0.4420 -0.0610
  180SOPE   C3220522   1.607   5.393   6.954 -0.6780  0.5476  0.0179
  180SOPE   H2X20523   1.516   5.420   7.012 -0.3042 -0.6805  1.2314
  180SOPE   H2Y20524   1.688   5.469   6.962  0.2733 -0.4986  0.4973
  180SOPE   C2320525   2.032   5.663   6.907  0.3205 -0.1638 -0.1506
  180SOPE   H3R20526   2.057   5.771   6.917 -0.2959 -0.0336  0.0502
  180SOPE   H3S20527   2.135   5.623   6.904  0.9141  1.2754  0.2439
  180SOPE   C2420528   1.964   5.597   7.029 -0.1096 -0.5693 -0.7285
  180SOPE   H4R20529   1.868   5.644   7.061  1.0878 -0.5681  3.5725
  180SOPE   H4S20530   1.953   5.487   7.014 -0.1693 -0.9759  1.7774
  180SOPE   C2520531   2.053   5.627   7.152  0.1195 -0.2048 -0.3907
  180SOPE   H5R20532   2.155   5.589   7.130  1.0780  2.5540 -1.1131
  180SOPE   H5S20533   2.059   5.736   7.173  1.8602 -0.0830 -1.3202
  180SOPE   C2620534   1.999   5.556   7.283  0.1212  0.1912  0.1090
  180SOPE   H6R20535   1.891   5.569   7.301 -0.4816 -1.4680 -1.9026
  180SOPE   H6S20536   2.029   5.449   7.279  1.6101  0.5687  0.3514
  180SOPE   C2720537   2.075   5.617   7.396  0.0002 -0.3615 -0.3073
  180SOPE   H7R20538   2.180   5.629   7.361  0.0492  3.5578  0.7569
  180SOPE   H7S20539   2.037   5.720   7.416  2.6406  0.6761 -0.2053
  180SOPE   C2820540   2.072   5.533   7.527  0.1912  0.0061  0.0983
  180SOPE   H8R20541   1.969   5.523   7.567  0.8065 -1.8419  1.3396
  180SOPE   H8S20542   2.085   5.425   7.508 -1.5936  0.1536 -2.3896
  180SOPE   C2920543   2.164   5.591   7.633 -0.1713 -0.6243 -0.2537
  180SOPE   H9120544   2.240   5.662   7.596 -0.5676  0.7328  1.4483
  180SOPE  C21020545   2.146   5.578   7.758 -0.0084  0.4579 -0.7536
  180SOPE  H10120546   2.222   5.630   7.819 -0.7664  1.0532 -0.2975
  180SOPE  C21120547   2.043   5.496   7.839  0.3671  0.0243  0.3150
  180SOPE  H11R20548   1.961   5.463   7.772  2.1986  1.2174 -2.7208
  180SOPE  H11S20549   1.995   5.554   7.921  2.0440  1.0735  0.6267
  180SOPE  C21220550   2.105   5.359   7.885 -0.3745 -0.2694  0.5413
  180SOPE  H12R20551   2.144   5.305   7.797  1.1920 -0.2474  1.1924
  180SOPE  H12S20552   2.024   5.297   7.928  0.1767 -1.1606  0.3120
  180SOPE  C21320553   2.223   5.371   7.982 -0.5147  0.5775 -0.2418
  180SOPE  H13R20554   2.314   5.426   7.952 -0.2011  1.8975  2.7320
  180SOPE  H13S20555   2.266   5.275   8.016  0.2381  1.9038  2.9782
  180SOPE  C21420556   2.173   5.429   8.116  0.2177 -0.5533  0.0383
  180SOPE  H14R20557   2.095   5.356   8.149 -0.5737  0.6156  0.8169
  180SOPE  H14S20558   2.129   5.526   8.087 -0.4262 -0.4706  1.2167
  180SOPE  C21520559   2.288   5.461   8.219 -0.5518  0.0251  0.8159
  180SOPE  H15R20560   2.347   5.537   8.164 -1.2768 -0.3621 -0.5211
  180SOPE  H15S20561   2.357   5.374   8.227 -0.5700  0.0680  1.5811
  180SOPE  C21620562   2.236   5.510   8.349 -0.0795 -0.4759 -0.1479
  180SOPE  H16R20563   2.182   5.424   8.394 -1.5096  0.2362 -0.4249
  180SOPE  H16S20564   2.157   5.587   8.336  2.1913  1.9486 -0.3896
  180SOPE  C21720565   2.344   5.564   8.447 -0.2047 -0.5450  0.5014
  180SOPE  H17R20566   2.390   5.658   8.409  0.3774  0.2040  2.8864
  180SOPE  H17S20567   2.421   5.485   8.462 -0.1003 -0.0673  2.8659
  180SOPE  C21820568   2.276   5.583   8.582  0.3400 -0.1275  0.1446
  180SOPE  H18R20569   2.347   5.632   8.651  0.5805 -0.2019 -0.0455
  180SOPE  H18S20570   2.243   5.488   8.629  0.7036 -0.4069 -0.1514
  180SOPE  H18T20571   2.189   5.649   8.563  0.6523 -0.0056 -0.9956
  180SOPE   C3320572   1.652   5.254   6.992 -0.6249  0.0051 -0.5393
  180SOPE   H3X20573   1.709   5.204   6.911  0.8743 -2.7283  1.9831
  180SOPE   H3Y20574   1.566   5.189   7.021 -0.5096 -0.0678 -0.3551
  180SOPE   C3420575   1.739   5.251   7.117 -0.2873  0.4892  0.2164
  180SOPE   H4X20576   1.807   5.338   7.132  0.2794  0.0455  0.2567
  180SOPE   H4Y20577   1.803   5.161   7.102  1.6892  2.0212 -1.2200
  180SOPE   C3520578   1.655   5.243   7.243  0.7768 -0.0611  0.3484
  180SOPE   H5X20579   1.565   5.181   7.224  2.0080 -1.1265 -2.5231
  180SOPE   H5Y20580   1.607   5.340   7.271  1.0732  0.2640 -0.2424
  180SOPE   C3620581   1.734   5.186   7.354 -0.7869  0.4709 -0.4796
  180SOPE   H6X20582   1.823   5.248   7.375 -1.7843  2.0206 -0.6717
  180SOPE   H6Y20583   1.771   5.082   7.339  0.2265  0.6927  0.3649
  180SOPE   C3720584   1.649   5.180   7.483 -0.8667  0.3744  0.5326
  180SOPE   H7X20585   1.560   5.117   7.462  1.9698 -3.8952  0.2209
  180SOPE   H7Y20586   1.611   5.277   7.522  0.6499  1.5387 -0.7248
  180SOPE   C3820587   1.729   5.120   7.599  0.7451  0.1582  0.0847
  180SOPE   H8X20588   1.803   5.193   7.639  0.1937  1.8656 -1.8686
  180SOPE   H8Y20589   1.778   5.027   7.563  0.5008  0.8058 -2.0175
  180SOPE   C3920590   1.641   5.070   7.712 -0.7529  0.2532  0.1665
  180SOPE   H9X20591   1.563   4.999   7.679 -0.0741 -0.2861 -0.2895
  180SOPE   H9Y20592   1.581   5.153   7.756  0.0130  0.8880  0.0336
  180SOPE  C31020593   1.734   4.998   7.813 -0.6539 -0.3381  0.0817
  180SOPE  H10X20594   1.821   5.061   7.841  0.4416 -1.0509 -1.5418
  180SOPE  H10Y20595   1.778   4.911   7.760  0.8679 -0.4188  1.4259
  180SOPE  C31120596   1.654   4.945   7.935 -0.4803  1.0139 -0.6610
  180SOPE  H11X20597   1.569   4.879   7.906  0.6950 -1.8294  1.7637
  180SOPE  H11Y20598   1.629   5.031   8.000  1.3592  0.4114  0.9308
  180SOPE  C31220599   1.744   4.870   8.030 -0.7250 -0.5844  0.1846
  180SOPE  H12X20600   1.827   4.941   8.052  1.6642 -2.8746 -0.7990
  180SOPE  H12Y20601   1.801   4.782   7.992  0.7866  0.4024  0.0824
  180SOPE  C31320602   1.674   4.859   8.168 -0.4665  0.6320 -0.7333
  180SOPE  H13X20603   1.602   4.774   8.166 -0.3961  0.5603 -0.3234
  180SOPE  H13Y20604   1.614   4.952   8.180 -1.3482  0.3445 -2.5245
  180SOPE  C31420605   1.784   4.842   8.283  0.6581  0.2992 -0.7045
  180SOPE  H14X20606   1.842   4.937   8.278  1.3155 -0.0994 -0.8734
  180SOPE  H14Y20607   1.844   4.752   8.256  2.8650  0.3839  3.1274
  180SOPE  C31520608   1.721   4.815   8.424 -0.4941  0.2576  0.8552
  180SOPE  H15X20609   1.647   4.894   8.452  1.3948  2.0689  0.9934
  180SOPE  H15Y20610   1.806   4.830   8.494 -0.6181  0.5051  0.9565
  180SOPE  C31620611   1.663   4.674   8.441 -0.3737  0.3619  0.6186
  180SOPE  H16X20612   1.728   4.591   8.407 -2.9782 -2.2682  1.6428
  180SOPE  H16Y20613   1.578   4.679   8.370  0.5256  1.3312 -0.4297
  180SOPE  C31720614   1.614   4.659   8.588 -0.1379  0.5397 -0.2316
  180SOPE  H17X20615   1.560   4.753   8.611 -1.1623 -0.1083  0.0397
  180SOPE  H17Y20616   1.704   4.647   8.652 -0.1265  2.2864  0.1341
  180SOPE  C31820617   1.527   4.534   8.609 -0.1643 -0.4583  0.4614
  180SOPE  H18X20618   1.492   4.536   8.714  1.8210  4.0055  1.3092
  180SOPE  H18Y20619   1.580   4.438   8.590  1.8637  0.8606 -0.9896
  180SOPE  H18Z20620   1.444   4.536   8.536 -0.0126  1.9876  0.2583
  181SOPE     N20621   2.023   2.770   6.080  0.5192  0.3071 -0.1632
  181SOPE   HN120622   2.030   2.785   6.183  2.6512 -2.4959  0.2299
  181SOPE   HN220623   2.070   2.678   6.067  1.7081  0.8870 -0.1758
  181SOPE   HN320624   2.070   2.848   6.028  1.6091 -0.6373 -0.6383
  181SOPE   C1220625   1.881   2.774   6.037  0.1054  0.0827 -0.1305
  181SOPE  H12A20626   1.879   2.820   5.935 -1.6807  0.2294 -0.0709
  181SOPE  H12B20627   1.829   2.841   6.108 -0.4627 -0.8581  0.3619
  181SOPE   C1120628   1.813   2.632   6.050  0.3635 -0.3835 -0.1767
  181SOPE  H11A20629   1.832   2.576   5.955 -0.2007 -0.3138 -0.3370
  181SOPE  H11B20630   1.705   2.652   6.067  0.3085  0.8524 -1.7851
  181SOPE     P20631   1.888   2.404   6.164 -0.1877  0.2004  0.0446
  181SOPE   O1320632   1.941   2.375   6.024 -0.3740  0.1932 -0.2818
  181SOPE   O1420633   1.765   2.329   6.203 -0.0544  0.4337  0.9005
  181SOPE   O1220634   1.854   2.564   6.167  0.0864  0.8047  0.1479
  181SOPE   O1120635   1.998   2.386   6.278 -0.1891 -0.1239 -0.2006
  181SOPE    C120636   2.032   2.499   6.366 -0.3375  0.8085  0.2502
  181SOPE    HA20637   2.034   2.591   6.303 -0.5101  1.0412  0.5839
  181SOPE    HB20638   2.135   2.479   6.403 -1.1900  0.4450  2.5380
  181SOPE    C220639   1.936   2.518   6.479  0.4956 -0.3496 -0.8287
  181SOPE    HS20640   1.838   2.553   6.440  1.1679  0.1411 -2.1232
  181SOPE   O2120641   1.994   2.611   6.567 -0.3364  0.1527  0.0184
  181SOPE   C2120642   1.907   2.686   6.633 -0.3721 -0.0754  0.0677
  181SOPE   O2220643   1.789   2.690   6.618  0.8848 -0.0454 -0.3117
  181SOPE   C2220644   1.983   2.769   6.741  1.4237 -0.2114 -0.3381
  181SOPE   H2R20645   2.010   2.871   6.706  3.0734  0.4149  2.4809
  181SOPE   H2S20646   2.079   2.714   6.752  0.0780 -2.2621  2.4680
  181SOPE    C320647   1.909   2.387   6.558 -0.3145  0.1680  0.0927
  181SOPE    HX20648   2.014   2.352   6.556  0.4300  2.2392  0.1203
  181SOPE    HY20649   1.836   2.332   6.496 -1.2515 -0.6206  1.8198
  181SOPE   O3120650   1.852   2.401   6.686 -0.4604 -0.4501 -0.2325
  181SOPE   C3120651   1.809   2.291   6.736 -0.0426 -0.4690 -0.2575
  181SOPE   O3220652   1.835   2.179   6.702 -0.0407 -0.0361 -0.1567
  181SOPE   C3220653   1.708   2.322   6.849  0.0362  0.4781  0.2953
  181SOPE   H2X20654   1.627   2.247   6.849 -2.0667  2.5808 -1.3043
  181SOPE   H2Y20655   1.671   2.424   6.823 -0.7005 -0.1225 -1.1435
  181SOPE   C2320656   1.908   2.776   6.881  0.0250 -0.3683 -0.0661
  181SOPE   H3R20657   1.885   2.668   6.898 -1.9411 -0.0098 -0.2424
  181SOPE   H3S20658   1.811   2.828   6.868  1.1857  1.8337 -0.3123
  181SOPE   C2420659   1.990   2.820   6.999  0.0594  0.1941 -0.9544
  181SOPE   H4R20660   2.061   2.737   7.020  1.7139  1.3832 -1.6149
  181SOPE   H4S20661   2.049   2.913   6.987  0.7473 -0.2452 -1.0757
  181SOPE   C2520662   1.898   2.842   7.125  0.4978 -0.8693 -0.1214
  181SOPE   H5R20663   1.822   2.916   7.092  1.4113  0.0670 -0.1991
  181SOPE   H5S20664   1.846   2.750   7.159 -0.7120 -0.1909 -0.0770
  181SOPE   C2620665   1.978   2.906   7.236  0.3417 -0.0436  0.3314
  181SOPE   H6R20666   2.034   2.823   7.285  1.4082  1.3962  1.6482
  181SOPE   H6S20667   2.048   2.982   7.193 -0.4905 -0.7753 -2.5034
  181SOPE   C2720668   1.893   2.990   7.339 -0.0406  0.2468 -0.0213
  181SOPE   H7R20669   1.951   3.067   7.395 -0.2227 -0.1008  0.6611
  181SOPE   H7S20670   1.828   3.049   7.270  0.8992  2.6474  1.0060
  181SOPE   C2820671   1.801   2.907   7.433 -0.3940 -1.0532 -0.3628
  181SOPE   H8R20672   1.712   2.965   7.468 -0.6706 -3.0306  2.6047
  181SOPE   H8S20673   1.750   2.833   7.368 -2.9017 -0.6778  1.0315
  181SOPE   C2920674   1.870   2.835   7.537 -0.2204 -0.0504  0.3527
  181SOPE   H9120675   1.871   2.727   7.514 -1.9211 -0.3598  1.5228
  181SOPE  C21020676   1.911   2.880   7.658  1.1689 -0.8336  0.5337
  181SOPE  H10120677   1.979   2.824   7.723  2.9973 -2.2850 -2.3893
  181SOPE  C21120678   1.895   3.025   7.702 -0.0126  0.9791 -0.0302
  181SOPE  H11R20679   1.798   3.068   7.669 -0.2144  0.2095 -0.4654
  181SOPE  H11S20680   1.980   3.090   7.669  0.9442 -1.2160 -2.2468
  181SOPE  C21220681   1.894   3.032   7.861  0.0780 -0.3111  0.1601
  181SOPE  H12R20682   1.914   3.139   7.884  1.4033 -0.5098  0.0165
  181SOPE  H12S20683   1.982   2.978   7.901  0.1177 -1.5868 -1.5579
  181SOPE  C21320684   1.764   2.992   7.928  0.0832 -0.2292  1.0740
  181SOPE  H13R20685   1.722   2.901   7.879 -1.5477  0.7439  0.5821
  181SOPE  H13S20686   1.679   3.059   7.904 -0.6612 -1.2130  0.8739
  181SOPE  C21420687   1.750   2.969   8.088 -0.5516  0.4824 -0.0051
  181SOPE  H14R20688   1.832   2.896   8.108  0.4781  1.2977 -1.0660
  181SOPE  H14S20689   1.654   2.920   8.112 -0.2486 -0.2663 -0.3152
  181SOPE  C21520690   1.768   3.105   8.157 -0.1979 -0.4213 -0.0737
  181SOPE  H15R20691   1.685   3.168   8.117 -1.4374 -2.1463 -0.3399
  181SOPE  H15S20692   1.866   3.148   8.129 -0.2511 -0.9323 -1.0755
  181SOPE  C21620693   1.763   3.083   8.315  0.0899  0.2408 -0.0898
  181SOPE  H16R20694   1.668   3.033   8.342  0.5563 -0.6670 -0.0921
  181SOPE  H16S20695   1.771   3.183   8.363 -0.1745  0.5603 -0.6973
  181SOPE  C21720696   1.865   2.981   8.368 -0.1480 -0.1091  0.1261
  181SOPE  H17R20697   1.855   2.884   8.315  2.6662  0.0424 -0.8609
  181SOPE  H17S20698   1.846   2.968   8.477 -0.5461  2.0639  0.3465
  181SOPE  C21820699   2.011   3.003   8.345 -0.9401 -0.2746 -0.0942
  181SOPE  H18R20700   2.043   3.108   8.368  1.2291 -0.6196 -1.2718
  181SOPE  H18S20701   2.030   2.988   8.237 -1.7461  0.0327 -0.2846
  181SOPE  H18T20702   2.069   2.928   8.402 -2.8352 -2.3156 -0.7512
  181SOPE   C3320703   1.776   2.335   6.990  0.1714  0.0618  0.3474
  181SOPE   H3X20704   1.841   2.425   6.995  0.8208 -0.3410 -0.5065
  181SOPE   H3Y20705   1.839   2.246   7.014 -0.0296 -0.5696 -1.3330
  181SOPE   C3420706   1.662   2.353   7.097  0.7121 -0.1325  0.5622
  181SOPE   H4X20707   1.579   2.282   7.081 -0.1573  1.1193 -0.6465
  181SOPE   H4Y20708   1.608   2.447   7.075 -0.3232 -1.1239 -1.4034
  181SOPE   C3520709   1.725   2.345   7.235  0.0888 -0.6950  0.1856
  181SOPE   H5X20710   1.765   2.445   7.260  0.0384 -0.0463 -2.1679
  181SOPE   H5Y20711   1.813   2.278   7.248 -1.0148 -2.0868  0.8682
  181SOPE   C3620712   1.629   2.311   7.348  0.4403  0.4399 -0.3882
  181SOPE   H6X20713   1.605   2.203   7.352  2.0804  0.0969  1.8615
  181SOPE   H6Y20714   1.538   2.374   7.341 -0.5142 -0.7938  0.5722
  181SOPE   C3720715   1.691   2.342   7.491 -0.2194 -0.0131  0.1545
  181SOPE   H7X20716   1.696   2.450   7.515 -2.6545  0.7178 -2.1431
  181SOPE   H7Y20717   1.797   2.310   7.503  0.9632  3.5650  0.5321
  181SOPE   C3820718   1.609   2.280   7.605 -0.0570 -0.0293 -0.3977
  181SOPE   H8X20719   1.623   2.170   7.599  0.9273  0.0656  0.0405
  181SOPE   H8Y20720   1.503   2.300   7.577  0.1545  1.0278 -0.4897
  181SOPE   C3920721   1.639   2.345   7.741 -0.3006 -0.0923 -0.3462
  181SOPE   H9X20722   1.620   2.455   7.745  0.9076  0.1206 -0.0866
  181SOPE   H9Y20723   1.747   2.347   7.764 -0.5195  1.3936  0.7092
  181SOPE  C31020724   1.550   2.278   7.845 -0.5620  0.2711  0.5854
  181SOPE  H10X20725   1.561   2.168   7.834  0.6534  0.1718  2.4066
  181SOPE  H10Y20726   1.443   2.299   7.823 -0.0779  0.8482 -1.4400
  181SOPE  C31120727   1.586   2.336   7.976  0.2469  0.0548 -0.7029
  181SOPE  H11X20728   1.555   2.441   7.996 -0.7401 -0.8524  3.6660
  181SOPE  H11Y20729   1.697   2.336   7.976  0.2783  1.7543 -0.8308
  181SOPE  C31220730   1.530   2.257   8.095  0.2354 -0.1126  0.1840
  181SOPE  H12X20731   1.561   2.151   8.089 -0.7838 -0.4246  0.2348
  181SOPE  H12Y20732   1.419   2.267   8.093  0.3231  1.1116  0.4180
  181SOPE  C31320733   1.586   2.301   8.237 -0.2347 -0.1122  0.6932
  181SOPE  H13X20734   1.532   2.237   8.310 -0.7196  0.7761  1.1327
  181SOPE  H13Y20735   1.555   2.407   8.250 -2.2134 -0.5772  0.1352
  181SOPE  C31420736   1.733   2.285   8.244  0.7975 -0.0998  0.1439
  181SOPE  H14X20737   1.780   2.356   8.172 -0.3915  1.0897  0.5114
  181SOPE  H14Y20738   1.755   2.188   8.193 -1.1352  0.0820 -1.1617
  181SOPE  C31520739   1.792   2.282   8.386 -0.8870 -0.3628 -0.0941
  181SOPE  H15X20740   1.748   2.196   8.442 -0.3240 -1.8116 -1.7742
  181SOPE  H15Y20741   1.776   2.377   8.440  1.1514  0.2854 -0.5306
  181SOPE  C31620742   1.945   2.253   8.373 -0.0224  0.2654  0.3154
  181SOPE  H16X20743   1.981   2.322   8.294 -0.2582 -1.8049 -1.6726
  181SOPE  H16Y20744   1.972   2.151   8.340  1.2953  1.2985 -2.0058
  181SOPE  C31720745   2.020   2.283   8.504  0.2491 -0.6312 -0.2705
  181SOPE  H17X20746   1.971   2.229   8.588  1.7053 -0.4707  0.7326
  181SOPE  H17Y20747   2.019   2.386   8.546  0.3921 -0.9935  0.6419
  181SOPE  C31820748   2.167   2.250   8.497 -0.0253  0.0947 -0.1669
  181SOPE  H18X20749   2.203   2.241   8.601 -0.1206  0.8611 -0.0638
  181SOPE  H18Y20750   2.221   2.336   8.453 -2.5875  1.8415 -0.0923
  181SOPE  H18Z20751   2.180   2.151   8.448  0.5429 -0.9217  1.9438
  182SOPE     N20752   1.270   4.461   5.997 -0.2111 -0.1708 -0.2496
  182SOPE   HN120753   1.339   4.536   6.013 -0.8153  0.3832 -0.1944
  182SOPE   HN220754   1.273   4.388   6.072 -2.2335  0.5230  0.5866
  182SOPE   HN320755   1.303   4.409   5.913 -1.0682 -1.2625  0.0559
  182SOPE   C1220756   1.131   4.521   5.980  0.2134 -0.8962 -0.6318
  182SOPE  H12A20757   1.117   4.598   5.901 -6.1631  1.0162  1.7516
  182SOPE  H12B20758   1.092   4.567   6.073  2.0609  0.5855 -0.5329
  182SOPE   C1120759   1.023   4.411   5.947 -0.1096 -0.2822  0.1462
  182SOPE  H11A20760   1.055   4.362   5.853  1.9771  2.8269 -0.8907
  182SOPE  H11B20761   0.924   4.459   5.930  0.3805  0.3253 -1.0648
  182SOPE     P20762   0.917   4.324   6.176 -0.2783  0.4229  0.2388
  182SOPE   O1320763   0.943   4.200   6.251  0.7100 -0.3184 -0.3908
  182SOPE   O1420764   0.773   4.340   6.135  0.1793  0.1108 -0.2627
  182SOPE   O1220765   1.006   4.318   6.053 -0.3506 -0.3093  0.2150
  182SOPE   O1120766   0.971   4.452   6.250 -0.2040  0.0084  0.0555
  182SOPE    C120767   1.078   4.449   6.343  0.1938 -0.0975  0.0406
  182SOPE    HA20768   1.106   4.556   6.356  1.8581 -0.3468 -1.1143
  182SOPE    HB20769   1.167   4.391   6.309  0.7730 -0.2649  1.7337
  182SOPE    C220770   1.054   4.405   6.488  0.2583 -0.2355 -0.0926
  182SOPE    HS20771   1.033   4.296   6.475 -0.5841 -0.2170  0.9653
  182SOPE   O2120772   0.943   4.480   6.542 -0.0977 -0.3837  0.3794
  182SOPE   C2120773   0.865   4.414   6.626 -0.0875  0.6282 -0.3767
  182SOPE   O2220774   0.871   4.294   6.646 -0.5102  0.1269 -0.0563
  182SOPE   C2220775   0.774   4.514   6.706 -0.2936  0.0805 -0.1718
  182SOPE   H2R20776   0.696   4.551   6.635 -1.0671  0.8879  1.0686
  182SOPE   H2S20777   0.834   4.602   6.736 -1.7509  1.6562 -1.6040
  182SOPE    C320778   1.181   4.417   6.579 -0.1363 -0.4632 -0.0269
  182SOPE    HX20779   1.249   4.497   6.542 -1.5307  2.3346  2.9176
  182SOPE    HY20780   1.241   4.329   6.548 -1.9222 -1.2546 -1.4330
  182SOPE   O3120781   1.159   4.420   6.725  0.7303 -0.5260  0.2069
  182SOPE   C3120782   1.167   4.531   6.785  1.2359  0.4277 -0.5908
  182SOPE   O3220783   1.193   4.639   6.738 -0.1660 -0.2210 -0.0796
  182SOPE   C3220784   1.145   4.518   6.933  0.5005 -0.5697 -0.1906
  182SOPE   H2X20785   1.191   4.423   6.968  0.1306 -1.2025 -1.4017
  182SOPE   H2Y20786   1.037   4.495   6.942  0.7008 -2.0559 -1.2365
  182SOPE   C2320787   0.714   4.443   6.829  0.1584 -0.3960 -0.8786
  182SOPE   H3R20788   0.792   4.401   6.896 -0.6520  0.4400  0.6397
  182SOPE   H3S20789   0.647   4.359   6.798 -0.1314 -0.4279 -0.1845
  182SOPE   C2420790   0.634   4.535   6.927  0.3844  0.9339 -0.3885
  182SOPE   H4R20791   0.551   4.591   6.880 -0.6533 -0.0860  0.1713
  182SOPE   H4S20792   0.569   4.482   7.000 -0.6996  3.3553  0.4979
  182SOPE   C2520793   0.727   4.621   7.016  0.0462 -0.2744  0.3472
  182SOPE   H5R20794   0.829   4.577   7.017  0.0538 -0.2840 -0.4637
  182SOPE   H5S20795   0.739   4.720   6.967 -1.4200 -0.2972 -0.1107
  182SOPE   C2620796   0.684   4.628   7.164  0.3624  0.5226 -0.1227
  182SOPE   H6R20797   0.735   4.716   7.209 -0.8325  1.5293 -0.6889
  182SOPE   H6S20798   0.576   4.650   7.175  1.2560  5.5867  0.8252
  182SOPE   C2720799   0.715   4.501   7.248 -0.3080  0.1411 -0.6363
  182SOPE   H7R20800   0.665   4.421   7.191 -0.0093 -0.2296 -0.3808
  182SOPE   H7S20801   0.823   4.479   7.252  0.3572  2.9933 -0.9263
  182SOPE   C2820802   0.651   4.518   7.385  0.3817  0.8771 -0.2229
  182SOPE   H8R20803   0.691   4.612   7.426  1.0852  0.4619  0.0533
  182SOPE   H8S20804   0.543   4.532   7.364  0.3445  2.0084  0.6350
  182SOPE   C2920805   0.668   4.393   7.475  0.1953  0.8629  1.2247
  182SOPE   H9120806   0.656   4.301   7.416 -1.1721  1.4878  0.4653
  182SOPE  C21020807   0.674   4.391   7.611  0.7815  0.6303  0.6027
  182SOPE  H10120808   0.688   4.288   7.647  0.7945  1.0783  1.9537
  182SOPE  C21120809   0.670   4.497   7.714 -0.6665  0.4856  0.4177
  182SOPE  H11R20810   0.586   4.570   7.704 -0.2298  0.7506 -1.9905
  182SOPE  H11S20811   0.755   4.566   7.698  0.3087 -0.7550  0.1557
  182SOPE  C21220812   0.671   4.444   7.859  1.0408 -0.1367 -0.0855
  182SOPE  H12R20813   0.685   4.525   7.933  3.6867 -1.1607  0.6533
  182SOPE  H12S20814   0.746   4.364   7.876 -0.9987 -2.7295 -2.2870
  182SOPE  C21320815   0.535   4.376   7.900 -0.1385 -0.0666 -0.2521
  182SOPE  H13R20816   0.510   4.284   7.842  0.7900  0.8271 -2.1329
  182SOPE  H13S20817   0.463   4.458   7.878  0.4589  0.4308 -0.3718
  182SOPE  C21420818   0.531   4.349   8.046  0.0478  0.3317  0.3597
  182SOPE  H14R20819   0.429   4.378   8.080 -0.6561 -0.4986 -0.9519
  182SOPE  H14S20820   0.610   4.408   8.098  0.1583  0.1985  0.3429
  182SOPE  C21520821   0.548   4.194   8.071  0.1331 -0.4440 -0.7689
  182SOPE  H15R20822   0.645   4.169   8.022 -0.1019  0.7435 -1.8983
  182SOPE  H15S20823   0.474   4.115   8.044  0.4042 -1.5796  1.5775
  182SOPE  C21620824   0.573   4.173   8.220 -0.8546  0.2096  0.5337
  182SOPE  H16R20825   0.650   4.244   8.258 -0.8347 -0.0088  0.9033
  182SOPE  H16S20826   0.617   4.073   8.236  1.0213  0.5670 -1.8446
  182SOPE  C21720827   0.452   4.194   8.318 -0.3642  0.1193  0.0379
  182SOPE  H17R20828   0.403   4.096   8.303 -1.5183  0.3942  1.7929
  182SOPE  H17S20829   0.384   4.267   8.269  1.8134  1.9991 -0.4220
  182SOPE  C21820830   0.489   4.213   8.465  0.4181 -0.5508 -0.5816
  182SOPE  H18R20831   0.538   4.117   8.491  1.8019 -0.2626 -1.9710
  182SOPE  H18S20832   0.398   4.227   8.527 -0.1290  0.2224 -1.5240
  182SOPE  H18T20833   0.565   4.293   8.481  0.5917 -0.6375 -0.9495
  182SOPE   C3320834   1.187   4.646   7.013  0.1520  0.1611  0.1587
  182SOPE   H3X20835   1.130   4.733   6.975  0.8822  1.3282  1.5903
  182SOPE   H3Y20836   1.296   4.671   7.012 -0.1209  1.4246  0.5720
  182SOPE   C3420837   1.160   4.646   7.164  0.0960  0.3031 -0.8125
  182SOPE   H4X20838   1.053   4.619   7.177  0.6577 -1.7683 -0.0622
  182SOPE   H4Y20839   1.164   4.750   7.202  0.2788 -0.5136  1.5312
  182SOPE   C3520840   1.242   4.538   7.242  0.1247  0.2468  0.5139
  182SOPE   H5X20841   1.343   4.536   7.195 -0.5926 -1.5518 -1.0643
  182SOPE   H5Y20842   1.190   4.442   7.226 -2.0841  1.4047  0.4048
  182SOPE   C3620843   1.247   4.559   7.393  0.1252  0.1919 -0.2898
  182SOPE   H6X20844   1.147   4.541   7.437  0.8049 -1.9326  0.5072
  182SOPE   H6Y20845   1.275   4.664   7.417 -0.1497  0.2262 -0.1157
  182SOPE   C3720846   1.341   4.453   7.466 -0.4347  0.1920  0.7924
  182SOPE   H7X20847   1.429   4.455   7.398 -1.9332  0.9419 -1.2401
  182SOPE   H7Y20848   1.292   4.354   7.456  2.5385 -1.1619 -4.2966
  182SOPE   C3820849   1.382   4.485   7.604  0.0437  0.5588  0.0354
  182SOPE   H8X20850   1.296   4.506   7.670  0.2159  0.2687  0.3584
  182SOPE   H8Y20851   1.440   4.579   7.606  0.6536  0.1955 -0.1445
  182SOPE   C3920852   1.465   4.373   7.667 -0.0429  0.0753  0.1851
  182SOPE   H9X20853   1.552   4.356   7.601  1.5475  0.6655  2.0207
  182SOPE   H9Y20854   1.414   4.275   7.655 -2.8796  1.5934 -1.0804
  182SOPE  C31020855   1.520   4.392   7.808  0.4519 -0.2327  0.0867
  182SOPE  H10X20856   1.549   4.495   7.835  1.3254 -0.3619 -0.3087
  182SOPE  H10Y20857   1.609   4.327   7.822  0.6692 -0.0220 -0.3037
  182SOPE  C31120858   1.417   4.355   7.917  0.3042 -0.0884  0.3194
  182SOPE  H11X20859   1.403   4.244   7.910 -0.0091 -0.1190  1.3049
  182SOPE  H11Y20860   1.315   4.396   7.901  0.0018 -0.4607  1.2423
  182SOPE  C31220861   1.467   4.397   8.062  0.3085 -0.0575 -0.1558
  182SOPE  H12X20862   1.382   4.379   8.131  0.1136 -0.0392 -0.3925
  182SOPE  H12Y20863   1.483   4.507   8.061  1.0238 -0.1209 -2.7467
  182SOPE  C31320864   1.585   4.316   8.113 -0.3431 -0.1736  0.0383
  182SOPE  H13X20865   1.671   4.358   8.057  0.3729 -3.1922 -1.3406
  182SOPE  H13Y20866   1.580   4.209   8.085 -1.4985  0.6821 -3.5184
  182SOPE  C31420867   1.620   4.341   8.262  0.1064  0.0226 -0.1979
  182SOPE  H14X20868   1.536   4.332   8.334 -0.5885 -0.7279 -1.0676
  182SOPE  H14Y20869   1.660   4.444   8.267 -0.3108  0.1531  0.5197
  182SOPE  C31520870   1.712   4.226   8.318 -0.2006  0.2470  0.0995
  182SOPE  H15X20871   1.810   4.223   8.265 -0.1416 -0.2518  0.2328
  182SOPE  H15Y20872   1.666   4.124   8.314  0.4283 -0.1376  1.9879
  182SOPE  C31620873   1.728   4.238   8.469  0.1798  0.1880  0.6269
  182SOPE  H16X20874   1.738   4.342   8.509 -1.0919 -0.9170  4.1988
  182SOPE  H16Y20875   1.815   4.176   8.498 -2.3720 -2.9243  2.2289
  182SOPE  C31720876   1.612   4.171   8.538  0.5559 -0.4892 -0.4087
  182SOPE  H17X20877   1.593   4.070   8.495  1.2422  0.1791 -2.3863
  182SOPE  H17Y20878   1.524   4.239   8.536  1.4302  0.7068  0.7521
  182SOPE  C31820879   1.651   4.152   8.685 -0.1954  0.3698 -0.5907
  182SOPE  H18X20880   1.663   4.246   8.743  1.0488 -0.8566  1.2820
  182SOPE  H18Y20881   1.752   4.106   8.690 -0.0570  0.1731 -3.4821
  182SOPE  H18Z20882   1.574   4.094   8.741 -0.2197  1.3749  0.4432
  183SOPE     N20883   4.569   3.840   6.101  0.3538 -0.2141 -0.0875
  183SOPE   HN120884   4.539   3.932   6.062  3.0016  1.3576  1.2330
  183SOPE   HN220885   4.530   3.835   6.197  0.0482  0.2215 -0.1821
  183SOPE   HN320886   4.669   3.855   6.127 -0.3498 -0.6068  3.2604
  183SOPE   C1220887   4.563   3.724   6.010  0.7308  0.2205  0.3802
  183SOPE  H12A20888   4.653   3.662   6.027 -0.6493 -2.5364 -1.6744
  183SOPE  H12B20889   4.577   3.757   5.905  1.8090 -1.0540  0.1120
  183SOPE   C1120890   4.443   3.630   6.042 -0.4488 -0.5836 -0.0390
  183SOPE  H11A20891   4.465   3.551   5.968  0.9702  0.3041 -0.6080
  183SOPE  H11B20892   4.345   3.679   6.023  0.3240  0.1092 -2.5461
  183SOPE     P20893   4.532   3.456   6.221  0.2824 -0.0328 -0.2076
  183SOPE   O1320894   4.674   3.489   6.244  0.1060  0.3011  0.1615
  183SOPE   O1420895   4.500   3.344   6.123  0.5086  0.2972 -0.0539
  183SOPE   O1220896   4.452   3.586   6.178  0.0317 -0.2434 -0.1472
  183SOPE   O1120897   4.458   3.421   6.359 -0.4296  0.1304  0.1927
  183SOPE    C120898   4.363   3.511   6.422 -0.3971  0.1090  0.0150
  183SOPE    HA20899   4.307   3.454   6.499 -0.3789 -0.1989 -0.1977
  183SOPE    HB20900   4.299   3.549   6.340 -0.4150  0.3420  0.1355
  183SOPE    C220901   4.431   3.636   6.496  0.6463  0.0788  0.2063
  183SOPE    HS20902   4.504   3.687   6.429 -0.2788 -0.2960 -1.1181
  183SOPE   O2120903   4.499   3.575   6.610  0.1648  0.8007 -0.7450
  183SOPE   C2120904   4.585   3.646   6.673  0.4839  0.1849  0.3740
  183SOPE   O2220905   4.617   3.762   6.641 -0.1684 -0.4902 -0.2367
  183SOPE   C2220906   4.639   3.572   6.797 -0.6440  0.1961  0.4426
  183SOPE   H2R20907   4.666   3.657   6.862  1.3221  1.1461 -1.4699
  183SOPE   H2S20908   4.734   3.527   6.759 -0.7678  1.2870 -1.2731
  183SOPE    C320909   4.332   3.749   6.536  0.2414 -0.8185 -0.0977
  183SOPE    HX20910   4.305   3.805   6.444 -0.4601  1.2737  1.3092
  183SOPE    HY20911   4.375   3.832   6.596 -0.6966  0.4726 -1.1412
  183SOPE   O3120912   4.218   3.703   6.609 -0.4031  0.4071 -0.3830
  183SOPE   C3120913   4.100   3.692   6.536  0.1489 -0.2408 -0.3704
  183SOPE   O3220914   4.089   3.718   6.418 -0.1625  0.0173 -0.0996
  183SOPE   C3220915   3.991   3.644   6.621 -0.6710  0.6625 -0.2643
  183SOPE   H2X20916   4.025   3.587   6.710  0.5385  2.1250  0.2462
  183SOPE   H2Y20917   3.936   3.580   6.548 -0.8598  0.9379 -0.3656
  183SOPE   C2320918   4.551   3.459   6.857  0.1355  0.0406  0.3487
  183SOPE   H3R20919   4.514   3.387   6.781 -0.1250 -1.2677  1.6871
  183SOPE   H3S20920   4.468   3.511   6.909  0.0883 -1.4472  1.8014
  183SOPE   C2420921   4.633   3.377   6.957  1.0024 -0.1757  0.5460
  183SOPE   H4R20922   4.577   3.288   6.990 -2.1563 -0.3255 -4.2346
  183SOPE   H4S20923   4.718   3.339   6.896  1.8416  1.1396  0.8391
  183SOPE   C2520924   4.691   3.466   7.070  0.2049  0.3526 -0.2422
  183SOPE   H5R20925   4.760   3.536   7.019 -1.5236  0.7495 -2.1514
  183SOPE   H5S20926   4.602   3.524   7.102  0.3948 -0.3467  1.7135
  183SOPE   C2620927   4.746   3.382   7.176 -0.1311  0.2150  0.2571
  183SOPE   H6R20928   4.698   3.282   7.177  0.3897 -0.0653  2.4968
  183SOPE   H6S20929   4.856   3.365   7.168 -0.0308  1.1808 -0.6410
  183SOPE   C2720930   4.738   3.459   7.312  0.1394 -0.7627 -0.0584
  183SOPE   H7R20931   4.816   3.538   7.310  0.2471 -0.8148 -2.8184
  183SOPE   H7S20932   4.640   3.510   7.322  0.7831  0.8273 -1.4267
  183SOPE   C2820933   4.780   3.374   7.435  0.7708 -0.2831  0.0179
  183SOPE   H8R20934   4.884   3.346   7.406  0.0025 -1.5769 -1.6315
  183SOPE   H8S20935   4.789   3.441   7.524  2.0000  0.1053 -0.3835
  183SOPE   C2920936   4.685   3.258   7.451  0.1045 -0.2789  0.2626
  183SOPE   H9120937   4.679   3.198   7.359 -0.7723 -0.5025  0.4579
  183SOPE  C21020938   4.592   3.246   7.550  0.0327  0.3188 -0.6038
  183SOPE  H10120939   4.534   3.153   7.564  1.2012 -0.2809  0.3795
  183SOPE  C21120940   4.577   3.330   7.675  0.2319  0.7988 -0.5221
  183SOPE  H11R20941   4.486   3.394   7.671 -1.4469 -1.4951 -2.5336
  183SOPE  H11S20942   4.657   3.407   7.685 -1.2017  2.2740  0.1225
  183SOPE  C21220943   4.597   3.244   7.799  0.4073  0.6829  0.0763
  183SOPE  H12R20944   4.586   3.307   7.890 -3.2667  2.6179 -1.4636
  183SOPE  H12S20945   4.699   3.201   7.805 -0.2768 -1.4404 -2.0628
  183SOPE  C21320946   4.487   3.137   7.833  0.2386 -0.4868  0.1970
  183SOPE  H13R20947   4.468   3.083   7.737 -1.9198 -1.6695  1.2195
  183SOPE  H13S20948   4.396   3.195   7.859 -0.7269 -3.1976  3.6976
  183SOPE  C21420949   4.524   3.040   7.941 -0.2782  0.0026 -0.5736
  183SOPE  H14R20950   4.564   3.099   8.026  0.8103 -1.3354 -0.1264
  183SOPE  H14S20951   4.604   2.979   7.896 -0.1738 -0.3300  0.0544
  183SOPE  C21520952   4.405   2.961   7.994  0.3065  0.4216  0.9723
  183SOPE  H15R20953   4.373   2.915   7.898  1.9310  1.4702 -0.1433
  183SOPE  H15S20954   4.332   3.038   8.025  1.3931  1.9724 -0.1339
  183SOPE  C21620955   4.446   2.863   8.109  0.4023 -0.5703  0.8020
  183SOPE  H16R20956   4.516   2.782   8.077 -1.0501 -1.0939 -1.2554
  183SOPE  H16S20957   4.346   2.824   8.135 -0.3212  1.2649  0.8939
  183SOPE  C21720958   4.496   2.940   8.233 -0.5146 -0.1814 -0.2356
  183SOPE  H17R20959   4.415   3.007   8.268 -0.4316  0.6063 -1.5070
  183SOPE  H17S20960   4.585   3.002   8.210 -0.9382  0.2076 -0.8367
  183SOPE  C21820961   4.542   2.841   8.345  0.1346  0.7063  0.1277
  183SOPE  H18R20962   4.542   2.879   8.449  1.6681  0.0410  0.4079
  183SOPE  H18S20963   4.645   2.806   8.322  1.3653  2.2949  2.7438
  183SOPE  H18T20964   4.470   2.756   8.342  0.0045  0.8559 -1.9883
  183SOPE   C3320965   3.894   3.755   6.671 -0.2251 -0.2657 -0.1060
  183SOPE   H3X20966   3.814   3.697   6.720 -0.5385  0.3637  0.1442
  183SOPE   H3Y20967   3.841   3.812   6.592 -1.7470  0.4828  1.3930
  183SOPE   C3420968   3.948   3.855   6.776 -0.1742  0.1263 -0.3180
  183SOPE   H4X20969   3.873   3.935   6.791 -0.6648 -0.6093  1.4049
  183SOPE   H4Y20970   4.040   3.901   6.731 -0.1130  0.1757 -0.1440
  183SOPE   C3520971   3.994   3.790   6.910 -0.3969 -0.0842  0.5935
  183SOPE   H5X20972   4.067   3.706   6.904 -0.9848 -0.5029 -1.6319
  183SOPE   H5Y20973   3.903   3.731   6.933 -1.5165  1.4432  0.2212
  183SOPE   C3620974   4.031   3.902   7.018  0.6711  0.6461 -1.4202
  183SOPE   H6X20975   3.964   3.990   7.005 -0.1112  0.1466 -0.8261
  183SOPE   H6Y20976   4.133   3.935   6.991  2.1866 -1.0888  1.6023
  183SOPE   C3720977   4.019   3.851   7.165  0.2070  0.2102 -0.2100
  183SOPE   H7X20978   4.088   3.764   7.168  0.7851  0.6156 -1.1409
  183SOPE   H7Y20979   3.913   3.824   7.187 -0.1396  0.8626 -1.0275
  183SOPE   C3820980   4.060   3.953   7.268 -0.0331  0.3478 -0.0168
  183SOPE   H8X20981   3.991   4.038   7.285 -1.8537 -0.9260 -0.8104
  183SOPE   H8Y20982   4.153   3.994   7.222 -0.4160  0.3997 -0.7614
  183SOPE   C3920983   4.081   3.888   7.406  0.0753  0.5992 -0.0716
  183SOPE   H9X20984   4.166   3.817   7.395  0.7836  0.9576  2.5670
  183SOPE   H9Y20985   3.988   3.833   7.431  0.5572 -0.0954  0.2177
  183SOPE  C31020986   4.115   3.997   7.508  0.0785  0.0891 -0.1889
  183SOPE  H10X20987   4.032   4.070   7.494 -1.4844 -1.1609  1.9695
  183SOPE  H10Y20988   4.208   4.054   7.489 -0.7221  1.3113 -0.5911
  183SOPE  C31120989   4.111   3.960   7.655 -0.3298 -0.2714 -0.6652
  183SOPE  H11X20990   4.103   4.059   7.705  0.8278 -0.9794  0.9865
  183SOPE  H11Y20991   4.212   3.919   7.677  0.2654  0.9284 -1.0541
  183SOPE  C31220992   3.993   3.873   7.699  0.6382 -0.2419 -0.3803
  183SOPE  H12X20993   4.010   3.770   7.661 -0.0342  0.2528 -2.1800
  183SOPE  H12Y20994   3.906   3.910   7.639  0.5172  2.4201  1.2779
  183SOPE  C31320995   3.963   3.862   7.853 -0.2723  0.0663  0.5618
  183SOPE  H13X20996   4.061   3.845   7.902  0.7318 -0.8821 -1.6340
  183SOPE  H13Y20997   3.895   3.778   7.880 -1.2884  0.7992  0.3214
  183SOPE  C31420998   3.886   3.976   7.911 -0.8899 -0.2362 -0.1719
  183SOPE  H14X20999   3.783   3.965   7.870 -1.6967  0.2569  1.6061
  183SOPE  H14Y21000   3.927   4.068   7.864  2.4303 -0.5907  1.7132
  183SOPE  C31521001   3.886   3.976   8.070 -0.1999  0.0908  0.1993
  183SOPE  H15X21002   3.986   4.012   8.105 -0.2971  0.0962  0.4728
  183SOPE  H15Y21003   3.896   3.868   8.095  1.6250  0.0699 -0.4248
  183SOPE  C31621004   3.775   4.055   8.133 -0.6364  0.3170  0.4453
  183SOPE  H16X21005   3.680   3.999   8.127 -1.6328  2.0221 -0.5694
  183SOPE  H16Y21006   3.775   4.139   8.060 -0.2147  0.0649  0.1490
  183SOPE  C31721007   3.807   4.085   8.283 -0.7274 -0.1567  0.1073
  183SOPE  H17X21008   3.875   4.173   8.292  0.7966 -0.8793 -2.8943
  183SOPE  H17Y21009   3.856   3.997   8.330 -0.1958  0.1716  0.1747
  183SOPE  C31821010   3.690   4.107   8.378 -0.5364 -1.1024  0.1689
  183SOPE  H18X21011   3.641   4.206   8.384 -1.3646 -1.5865  2.1989
  183SOPE  H18Y21012   3.728   4.075   8.477  1.1206 -0.1231 -0.1202
  183SOPE  H18Z21013   3.614   4.026   8.371  0.9592 -2.4592 -1.8658
  184SOPE     N21014   3.731   3.242   5.914 -0.2181  0.1187  1.1088
  184SOPE   HN121015   3.764   3.235   5.815 -0.9864 -1.1409  0.9177
  184SOPE   HN221016   3.747   3.146   5.952 -1.6082 -0.4816  0.2548
  184SOPE   HN321017   3.629   3.262   5.909 -0.0321  0.8683 -0.3468
  184SOPE   C1221018   3.815   3.341   5.983 -0.3224  0.5676  0.0800
  184SOPE  H12A21019   3.795   3.440   5.937 -1.3031  1.0527  1.5076
  184SOPE  H12B21020   3.923   3.321   5.965 -0.4116  0.4362 -0.3289
  184SOPE   C1121021   3.785   3.342   6.134 -0.4677 -0.1733  0.0983
  184SOPE  H11A21022   3.858   3.405   6.190 -0.5872 -0.0062  0.0660
  184SOPE  H11B21023   3.795   3.237   6.169 -0.4365 -0.1051  0.2949
  184SOPE     P21024   3.597   3.521   6.198 -0.5249 -0.2855  0.1412
  184SOPE   O1321025   3.474   3.548   6.122  0.2901  0.3121 -0.6271
  184SOPE   O1421026   3.703   3.622   6.189 -0.6152  0.0662 -0.3327
  184SOPE   O1221027   3.650   3.377   6.146  0.3285  0.2520 -0.5021
  184SOPE   O1121028   3.575   3.492   6.355  0.4717 -0.3559  0.3302
  184SOPE    C121029   3.690   3.453   6.427 -0.6927  0.3984 -0.6860
  184SOPE    HA21030   3.696   3.523   6.513  3.0845  1.7589 -1.8534
  184SOPE    HB21031   3.785   3.478   6.375  0.3388 -1.1386  0.3731
  184SOPE    C221032   3.701   3.312   6.478 -0.0094  1.1639 -0.5527
  184SOPE    HS21033   3.724   3.244   6.393  0.3942  1.5815 -0.7847
  184SOPE   O2121034   3.575   3.273   6.543  0.0195 -0.0081  0.2160
  184SOPE   C2121035   3.569   3.148   6.564  0.1124  0.2026  0.4774
  184SOPE   O2221036   3.657   3.064   6.536  0.2496 -0.2309  0.0827
  184SOPE   C2221037   3.445   3.120   6.653 -0.2625  0.1329 -0.5624
  184SOPE   H2R21038   3.410   3.016   6.636 -1.1396  0.4648 -0.8521
  184SOPE   H2S21039   3.370   3.191   6.613 -0.3183  0.2182 -0.3086
  184SOPE    C321040   3.829   3.294   6.565 -0.4035 -0.3920  0.5563
  184SOPE    HX21041   3.918   3.326   6.507  0.0173 -1.3520  0.6526
  184SOPE    HY21042   3.853   3.189   6.594  0.6540 -0.0157  1.1176
  184SOPE   O3121043   3.825   3.393   6.669 -0.2745 -0.1034  0.2130
  184SOPE   C3121044   3.799   3.345   6.788 -0.1118 -0.3795  0.1724
  184SOPE   O3221045   3.790   3.224   6.823 -0.1312  0.0483  0.3317
  184SOPE   C3221046   3.814   3.469   6.888  0.5072  0.5667  0.2441
  184SOPE   H2X21047   3.743   3.546   6.852  1.8464  1.4765 -0.5817
  184SOPE   H2Y21048   3.916   3.513   6.887  0.0751  1.5923 -0.3084
  184SOPE   C2321049   3.467   3.150   6.807 -0.3992  0.6061  0.5609
  184SOPE   H3R21050   3.363   3.157   6.845  1.2877 -0.7760  6.4251
  184SOPE   H3S21051   3.521   3.242   6.839 -2.6062  1.6227  1.5794
  184SOPE   C2421052   3.528   3.021   6.873  0.1339  0.0864  0.8219
  184SOPE   H4R21053   3.454   2.939   6.862  0.5478 -0.3120  0.9926
  184SOPE   H4S21054   3.620   2.995   6.816  1.0847  1.0127  1.8771
  184SOPE   C2521055   3.568   3.045   7.013 -0.7020  0.1107  0.4784
  184SOPE   H5R21056   3.673   3.014   7.027 -1.2603 -1.1563  2.0689
  184SOPE   H5S21057   3.564   3.152   7.043 -2.5969  0.3451 -0.4579
  184SOPE   C2621058   3.480   2.970   7.118  0.2350 -0.3767  0.2206
  184SOPE   H6R21059   3.376   3.010   7.112  0.8362  1.4974  1.2771
  184SOPE   H6S21060   3.478   2.871   7.068  2.1469 -0.0917 -0.4961
  184SOPE   C2721061   3.538   2.985   7.260 -0.5171  0.0852  0.0325
  184SOPE   H7R21062   3.504   2.897   7.317 -0.5475  0.2604  0.2866
  184SOPE   H7S21063   3.649   2.990   7.265 -0.6074  3.4871  3.6597
  184SOPE   C2821064   3.481   3.111   7.334 -0.6553 -0.1109  0.3475
  184SOPE   H8R21065   3.551   3.133   7.418 -1.0757  2.6796  0.0643
  184SOPE   H8S21066   3.496   3.200   7.269  1.1213 -1.1806 -0.7832
  184SOPE   C2921067   3.342   3.097   7.378 -0.0317  0.0318 -0.0313
  184SOPE   H9121068   3.253   3.129   7.321 -0.8176 -0.7038  0.7692
  184SOPE  C21021069   3.311   3.054   7.502 -0.3183 -0.0585  0.6759
  184SOPE  H10121070   3.204   3.031   7.517 -0.1366 -2.1037 -0.7459
  184SOPE  C21121071   3.406   3.015   7.613 -0.3180  0.0517  0.7606
  184SOPE  H11R21072   3.507   2.989   7.575 -0.4896  0.0512  0.3003
  184SOPE  H11S21073   3.381   2.935   7.686  0.3299  0.4123  1.3935
  184SOPE  C21221074   3.443   3.130   7.707 -0.3129  0.0360  0.2436
  184SOPE  H12R21075   3.347   3.175   7.741 -0.1570 -0.3715  1.2479
  184SOPE  H12S21076   3.500   3.205   7.649 -2.1422  0.0015 -1.7365
  184SOPE  C21321077   3.523   3.076   7.832 -0.1242  0.3084  0.4992
  184SOPE  H13R21078   3.593   2.997   7.796 -1.7588 -0.9176 -0.1425
  184SOPE  H13S21079   3.443   3.026   7.891 -0.8305  0.1464 -0.5661
  184SOPE  C21421080   3.595   3.179   7.911 -0.5086 -0.1069 -0.2900
  184SOPE  H14R21081   3.533   3.270   7.919  0.9459  0.8600  0.4509
  184SOPE  H14S21082   3.695   3.210   7.875 -0.9298  1.4272 -0.1849
  184SOPE  C21521083   3.616   3.128   8.052  0.5884  0.6889  0.0206
  184SOPE  H15R21084   3.697   3.054   8.071  1.6111  2.1596  1.7646
  184SOPE  H15S21085   3.523   3.073   8.077  1.3216 -1.1182 -0.9740
  184SOPE  C21621086   3.625   3.233   8.162 -0.2491  0.2535  0.2714
  184SOPE  H16R21087   3.563   3.318   8.126  0.1407  0.9332  1.2009
  184SOPE  H16S21088   3.730   3.266   8.171  0.4410 -1.3111 -1.3584
  184SOPE  C21721089   3.567   3.179   8.295  0.5324  0.3490  0.8053
  184SOPE  H17R21090   3.624   3.086   8.320  1.6420  0.8086  0.0695
  184SOPE  H17S21091   3.461   3.148   8.285  0.4843  1.3732 -4.0851
  184SOPE  C21821092   3.583   3.291   8.400 -0.3680 -0.1263  0.0899
  184SOPE  H18R21093   3.504   3.363   8.371 -0.4273 -0.3148 -0.2318
  184SOPE  H18S21094   3.683   3.336   8.383 -0.0400 -1.6958 -2.8621
  184SOPE  H18T21095   3.555   3.259   8.502  0.0641  1.7788  0.8343
  184SOPE   C3321096   3.776   3.426   7.032 -0.3923  0.2499 -0.6664
  184SOPE   H3X21097   3.826   3.327   7.041 -1.2421 -0.2837 -1.5980
  184SOPE   H3Y21098   3.665   3.418   7.045 -0.3752  1.0663  0.0481
  184SOPE   C3421099   3.837   3.529   7.128  0.3681 -0.3054 -0.3435
  184SOPE   H4X21100   3.780   3.623   7.117  2.5994  1.1647 -0.0001
  184SOPE   H4Y21101   3.943   3.552   7.105  1.4572 -2.3983  2.0449
  184SOPE   C3521102   3.841   3.489   7.280  0.2553 -0.4635  0.2842
  184SOPE   H5X21103   3.899   3.566   7.336 -0.5991 -1.2644  2.3839
  184SOPE   H5Y21104   3.891   3.390   7.282 -3.9613 -2.9289 -1.6130
  184SOPE   C3621105   3.704   3.468   7.338  0.5281  0.2752  0.1018
  184SOPE   H6X21106   3.654   3.382   7.289 -0.2884  0.7881  0.0330
  184SOPE   H6Y21107   3.642   3.560   7.330  0.5838  0.3414  0.4094
  184SOPE   C3721108   3.723   3.424   7.480 -0.3450 -0.1726 -0.4601
  184SOPE   H7X21109   3.818   3.370   7.505  0.8972  1.8185 -0.6830
  184SOPE   H7Y21110   3.636   3.356   7.492 -1.8555  1.4872 -1.6838
  184SOPE   C3821111   3.696   3.539   7.579  0.2569 -0.3774 -0.5552
  184SOPE   H8X21112   3.590   3.570   7.566 -0.0191 -0.7173  0.7444
  184SOPE   H8Y21113   3.759   3.628   7.556  2.2604 -1.2677  1.1847
  184SOPE   C3921114   3.700   3.508   7.733 -0.3613  0.1468  0.3130
  184SOPE   H9X21115   3.806   3.489   7.758 -0.4271 -2.1969 -0.8394
  184SOPE   H9Y21116   3.649   3.414   7.765 -1.2356 -0.0581 -1.5710
  184SOPE  C31021117   3.649   3.615   7.822  0.1622 -0.4755 -0.4571
  184SOPE  H10X21118   3.562   3.658   7.767 -0.4526 -0.3608  0.5713
  184SOPE  H10Y21119   3.723   3.697   7.831 -0.6234  0.1017  1.0073
  184SOPE  C31121120   3.621   3.578   7.967 -0.7181 -0.5049 -0.4436
  184SOPE  H11X21121   3.713   3.534   8.009 -1.0126  0.5012  1.3426
  184SOPE  H11Y21122   3.537   3.505   7.973 -1.1369  0.0266  0.4127
  184SOPE  C31221123   3.590   3.694   8.061  0.3798 -0.5987  0.7116
  184SOPE  H12X21124   3.540   3.759   7.985  0.4436 -0.8770  0.4273
  184SOPE  H12Y21125   3.680   3.750   8.093  0.4841 -1.2502  1.5727
  184SOPE  C31321126   3.502   3.676   8.177 -0.1804  0.6053  0.5686
  184SOPE  H13X21127   3.552   3.631   8.265  0.0136 -2.8776 -1.1584
  184SOPE  H13Y21128   3.418   3.604   8.162  1.1808 -1.3745  1.9579
  184SOPE  C31421129   3.440   3.813   8.214  0.7791 -0.7252  0.1814
  184SOPE  H14X21130   3.381   3.838   8.123  0.1271 -2.7063  0.0146
  184SOPE  H14Y21131   3.520   3.888   8.229  2.1583 -2.0208 -0.4717
  184SOPE  C31521132   3.339   3.807   8.339 -0.4171  0.3600  0.2806
  184SOPE  H15X21133   3.392   3.785   8.434 -0.6722  1.4377  0.6894
  184SOPE  H15Y21134   3.273   3.722   8.312  1.7316 -1.3602  0.1134
  184SOPE  C31621135   3.270   3.939   8.359 -0.0739 -0.5643 -0.4848
  184SOPE  H16X21136   3.224   3.965   8.261 -0.2225 -1.7420 -0.7464
  184SOPE  H16Y21137   3.354   4.010   8.377  0.4050 -1.4422  0.8426
  184SOPE  C31721138   3.179   3.945   8.479 -0.3493  0.9840 -0.2883
  184SOPE  H17X21139   3.232   3.927   8.575  2.8792  0.8438 -1.9559
  184SOPE  H17Y21140   3.093   3.874   8.479  1.8462 -1.9238  2.2071
  184SOPE  C31821141   3.119   4.085   8.488  1.1401 -0.6760  0.2282
  184SOPE  H18X21142   3.192   4.168   8.484 -0.1350  0.4566 -0.3837
  184SOPE  H18Y21143   3.054   4.094   8.578  0.6514 -0.3018 -0.1591
  184SOPE  H18Z21144   3.058   4.105   8.398  0.4760 -1.9770  0.3683
  185SAPI   C1221145   0.495   4.236  11.048 -1.2141  0.0118 -0.0573
  185SAPI    H221146   0.573   4.290  10.990 -1.3763  1.1552  0.7580
  185SAPI    O221147   0.413   4.171  10.946 -0.1809 -0.1666  0.5547
  185SAPI   HO221148   0.360   4.246  10.916 -0.2902  0.7742  2.8748
  185SAPI   C1321149   0.562   4.137  11.153 -0.3150  0.3035  0.5129
  185SAPI    H321150   0.618   4.194  11.231  1.7609 -0.3968 -0.3816
  185SAPI    O321151   0.655   4.053  11.080  0.7740  0.3243 -0.0405
  185SAPI   HO321152   0.594   4.000  11.028  0.9906 -0.9364  0.9387
  185SAPI   C1421153   0.458   4.064  11.225  0.7889 -0.2189  0.0967
  185SAPI    H421154   0.389   4.019  11.150 -0.5765  2.2317 -0.2168
  185SAPI    O421155   0.503   3.969  11.319  0.6021  0.0782 -0.3604
  185SAPI   HO421156   0.578   3.928  11.274 -0.7894 -0.2575 -2.5420
  185SAPI   C1521157   0.369   4.165  11.297 -0.8327 -0.0041 -0.3603
  185SAPI    H521158   0.430   4.216  11.374 -1.5879 -1.0859  0.9817
  185SAPI    O521159   0.268   4.090  11.372  0.6645 -0.3702  0.1841
  185SAPI   HO521160   0.306   4.002  11.382 -0.8693 -1.2218 -1.0357
  185SAPI   C1621161   0.313   4.271  11.207  0.2843 -0.3888 -0.5711
  185SAPI    H621162   0.240   4.230  11.134  0.3091 -1.2764 -0.1071
  185SAPI    O621163   0.241   4.370  11.292 -0.4904  0.2492 -0.2264
  185SAPI   HO621164   0.152   4.390  11.263 -0.9127  0.3828  1.0882
  185SAPI   C1121165   0.426   4.342  11.130  0.3180 -0.2689  0.8265
  185SAPI    H121166   0.494   4.385  11.207  0.8812 -0.0209  0.1995
  185SAPI     P21167   0.410   4.604  11.071  0.2929  0.0756 -0.0659
  185SAPI   O1321168   0.451   4.627  11.212  0.4692  0.1535 -0.1912
  185SAPI   O1421169   0.295   4.686  11.013 -0.3051 -0.0523  0.0090
  185SAPI   O1221170   0.371   4.442  11.046  0.2589  0.5174  0.1585
  185SAPI   O1121171   0.530   4.641  10.975 -0.7578 -0.2109  0.0678
  185SAPI    C121172   0.538   4.605  10.839 -0.3070 -0.0006  0.1497
  185SAPI    HA21173   0.466   4.522  10.822 -1.8530  0.9713  1.6292
  185SAPI    HB21174   0.507   4.688  10.772 -1.8131 -1.8166 -1.5351
  185SAPI    C221175   0.677   4.568  10.795 -0.4420 -0.3874  0.5026
  185SAPI    HS21176   0.709   4.497  10.874 -0.4478  0.8411  1.6456
  185SAPI   O2121177   0.763   4.685  10.797 -0.1709 -0.0061  0.0482
  185SAPI   C2121178   0.892   4.674  10.766  0.5099 -0.2937 -0.9487
  185SAPI   O2221179   0.956   4.573  10.756 -0.4945  0.3788  0.4440
  185SAPI   C2221180   0.941   4.814  10.730 -0.6460  0.2507 -0.7230
  185SAPI   H2R21181   0.861   4.881  10.694  1.8977  3.7295 -0.4494
  185SAPI   H2S21182   0.989   4.852  10.823 -0.4245  0.9935 -1.1324
  185SAPI    C321183   0.670   4.516  10.652  0.6759  0.5511  0.1703
  185SAPI    HX21184   0.773   4.477  10.634  0.5709 -1.3296  3.0894
  185SAPI    HY21185   0.644   4.591  10.575  0.2262  0.6350  0.4043
  185SAPI   O3121186   0.574   4.408  10.638  0.3562 -0.1158  0.1766
  185SAPI   C3121187   0.616   4.292  10.680 -0.1348  0.1109 -0.1229
  185SAPI   O3221188   0.715   4.268  10.744 -0.4369 -0.6684 -0.5664
  185SAPI   C3221189   0.520   4.186  10.627 -0.2341 -0.1526 -0.1716
  185SAPI   H2X21190   0.430   4.199  10.691 -2.2042 -0.8523 -2.6088
  185SAPI   H2Y21191   0.553   4.084  10.655  2.9759  0.4837 -1.2268
  185SAPI   C2321192   1.045   4.808  10.617 -0.1822  0.5408  0.4580
  185SAPI   H3R21193   1.133   4.757  10.662  0.2714  2.6434  2.1255
  185SAPI   H3S21194   1.080   4.909  10.589 -0.8245  0.8735  0.8192
  185SAPI   C2421195   0.999   4.729  10.495  0.8089 -0.6302 -0.2977
  185SAPI   H4R21196   0.999   4.621  10.521  1.1523 -0.4203  0.6247
  185SAPI   H4S21197   1.078   4.738  10.418 -1.2854 -1.0771 -2.6358
  185SAPI   C2521198   0.869   4.785  10.431 -0.1133  0.4510 -0.7213
  185SAPI   H5R21199   0.805   4.849  10.494 -0.0496  0.1964 -0.3913
  185SAPI   C2621200   0.817   4.742  10.313  0.1784  0.5287  0.6014
  185SAPI   H6R21201   0.718   4.780  10.286 -1.1331 -1.0955  2.7971
  185SAPI   C2721202   0.885   4.644  10.219  0.3873  0.0534 -0.0074
  185SAPI   H7R21203   0.992   4.632  10.246  0.3018 -1.7677 -0.3679
  185SAPI   H7S21204   0.881   4.692  10.118 -0.2342 -0.1752 -0.0959
  185SAPI   C2821205   0.831   4.502  10.226 -0.7339 -1.0667 -0.1649
  185SAPI   H8R21206   0.860   4.448  10.317  0.5472  2.3323  1.6546
  185SAPI   C2921207   0.750   4.441  10.138 -0.1062 -0.1270 -0.2795
  185SAPI   H9R21208   0.716   4.338  10.151 -0.7984 -0.0220 -1.1320
  185SAPI  C21021209   0.691   4.511  10.015  0.2270 -0.2940 -0.1259
  185SAPI  H10R21210   0.659   4.614  10.040  1.6610  0.6684 -1.9789
  185SAPI  H10S21211   0.601   4.457   9.976 -1.1301  1.2134  0.8020
  185SAPI  C21121212   0.786   4.510   9.898 -0.1755 -0.4726  0.2427
  185SAPI  H11R21213   0.890   4.491   9.931 -1.1230 -1.9262  2.6641
  185SAPI  C21221214   0.767   4.524   9.766 -0.2495  0.2844 -0.2099
  185SAPI  H12R21215   0.853   4.545   9.701  0.9106  1.4036  1.5946
  185SAPI  C21321216   0.640   4.543   9.695  0.1857  0.0040  0.4670
  185SAPI  H13R21217   0.569   4.556   9.779  0.5828  0.6218  0.7184
  185SAPI  H13S21218   0.615   4.448   9.644 -1.3585 -0.9718  2.8931
  185SAPI  C21421219   0.629   4.670   9.612  0.2203  0.7418 -0.4031
  185SAPI  H14R21220   0.620   4.761   9.673 -0.2996 -0.1210  0.8494
  185SAPI  C21521221   0.630   4.687   9.477 -0.3712  0.4371 -0.1387
  185SAPI  H15R21222   0.631   4.789   9.435  2.2354  0.9784  1.0054
  185SAPI  C21621223   0.632   4.577   9.381  0.5814  0.4414 -0.0787
  185SAPI  H16R21224   0.538   4.517   9.383  0.0218  1.3164  0.6280
  185SAPI  H16S21225   0.717   4.508   9.398  0.1798 -0.3255 -1.0726
  185SAPI  C21721226   0.651   4.638   9.236  0.3084 -0.4290 -0.4972
  185SAPI  H17R21227   0.729   4.716   9.227  1.1640 -1.2867 -0.7325
  185SAPI  H17S21228   0.550   4.672   9.204 -0.4747 -1.5142  0.7218
  185SAPI  C21821229   0.688   4.515   9.147  0.0381 -0.5307 -0.0611
  185SAPI  H18R21230   0.607   4.441   9.161  0.9956 -1.6375 -0.2084
  185SAPI  H18S21231   0.787   4.472   9.174 -0.4054 -1.9312 -0.5832
  185SAPI  C21921232   0.694   4.548   8.999  0.2312 -0.1809  1.1335
  185SAPI  H19R21233   0.775   4.623   8.984  0.1946  0.1137  2.2916
  185SAPI  H19S21234   0.593   4.590   8.979  0.3848 -0.1464  0.3852
  185SAPI  C22021235   0.705   4.430   8.908 -0.2382 -0.6033  0.6955
  185SAPI  H20R21236   0.814   4.412   8.914 -0.1415  0.2900  2.1673
  185SAPI  H20S21237   0.666   4.449   8.806 -2.6465 -1.0853  1.4626
  185SAPI  H20T21238   0.648   4.346   8.952 -1.7845  0.4369  0.7729
  185SAPI   C3321239   0.458   4.201  10.486  0.3486 -0.3758 -0.1556
  185SAPI   H3X21240   0.519   4.144  10.413  0.3718 -0.2357 -0.2456
  185SAPI   H3Y21241   0.464   4.306  10.451 -0.3421  0.7682  2.8474
  185SAPI   C3421242   0.317   4.136  10.477  0.6431 -0.5466  0.6854
  185SAPI   H4X21243   0.242   4.163  10.554 -1.8425 -0.6287 -1.5287
  185SAPI   H4Y21244   0.338   4.027  10.471  1.3930 -0.3408 -1.0612
  185SAPI   C3521245   0.246   4.179  10.350 -0.0918 -0.2373  0.1674
  185SAPI   H5X21246   0.207   4.283  10.362  0.0425 -0.0792 -0.7033
  185SAPI   H5Y21247   0.160   4.113  10.325 -0.7031 -0.2060  2.0388
  185SAPI   C3621248   0.326   4.189  10.223  0.8221  0.4596 -0.0684
  185SAPI   H6X21249   0.377   4.093  10.200 -1.2379 -0.7358  0.0738
  185SAPI   H6Y21250   0.411   4.259  10.233  2.0535 -1.1942  2.1144
  185SAPI   C3721251   0.240   4.238  10.106 -0.7780  0.6127 -0.1946
  185SAPI   H7X21252   0.189   4.332  10.135 -1.8997  0.2280 -0.8950
  185SAPI   H7Y21253   0.172   4.154  10.080 -0.3420  0.6096 -1.4348
  185SAPI   C3821254   0.321   4.269   9.982  1.1581  1.0323  0.2367
  185SAPI   H8X21255   0.385   4.180   9.968 -1.1059 -0.2790 -3.0599
  185SAPI   H8Y21256   0.382   4.360  10.000  0.1378  1.3929  2.2041
  185SAPI   C3921257   0.229   4.263   9.858 -0.0325  0.3762 -0.2753
  185SAPI   H9X21258   0.147   4.336   9.875 -1.6232 -1.2949 -0.4639
  185SAPI   H9Y21259   0.192   4.160   9.839 -0.2906  0.7338 -1.8064
  185SAPI  C31021260   0.299   4.307   9.731  0.2171  0.6018 -1.0608
  185SAPI  H10X21261   0.390   4.248   9.710 -1.3691 -1.9685 -1.0711
  185SAPI  H10Y21262   0.336   4.411   9.745  0.3981  0.3474  0.5213
  185SAPI  C31121263   0.207   4.311   9.608 -0.6313  0.3543  0.3080
  185SAPI  H11X21264   0.117   4.372   9.633 -0.9124 -0.3912  1.1939
  185SAPI  H11Y21265   0.172   4.206   9.604 -0.0293  0.0210  2.3809
  185SAPI  C31221266   0.274   4.350   9.474  0.3304  0.3276 -0.2582
  185SAPI  H12X21267   0.342   4.263   9.463  0.6138  0.3264  1.3100
  185SAPI  H12Y21268   0.327   4.446   9.495  1.6805 -1.0140  3.1340
  185SAPI  C31321269   0.179   4.348   9.353 -0.2243  0.1425  0.3065
  185SAPI  H13X21270   0.112   4.431   9.381  0.5172  0.4216  1.3072
  185SAPI  H13Y21271   0.118   4.255   9.345  1.1159 -0.7662  0.3010
  185SAPI  C31421272   0.259   4.368   9.217 -0.9064  0.1898 -0.1785
  185SAPI  H14X21273   0.325   4.453   9.243 -1.7135  0.5713  0.6742
  185SAPI  H14Y21274   0.182   4.386   9.139 -0.6858  0.7061 -0.2809
  185SAPI  C31521275   0.352   4.252   9.188  0.6415  0.8793 -0.6162
  185SAPI  H15X21276   0.311   4.155   9.224 -0.2236  2.0879  1.8121
  185SAPI  H15Y21277   0.446   4.270   9.245  0.2534  1.7863 -0.2520
  185SAPI  C31621278   0.384   4.243   9.036  0.0962 -0.0787  0.7537
  185SAPI  H16X21279   0.469   4.176   9.009  2.3331  2.0760  1.9456
  185SAPI  H16Y21280   0.422   4.341   9.000  0.4142  0.0697  1.4670
  185SAPI  C31721281   0.268   4.196   8.949 -0.3662 -0.9960 -0.1374
  185SAPI  H17X21282   0.175   4.245   8.986  0.4050 -0.8210  1.6422
  185SAPI  H17Y21283   0.250   4.086   8.956 -0.4979 -1.0856 -1.5521
  185SAPI  C31821284   0.274   4.233   8.800 -0.1485 -1.1328  0.1999
  185SAPI  H18X21285   0.359   4.184   8.748  1.1213  2.9130 -2.0312
  185SAPI  H18Y21286   0.292   4.342   8.786 -0.8245 -1.0914 -0.3983
  185SAPI  H18Z21287   0.178   4.219   8.747  1.5278  1.2940 -4.0614
  186SAPI   C1221288   1.386   2.200  10.739  0.1771  0.3659  0.6914
  186SAPI    H221289   1.453   2.112  10.724 -0.9550 -0.4949  0.5259
  186SAPI    O221290   1.331   2.190  10.878 -0.2111  0.3224  0.4606
  186SAPI   HO221291   1.237   2.180  10.862  0.4851 -2.8021 -2.8756
  186SAPI   C1321292   1.487   2.315  10.732  0.1376 -0.2706 -0.7383
  186SAPI    H321293   1.536   2.317  10.632  1.0296 -0.0008 -0.3085
  186SAPI    O321294   1.591   2.302  10.834  0.6592 -0.2442 -0.5380
  186SAPI   HO321295   1.655   2.238  10.803 -2.2063 -3.4753 -0.3137
  186SAPI   C1421296   1.412   2.452  10.749  0.2330  0.0433 -0.3378
  186SAPI    H421297   1.370   2.457  10.852 -1.6250 -1.1399 -0.9984
  186SAPI    O421298   1.518   2.553  10.735 -0.7506  0.5100 -0.6401
  186SAPI   HO421299   1.586   2.551  10.802  2.5554  1.7746 -3.6453
  186SAPI   C1521300   1.304   2.475  10.650  0.6211  0.2054 -0.9729
  186SAPI    H521301   1.351   2.480  10.549 -2.8372  0.2273 -2.7574
  186SAPI    O521302   1.232   2.593  10.670  0.4358 -0.1224 -0.2271
  186SAPI   HO521303   1.246   2.640  10.588  4.0197  1.2580  0.9779
  186SAPI   C1621304   1.213   2.352  10.639  0.1409  0.4803 -0.0717
  186SAPI    H621305   1.164   2.351  10.740 -1.1726  0.0932 -0.6855
  186SAPI    O621306   1.119   2.359  10.536  0.2683  0.0369  0.3184
  186SAPI   HO621307   1.030   2.341  10.565  0.1870 -0.7798 -0.3888
  186SAPI   C1121308   1.284   2.220  10.632  0.7173  0.3088  0.2193
  186SAPI    H121309   1.333   2.223  10.532 -0.6898  1.1432 -0.4839
  186SAPI     P21310   1.234   1.967  10.555  0.1880  0.4788 -0.3916
  186SAPI   O1321311   1.192   1.850  10.637  0.2866  0.4984 -0.6971
  186SAPI   O1421312   1.378   1.968  10.517  0.3606 -0.0418  0.3559
  186SAPI   O1221313   1.194   2.110  10.639  0.0819  0.3832  1.2268
  186SAPI   O1121314   1.137   1.966  10.425  0.7268  0.1240 -0.5233
  186SAPI    C121315   1.000   1.993  10.445  0.3072 -0.1983  0.1967
  186SAPI    HA21316   0.958   1.893  10.467 -3.4459  1.3927  1.0570
  186SAPI    HB21317   0.980   2.069  10.524  4.4403 -0.8478  2.1504
  186SAPI    C221318   0.923   2.039  10.319  0.3923 -0.2684 -0.4335
  186SAPI    HS21319   0.815   2.023  10.336  0.4756  0.1942  0.6238
  186SAPI   O2121320   0.968   1.972  10.203 -0.5988 -0.0436  0.3350
  186SAPI   C2121321   0.920   1.850  10.189 -0.0577  0.2149  0.4413
  186SAPI   O2221322   0.835   1.799  10.262  0.3006 -0.1581 -0.0139
  186SAPI   C2221323   1.001   1.772  10.087 -0.3706  0.0290  0.1507
  186SAPI   H2R21324   1.073   1.847  10.048  1.9807 -1.4104  1.4725
  186SAPI   H2S21325   1.060   1.702  10.150  0.8336 -1.0278 -2.0264
  186SAPI    C321326   0.947   2.192  10.309 -0.1456 -0.6161 -0.1606
  186SAPI    HX21327   1.055   2.216  10.297 -0.3061 -0.3632 -1.2677
  186SAPI    HY21328   0.911   2.242  10.401  2.9035  2.9032 -0.6222
  186SAPI   O3121329   0.872   2.246  10.195 -0.1929  0.3367  0.1832
  186SAPI   C3121330   0.742   2.276  10.203  0.6242  0.8598 -0.0508
  186SAPI   O3221331   0.677   2.270  10.305  0.0514  0.1161 -0.6824
  186SAPI   C3221332   0.686   2.324  10.078 -0.6376 -0.2903 -0.2253
  186SAPI   H2X21333   0.721   2.423  10.039 -1.1650  0.1249  0.3417
  186SAPI   H2Y21334   0.585   2.350  10.116 -0.1049 -2.8667  3.5122
  186SAPI   C2321335   0.911   1.696   9.985  0.4381  0.1485  0.5774
  186SAPI   H3R21336   0.833   1.630  10.026  2.5143 -3.0474 -0.2703
  186SAPI   H3S21337   0.983   1.620   9.948  0.7341  0.2470  0.9424
  186SAPI   C2421338   0.863   1.782   9.859  0.2261 -0.2171 -0.2730
  186SAPI   H4R21339   0.882   1.718   9.771  1.3987  2.6915 -2.3041
  186SAPI   H4S21340   0.935   1.865   9.844 -1.1987  1.1860  0.3516
  186SAPI   C2521341   0.723   1.828   9.858  0.3575  0.7234  0.3487
  186SAPI   H5R21342   0.711   1.904   9.938  2.3130  1.1026  0.3408
  186SAPI   C2621343   0.614   1.782   9.793  0.7192  1.1683  0.4416
  186SAPI   H6R21344   0.522   1.841   9.805 -1.5713 -1.4163 -2.5450
  186SAPI   C2721345   0.616   1.668   9.687  0.4660  0.7356 -0.7481
  186SAPI   H7R21346   0.663   1.581   9.737  0.4026  1.2674  0.2552
  186SAPI   H7S21347   0.687   1.683   9.603  2.0239 -1.5703  0.0563
  186SAPI   C2821348   0.477   1.639   9.639 -0.1042  0.3614  1.1067
  186SAPI   H8R21349   0.396   1.654   9.712 -0.5710 -0.7767  0.8486
  186SAPI   C2921350   0.451   1.569   9.523 -0.1895  0.1237 -0.8563
  186SAPI   H9R21351   0.347   1.557   9.489  0.4450 -2.0741 -2.2178
  186SAPI  C21021352   0.555   1.506   9.431  0.5110 -0.0544 -0.4189
  186SAPI  H10R21353   0.531   1.401   9.404  0.2006 -0.3042  0.7884
  186SAPI  H10S21354   0.642   1.469   9.488 -0.1077 -0.6500  0.1583
  186SAPI  C21121355   0.601   1.602   9.323 -0.2473  0.4294 -0.0303
  186SAPI  H11R21356   0.633   1.700   9.363 -1.0313  0.7735 -0.2206
  186SAPI  C21221357   0.576   1.584   9.193  0.0669 -0.1597 -0.8535
  186SAPI  H12R21358   0.609   1.661   9.122 -0.7997 -0.7699 -1.9440
  186SAPI  C21321359   0.504   1.474   9.124 -0.0330 -0.2577  0.6706
  186SAPI  H13R21360   0.446   1.521   9.042  0.9074 -0.1577  0.0443
  186SAPI  H13S21361   0.427   1.424   9.186 -1.3606  0.2004 -0.5742
  186SAPI  C21421362   0.593   1.373   9.055  0.4089 -0.0419 -0.3107
  186SAPI  H14R21363   0.615   1.292   9.126  1.2701 -1.4060 -2.0424
  186SAPI  C21521364   0.655   1.371   8.933 -1.4104 -0.1647 -0.2420
  186SAPI  H15R21365   0.710   1.279   8.910  1.0648  0.8172  1.3190
  186SAPI  C21621366   0.650   1.476   8.831  0.1601 -0.6498  0.2230
  186SAPI  H16R21367   0.751   1.519   8.821 -0.2289 -0.0394 -1.6727
  186SAPI  H16S21368   0.586   1.556   8.874  2.7076  0.3000  2.5133
  186SAPI  C21721369   0.602   1.433   8.688 -0.2666 -0.7262  0.4246
  186SAPI  H17R21370   0.604   1.525   8.625 -0.0679 -1.5734 -0.8438
  186SAPI  H17S21371   0.502   1.391   8.708 -1.1577  2.0121  2.3090
  186SAPI  C21821372   0.695   1.327   8.618  0.1726 -0.2113  0.1786
  186SAPI  H18R21373   0.681   1.232   8.674 -0.7004  0.8793  1.8933
  186SAPI  H18S21374   0.799   1.366   8.629  0.2034 -0.6251  1.6392
  186SAPI  C21921375   0.654   1.301   8.475 -0.2673  0.0106  0.3032
  186SAPI  H19R21376   0.728   1.231   8.431  0.0270  0.5879 -0.1276
  186SAPI  H19S21377   0.651   1.397   8.419 -0.4905  1.4968  2.7130
  186SAPI  C22021378   0.517   1.226   8.475 -0.8631 -0.5494  0.3861
  186SAPI  H20R21379   0.518   1.153   8.558 -0.4800 -1.8644 -0.7463
  186SAPI  H20S21380   0.496   1.165   8.385 -1.1444 -1.6873  1.2046
  186SAPI  H20T21381   0.427   1.290   8.493 -0.9101 -0.3050 -0.6471
  186SAPI   C3321382   0.699   2.215   9.975 -0.3760  0.0149 -0.5715
  186SAPI   H3X21383   0.645   2.125  10.009 -3.2041  0.8468 -2.4707
  186SAPI   H3Y21384   0.807   2.196   9.955 -0.1580  1.2337 -0.6746
  186SAPI   C3421385   0.633   2.261   9.842 -0.8107 -0.2675  0.5716
  186SAPI   H4X21386   0.679   2.358   9.816 -0.3521 -0.9783 -1.4245
  186SAPI   H4Y21387   0.525   2.283   9.856 -1.5137 -1.8170 -1.8099
  186SAPI   C3521388   0.640   2.154   9.725  0.4578 -0.5098 -0.1785
  186SAPI   H5X21389   0.572   2.069   9.748 -0.1020 -0.5631 -1.9194
  186SAPI   H5Y21390   0.743   2.112   9.720  2.0835  2.8801  0.9558
  186SAPI   C3621391   0.628   2.203   9.580 -0.1957 -0.7500 -0.5856
  186SAPI   H6X21392   0.725   2.231   9.533 -0.9184  2.1131 -0.5868
  186SAPI   H6Y21393   0.574   2.300   9.587  1.1643 -0.0034  0.0473
  186SAPI   C3721394   0.545   2.105   9.499 -0.1725 -0.3657  0.1060
  186SAPI   H7X21395   0.444   2.085   9.543 -0.4958 -4.0772 -1.9031
  186SAPI   H7Y21396   0.602   2.010   9.492 -0.8790 -0.8741  0.9566
  186SAPI   C3821397   0.520   2.152   9.352 -0.0651  0.1977 -0.3885
  186SAPI   H8X21398   0.472   2.252   9.361  1.1411  0.6586  1.4007
  186SAPI   H8Y21399   0.450   2.075   9.312 -2.1061  0.6984  1.9882
  186SAPI   C3921400   0.651   2.158   9.274 -0.1193 -0.4641 -0.1521
  186SAPI   H9X21401   0.691   2.054   9.280 -0.6966 -0.6252  1.2841
  186SAPI   H9Y21402   0.730   2.220   9.323  0.9400 -1.0555 -1.0482
  186SAPI  C31021403   0.636   2.221   9.138 -0.0704 -0.1813 -0.1573
  186SAPI  H10X21404   0.739   2.240   9.102 -0.9511 -2.0471 -4.2218
  186SAPI  H10Y21405   0.581   2.318   9.142  1.2374  0.5782 -0.1016
  186SAPI  C31121406   0.572   2.123   9.037  0.4773  0.5417  0.2068
  186SAPI  H11X21407   0.465   2.113   9.065  0.4966 -1.1662 -0.2212
  186SAPI  H11Y21408   0.618   2.022   9.044 -0.5541  0.1500  2.0842
  186SAPI  C31221409   0.551   2.198   8.909  0.1450  0.0719 -0.0450
  186SAPI  H12X21410   0.651   2.220   8.865  0.4683  1.3845  1.2992
  186SAPI  H12Y21411   0.499   2.294   8.928  1.0771  0.7736 -0.9350
  186SAPI  C31321412   0.477   2.107   8.818 -0.3378  0.4184 -0.6750
  186SAPI  H13X21413   0.378   2.088   8.864  0.2166  0.0326  0.4160
  186SAPI  H13Y21414   0.531   2.010   8.806  0.2077  0.7314 -0.7631
  186SAPI  C31421415   0.451   2.165   8.674  0.5042 -0.1297 -0.6447
  186SAPI  H14X21416   0.396   2.259   8.699  0.8590  0.2184 -1.1565
  186SAPI  H14Y21417   0.370   2.108   8.623  0.2421  0.4000 -0.8316
  186SAPI  C31521418   0.581   2.171   8.593  0.5644  0.2470 -0.7500
  186SAPI  H15X21419   0.619   2.075   8.554 -1.1046 -1.4879  1.6020
  186SAPI  H15Y21420   0.662   2.231   8.641 -2.0966  3.1758  0.5198
  186SAPI  C31621421   0.554   2.263   8.470  0.2614  0.1892  0.4390
  186SAPI  H16X21422   0.492   2.352   8.497 -0.9851 -0.6710  0.4764
  186SAPI  H16Y21423   0.489   2.192   8.415  0.3003 -1.7755  2.7479
  186SAPI  C31721424   0.674   2.299   8.374 -0.3733  0.0579  0.3786
  186SAPI  H17X21425   0.740   2.211   8.385 -1.4094 -0.5884  1.7118
  186SAPI  H17Y21426   0.731   2.386   8.413  3.2043 -0.6321 -2.7641
  186SAPI  C31821427   0.636   2.333   8.236 -0.2236 -0.3104  0.2468
  186SAPI  H18X21428   0.719   2.374   8.175 -0.9137  0.4909 -0.1804
  186SAPI  H18Y21429   0.561   2.415   8.232  1.2014  1.0197 -2.1472
  186SAPI  H18Z21430   0.593   2.245   8.185 -1.5961  1.2331 -1.4141
  187SAPI   C1221431   4.177   1.068   6.270 -0.3261  0.3743  0.1161
  187SAPI    H221432   4.224   0.987   6.330  0.5873  0.0515 -0.9863
  187SAPI    O221433   4.164   1.183   6.353  0.0943 -0.1740  0.3742
  187SAPI   HO221434   4.244   1.184   6.408  0.0198  2.8941  0.5906
  187SAPI   C1321435   4.263   1.099   6.149  0.1109  0.0816 -0.1650
  187SAPI    H321436   4.268   1.009   6.084 -0.5662 -0.7754  0.9287
  187SAPI    O321437   4.394   1.145   6.179 -0.1888 -0.3568 -0.4198
  187SAPI   HO321438   4.456   1.079   6.209 -1.6031 -1.0986  1.0346
  187SAPI   C1421439   4.180   1.203   6.072 -0.0020 -1.0940  0.5985
  187SAPI    H421440   4.185   1.297   6.131  1.2624 -2.4244  2.7486
  187SAPI    O421441   4.250   1.242   5.955  0.1649  0.1889  0.5916
  187SAPI   HO421442   4.239   1.337   5.946 -2.9091 -0.0560  0.6963
  187SAPI   C1521443   4.043   1.156   6.034  0.1372  0.9813 -0.4174
  187SAPI    H521444   4.056   1.058   5.983 -0.8484  0.4385  0.3194
  187SAPI    O521445   3.979   1.239   5.939  0.5704 -0.0722 -0.0993
  187SAPI   HO521446   3.932   1.306   5.989  0.3012 -0.6973  0.5049
  187SAPI   C1621447   3.965   1.123   6.160  0.3946  0.9649  0.5500
  187SAPI    H621448   3.956   1.217   6.218 -2.2374  1.5269 -0.6164
  187SAPI    O621449   3.832   1.076   6.130  0.6565  0.0536 -0.0299
  187SAPI   HO621450   3.828   1.005   6.194  0.7569  1.3581  1.4835
  187SAPI   C1121451   4.044   1.016   6.229 -0.2365  0.3276  0.1612
  187SAPI    H121452   4.052   0.928   6.162  0.1157 -1.2987  2.2314
  187SAPI     P21453   3.982   0.833   6.420 -0.1850  0.2640  0.0815
  187SAPI   O1321454   4.007   0.730   6.317  0.4669 -0.0206  0.2949
  187SAPI   O1421455   3.869   0.810   6.517 -0.1059  0.0075  0.9225
  187SAPI   O1221456   3.964   0.974   6.340  0.6485  0.0790 -0.5393
  187SAPI   O1121457   4.116   0.853   6.507 -0.8143  0.7052 -0.5791
  187SAPI    C121458   4.133   0.925   6.626  0.1614  0.8026 -0.1564
  187SAPI    HA21459   4.184   1.021   6.606 -0.0419  0.5127 -2.3121
  187SAPI    HB21460   4.034   0.952   6.669 -0.4430 -2.4066  0.7955
  187SAPI    C221461   4.212   0.844   6.738 -0.1577 -0.0132  0.1441
  187SAPI    HS21462   4.299   0.792   6.694  0.8757  2.5029 -0.9965
  187SAPI   O2121463   4.120   0.767   6.816  0.2874  0.4327  0.2544
  187SAPI   C2121464   4.088   0.653   6.755 -0.3253  0.2435  0.5044
  187SAPI   O2221465   4.155   0.599   6.665 -0.2160 -0.2531  0.0284
  187SAPI   C2221466   3.959   0.603   6.813  0.7955 -0.3015 -1.0085
  187SAPI   H2R21467   3.974   0.598   6.923 -0.8800 -1.7730 -0.7907
  187SAPI   H2S21468   3.887   0.682   6.785  0.7456  0.7800  1.8537
  187SAPI    C321469   4.291   0.943   6.834  0.0214 -0.8381  0.4599
  187SAPI    HX21470   4.224   1.021   6.878 -0.6749 -0.9571 -0.3696
  187SAPI    HY21471   4.365   1.002   6.777  0.9207  1.1179  3.3898
  187SAPI   O3121472   4.347   0.885   6.943 -0.3676  0.7076 -0.0857
  187SAPI   C3121473   4.479   0.864   6.927  0.1086  0.0706  0.0290
  187SAPI   O3221474   4.542   0.853   6.824  0.3163  0.3542 -0.1634
  187SAPI   C3221475   4.540   0.837   7.062  0.5578  0.3975 -0.0600
  187SAPI   H2X21476   4.643   0.880   7.069  1.5704 -2.0163  1.0749
  187SAPI   H2Y21477   4.561   0.728   7.063 -0.0835  0.2202  3.0844
  187SAPI   C2321478   3.908   0.464   6.774  0.1123 -0.6411  0.5689
  187SAPI   H3R21479   3.991   0.391   6.760  2.7207  2.2776 -0.6046
  187SAPI   H3S21480   3.858   0.474   6.676 -0.5413 -1.6494  0.7936
  187SAPI   C2421481   3.798   0.412   6.878  0.0506 -0.0170 -0.0751
  187SAPI   H4R21482   3.756   0.322   6.829  0.4437 -0.7722  0.9328
  187SAPI   H4S21483   3.710   0.480   6.879  0.0762  0.2347 -3.7001
  187SAPI   C2521484   3.864   0.367   7.004  0.5339 -0.1598  0.3081
  187SAPI   H5R21485   3.966   0.335   6.976  0.1788 -1.6192  0.5721
  187SAPI   C2621486   3.821   0.374   7.130  0.3849  0.6744  0.0962
  187SAPI   H6R21487   3.897   0.349   7.205  1.6833 -2.5424 -2.0623
  187SAPI   C2721488   3.691   0.432   7.174  0.2630  0.2463 -0.4075
  187SAPI   H7R21489   3.623   0.361   7.226 -0.0527  0.8032 -0.0401
  187SAPI   H7S21490   3.626   0.470   7.092  0.0250 -0.3400 -0.4934
  187SAPI   C2821491   3.717   0.544   7.267 -0.0521 -0.1401 -0.3490
  187SAPI   H8R21492   3.695   0.646   7.234  1.9891  0.2403 -0.6418
  187SAPI   C2921493   3.767   0.533   7.396 -0.3874  0.2706 -0.1694
  187SAPI   H9R21494   3.780   0.619   7.464 -0.2422 -0.8226  1.2468
  187SAPI  C21021495   3.794   0.406   7.472 -0.8873 -0.1050 -0.2629
  187SAPI  H10R21496   3.880   0.421   7.540 -0.5117  1.0284 -0.9561
  187SAPI  H10S21497   3.838   0.329   7.405 -0.3615  0.0161 -0.0563
  187SAPI  C21121498   3.681   0.347   7.563  0.2408 -0.4577  0.2864
  187SAPI  H11R21499   3.630   0.261   7.516  0.5716 -2.2248  2.9212
  187SAPI  C21221500   3.653   0.375   7.690  0.1048  0.1117  0.3805
  187SAPI  H12R21501   3.567   0.321   7.732 -0.1077  0.0763 -0.0935
  187SAPI  C21321502   3.725   0.476   7.775 -0.0750 -0.4175  0.2172
  187SAPI  H13R21503   3.785   0.549   7.717  4.3306 -1.5122  2.9460
  187SAPI  H13S21504   3.808   0.427   7.830 -0.1677 -0.8031  0.0242
  187SAPI  C21421505   3.637   0.537   7.874  0.0856  0.1205  0.1426
  187SAPI  H14R21506   3.530   0.539   7.849  0.4888  0.8853 -1.6164
  187SAPI  C21521507   3.673   0.611   7.986 -0.4171 -1.0477 -0.0768
  187SAPI  H15R21508   3.595   0.639   8.058  1.9794  1.9211  1.5839
  187SAPI  C21621509   3.820   0.646   8.022  0.6341  0.5320 -0.0411
  187SAPI  H16R21510   3.835   0.752   8.052  1.2046  0.3281  0.4086
  187SAPI  H16S21511   3.886   0.623   7.935  0.0528  0.9796 -0.6146
  187SAPI  C21721512   3.878   0.548   8.140  0.0597 -0.5208 -0.2216
  187SAPI  H17R21513   3.876   0.445   8.098  2.0282  0.0369 -1.8301
  187SAPI  H17S21514   3.801   0.564   8.219  1.3895  1.9907  0.6662
  187SAPI  C21821515   4.018   0.569   8.195 -0.1922 -0.0581 -0.1422
  187SAPI  H18R21516   4.044   0.670   8.234 -1.0006  0.2460 -0.3666
  187SAPI  H18S21517   4.089   0.552   8.111 -1.1480 -0.8761 -0.8012
  187SAPI  C21921518   4.050   0.482   8.309 -0.2858 -0.6378 -0.3905
  187SAPI  H19R21519   4.019   0.377   8.289 -1.9442 -0.8271  2.5409
  187SAPI  H19S21520   3.994   0.498   8.403  0.8531 -1.1490  0.3870
  187SAPI  C22021521   4.189   0.493   8.336 -0.5966 -0.6689 -0.0427
  187SAPI  H20R21522   4.211   0.454   8.438  1.1486  0.4365  0.0560
  187SAPI  H20S21523   4.220   0.599   8.346 -2.0618 -0.2676  0.4849
  187SAPI  H20T21524   4.249   0.438   8.260  1.0623 -1.4145  1.7128
  187SAPI   C3321525   4.469   0.884   7.189 -0.2134  0.0559 -0.2285
  187SAPI   H3X21526   4.388   0.813   7.215 -0.0106  0.4840  1.7972
  187SAPI   H3Y21527   4.440   0.991   7.201 -1.8089 -0.5832  2.5167
  187SAPI   C3421528   4.566   0.864   7.310 -0.2094  0.0068 -0.3278
  187SAPI   H4X21529   4.665   0.911   7.295 -0.6354  0.4255 -1.9966
  187SAPI   H4Y21530   4.590   0.755   7.316 -0.6431 -0.1302 -1.0084
  187SAPI   C3521531   4.507   0.926   7.435 -0.1145  0.2209  0.2962
  187SAPI   H5X21532   4.398   0.936   7.416 -0.0452  1.3089  0.3918
  187SAPI   H5Y21533   4.530   1.035   7.436 -1.6290  0.6000 -1.4791
  187SAPI   C3621534   4.544   0.872   7.570  0.1918  0.3229  0.1419
  187SAPI   H6X21535   4.645   0.910   7.598  0.0541  0.4694  0.4420
  187SAPI   H6Y21536   4.540   0.761   7.568  1.3696  0.2498  0.9351
  187SAPI   C3721537   4.451   0.918   7.688 -0.9608 -0.9922 -0.2383
  187SAPI   H7X21538   4.352   0.868   7.695 -0.1386 -2.7806 -0.7370
  187SAPI   H7Y21539   4.433   1.026   7.670 -1.5077 -0.7360  1.6015
  187SAPI   C3821540   4.527   0.916   7.816 -0.3060 -0.1143 -0.0561
  187SAPI   H8X21541   4.455   0.956   7.891 -0.8551 -1.2250  0.0224
  187SAPI   H8Y21542   4.621   0.975   7.810 -0.7444  1.1524  3.3192
  187SAPI   C3921543   4.564   0.770   7.857 -0.7668  0.0610  0.2869
  187SAPI   H9X21544   4.662   0.749   7.811 -1.8768  0.1897 -2.2893
  187SAPI   H9Y21545   4.493   0.696   7.815 -0.6641  0.8803 -1.3838
  187SAPI  C31021546   4.565   0.742   8.009  0.5419 -0.4086 -0.2932
  187SAPI  H10X21547   4.465   0.768   8.050  1.3207  2.4240 -0.0242
  187SAPI  H10Y21548   4.640   0.810   8.054  0.3215 -0.7756  0.6480
  187SAPI  C31121549   4.596   0.600   8.055 -0.1463 -1.1634  0.4894
  187SAPI  H11X21550   4.693   0.578   8.005  1.0410  0.3195  1.9783
  187SAPI  H11Y21551   4.517   0.527   8.028 -0.2825 -0.1470 -2.0816
  187SAPI  C31221552   4.628   0.571   8.209 -0.0186 -0.4864  0.1302
  187SAPI  H12X21553   4.562   0.622   8.283  2.1780  0.2545  1.6655
  187SAPI  H12Y21554   4.719   0.623   8.244 -1.7121  3.8730 -1.1951
  187SAPI  C31321555   4.616   0.421   8.240 -0.1603  0.0743  0.0839
  187SAPI  H13X21556   4.707   0.368   8.205 -1.1911 -3.2304  1.9621
  187SAPI  H13Y21557   4.539   0.367   8.182  0.6022  0.9305 -1.8111
  187SAPI  C31421558   4.604   0.385   8.392  0.2359 -0.1101  0.2711
  187SAPI  H14X21559   4.501   0.415   8.422  0.5142  0.5970  0.5164
  187SAPI  H14Y21560   4.683   0.443   8.444  0.8957  1.2685 -2.0920
  187SAPI  C31521561   4.638   0.235   8.396 -0.4907  0.7821 -0.3961
  187SAPI  H15X21562   4.743   0.221   8.360 -0.0378 -1.3434  1.4841
  187SAPI  H15Y21563   4.578   0.174   8.324 -0.7597  0.9091 -0.2811
  187SAPI  C31621564   4.646   0.169   8.540 -0.1843  0.6798  0.1814
  187SAPI  H16X21565   4.737   0.211   8.587  0.3526  0.3891 -0.5776
  187SAPI  H16Y21566   4.656   0.061   8.518 -1.4133  0.5308  0.2539
  187SAPI  C31721567   4.534   0.204   8.639 -0.8548 -0.0978 -0.1373
  187SAPI  H17X21568   4.542   0.311   8.666 -2.2478  0.3274 -1.3149
  187SAPI  H17Y21569   4.547   0.138   8.728  2.5725 -0.2728 -0.6395
  187SAPI  C31821570   4.390   0.180   8.599  0.0501 -0.5034 -0.1959
  187SAPI  H18X21571   4.321   0.215   8.679  0.7550  2.4859 -0.7909
  187SAPI  H18Y21572   4.373   0.070   8.593  0.9537 -0.7823  1.5844
  187SAPI  H18Z21573   4.375   0.233   8.503  2.7810 -4.1165 -2.8922
  188SAPI   C1221574   4.924   2.119   6.200  0.3681  0.4102  0.6526
  188SAPI    H221575   5.020   2.063   6.198 -0.1400 -0.5194  1.3320
  188SAPI    O221576   4.958   2.239   6.132  0.0400 -0.0182  0.1645
  188SAPI   HO221577   5.053   2.255   6.140  0.3358 -2.0679  1.6731
  188SAPI   C1321578   4.811   2.045   6.125  0.5630 -0.7180  0.7869
  188SAPI    H321579   4.789   1.944   6.165  0.3064 -0.4506  1.3407
  188SAPI    O321580   4.846   2.022   5.982  0.3115 -0.3382 -0.1792
  188SAPI   HO321581   4.929   2.068   5.967 -1.2720  2.9012 -0.0147
  188SAPI   C1421582   4.675   2.127   6.127 -0.3761 -0.0218 -0.4340
  188SAPI    H421583   4.692   2.225   6.077 -2.3077 -0.1639 -1.4876
  188SAPI    O421584   4.578   2.065   6.048 -0.0739  0.5738 -0.1283
  188SAPI   HO421585   4.622   2.057   5.963  1.3513  2.8187  0.3081
  188SAPI   C1521586   4.635   2.142   6.273 -0.8455 -0.0721  0.0801
  188SAPI    H521587   4.612   2.042   6.315  0.0865 -0.4562 -0.2851
  188SAPI    O521588   4.519   2.223   6.282  0.5142  0.2718  0.6023
  188SAPI   HO521589   4.523   2.260   6.370 -0.4582  1.1535  0.3032
  188SAPI   C1621590   4.750   2.211   6.351  0.4615 -0.5387  0.4680
  188SAPI    H621591   4.757   2.314   6.310  0.1218 -0.2908  1.0226
  188SAPI    O621592   4.708   2.224   6.485 -0.1507  0.2268  0.0746
  188SAPI   HO621593   4.700   2.137   6.523  0.4595  0.5397  0.9352
  188SAPI   C1121594   4.879   2.131   6.349 -0.2587  0.1140 -0.6528
  188SAPI    H121595   4.855   2.029   6.384  0.1770  0.1011 -0.3913
  188SAPI     P21596   5.095   2.106   6.508 -0.2417 -0.2571 -0.1639
  188SAPI   O1321597   5.228   2.145   6.446  0.1956  0.3027 -0.3564
  188SAPI   O1421598   5.060   1.962   6.506  0.1464  0.0470 -0.7972
  188SAPI   O1221599   4.984   2.191   6.423  0.5176  0.2725  0.0257
  188SAPI   O1121600   5.091   2.167   6.663  0.2258 -0.2492  0.0226
  188SAPI    C121601   4.961   2.203   6.712 -0.0347  0.1662 -0.6100
  188SAPI    HA21602   4.917   2.279   6.644 -0.7345  0.1785 -0.1522
  188SAPI    HB21603   4.893   2.115   6.711 -1.5097  1.2423 -2.2753
  188SAPI    C221604   4.985   2.253   6.852  0.0435 -0.4221  0.0253
  188SAPI    HS21605   4.884   2.271   6.895 -0.6452 -0.6530 -1.4595
  188SAPI   O2121606   5.073   2.364   6.845  0.6460  0.1774 -0.0053
  188SAPI   C2121607   5.024   2.481   6.832  0.6210  0.3566 -0.4528
  188SAPI   O2221608   4.907   2.511   6.810  0.3239 -0.2320 -0.1708
  188SAPI   C2221609   5.134   2.590   6.849 -0.3344  0.3597 -1.3197
  188SAPI   H2R21610   5.222   2.538   6.894 -2.6508 -0.7766  2.4244
  188SAPI   H2S21611   5.150   2.648   6.756  2.0293 -0.3378 -1.4123
  188SAPI    C321612   5.059   2.149   6.944  0.5983 -0.2474  0.6851
  188SAPI    HX21613   5.160   2.149   6.899  1.4943 -0.5629  2.6247
  188SAPI    HY21614   5.016   2.046   6.941 -0.8001  0.2765  1.4411
  188SAPI   O3121615   5.076   2.192   7.081  0.2272 -0.1464 -0.2332
  188SAPI   C3121616   4.996   2.137   7.178  1.1826 -0.4040 -0.3212
  188SAPI   O3221617   4.923   2.044   7.154  0.9113  0.0016 -0.1858
  188SAPI   C3221618   4.997   2.206   7.304 -0.9366 -0.4762  0.2307
  188SAPI   H2X21619   4.907   2.270   7.316  0.2479  1.0906  1.0743
  188SAPI   H2Y21620   5.082   2.277   7.309  0.2679 -1.8235 -0.4803
  188SAPI   C2321621   5.079   2.684   6.960  0.4802 -0.5883 -0.2109
  188SAPI   H3R21622   4.993   2.741   6.918  2.7770  1.5050 -2.4028
  188SAPI   H3S21623   5.153   2.766   6.972 -0.4957  0.2027  0.7593
  188SAPI   C2421624   5.049   2.618   7.100  0.6214 -0.2242  0.2068
  188SAPI   H4R21625   4.949   2.571   7.090 -0.7455  2.4365  0.4152
  188SAPI   H4S21626   5.027   2.702   7.169  0.2804  0.3509 -0.5864
  188SAPI   C2521627   5.150   2.518   7.159  0.1180 -0.8098 -0.2419
  188SAPI   H5R21628   5.144   2.417   7.117 -0.0060 -0.1558 -1.8407
  188SAPI   C2621629   5.233   2.530   7.266  0.1980  0.5078  0.5500
  188SAPI   H6R21630   5.301   2.445   7.283 -1.1109 -0.6264  0.3657
  188SAPI   C2721631   5.262   2.652   7.347 -0.5644 -0.3949 -0.1155
  188SAPI   H7R21632   5.218   2.733   7.285  2.6645  0.6054 -1.2757
  188SAPI   H7S21633   5.373   2.653   7.343 -0.5869 -0.0184 -3.5075
  188SAPI   C2821634   5.195   2.658   7.480 -0.3050  0.7557  0.0951
  188SAPI   H8R21635   5.103   2.717   7.475 -0.1889  0.9285  0.0016
  188SAPI   C2921636   5.221   2.590   7.594  0.0904 -0.4877  0.0998
  188SAPI   H9R21637   5.164   2.620   7.683  1.6531 -0.1241  1.0093
  188SAPI  C21021638   5.336   2.497   7.621 -0.4115  0.0982  0.6541
  188SAPI  H10R21639   5.375   2.513   7.724  0.5852  1.0349  0.1451
  188SAPI  H10S21640   5.427   2.534   7.570 -1.3521  0.0526 -1.1302
  188SAPI  C21121641   5.322   2.352   7.585  0.3988  0.2757  0.0733
  188SAPI  H11R21642   5.335   2.335   7.478 -1.2435  0.0454 -0.1181
  188SAPI  C21221643   5.308   2.243   7.663 -0.0267 -0.3752 -0.9185
  188SAPI  H12R21644   5.283   2.145   7.618 -0.3509 -1.5617  1.6284
  188SAPI  C21321645   5.297   2.247   7.817 -1.0437 -0.4828  0.5910
  188SAPI  H13R21646   5.198   2.212   7.852 -0.1683 -2.9851  0.7368
  188SAPI  H13S21647   5.324   2.348   7.854  0.6485 -0.0209 -1.7123
  188SAPI  C21421648   5.406   2.162   7.877 -0.5755  0.3793  0.1057
  188SAPI  H14R21649   5.509   2.186   7.849 -0.3667 -0.7786 -0.1646
  188SAPI  C21521650   5.396   2.051   7.956 -0.5200  0.2752 -0.3012
  188SAPI  H15R21651   5.481   1.999   8.002 -1.5031 -0.4441  0.7434
  188SAPI  C21621652   5.271   1.988   7.997  0.4263 -0.1514  0.1072
  188SAPI  H16R21653   5.284   1.878   8.000 -1.2453 -0.4100 -0.7415
  188SAPI  H16S21654   5.198   2.003   7.914  1.9428  1.4940 -1.0013
  188SAPI  C21721655   5.202   2.039   8.120 -0.8350 -0.0909  0.5419
  188SAPI  H17R21656   5.148   2.131   8.089 -0.3175 -0.4765 -1.6461
  188SAPI  H17S21657   5.281   2.075   8.191  0.0882 -1.4746  0.2555
  188SAPI  C21821658   5.114   1.924   8.178  0.4773  0.0367 -0.2209
  188SAPI  H18R21659   5.189   1.843   8.189  0.5727 -0.0942 -1.5926
  188SAPI  H18S21660   5.044   1.894   8.097  0.8911  2.9487 -1.7872
  188SAPI  C21921661   5.049   1.962   8.310  0.4889  0.6059 -0.1802
  188SAPI  H19R21662   4.948   1.917   8.312  1.5044 -2.0534 -2.2902
  188SAPI  H19S21663   5.034   2.072   8.301  0.6501  0.5119 -1.7214
  188SAPI  C22021664   5.131   1.925   8.434 -0.2543 -0.5555  0.5082
  188SAPI  H20R21665   5.121   1.824   8.479 -0.3041 -0.4085  0.8305
  188SAPI  H20S21666   5.095   1.997   8.511  2.5391  0.3702  1.0795
  188SAPI  H20T21667   5.240   1.939   8.417 -0.4123 -0.6608 -0.6898
  188SAPI   C3321668   4.992   2.118   7.429  0.4438 -0.1435  0.1985
  188SAPI   H3X21669   4.894   2.069   7.408  1.4299 -1.2786 -2.1039
  188SAPI   H3Y21670   4.970   2.180   7.519 -0.4431 -1.2803  0.8024
  188SAPI   C3421671   5.121   2.022   7.440  0.0830  0.2308 -0.3717
  188SAPI   H4X21672   5.209   2.088   7.429  1.6733 -1.6645  0.4219
  188SAPI   H4Y21673   5.108   1.936   7.370 -2.8563  1.4414 -1.4731
  188SAPI   C3521674   5.137   1.958   7.575  0.3057  0.1818 -0.8086
  188SAPI   H5X21675   5.107   2.018   7.664  1.1569 -1.3936  0.6245
  188SAPI   H5Y21676   5.245   1.948   7.597  0.2787 -1.5227 -1.2543
  188SAPI   C3621677   5.071   1.821   7.587 -0.8538 -0.1892  0.0334
  188SAPI   H6X21678   5.111   1.751   7.511 -0.1884  1.0625 -0.8003
  188SAPI   H6Y21679   4.966   1.834   7.554 -0.0605 -0.2087 -2.7261
  188SAPI   C3721680   5.074   1.760   7.729 -0.2949  0.1264  0.4332
  188SAPI   H7X21681   5.037   1.822   7.814  1.2643 -0.0471  1.2840
  188SAPI   H7Y21682   5.183   1.749   7.750 -0.2736 -0.4085  0.0530
  188SAPI   C3821683   5.007   1.626   7.719 -0.6944 -0.5517 -0.6359
  188SAPI   H8X21684   5.057   1.562   7.644 -1.6943 -1.6006 -0.4279
  188SAPI   H8Y21685   4.902   1.636   7.684  0.2460  1.8655 -3.1071
  188SAPI   C3921686   5.007   1.554   7.857  0.7267 -0.1897 -0.4080
  188SAPI   H9X21687   5.115   1.547   7.884  0.6753  2.1182  0.5956
  188SAPI   H9Y21688   4.979   1.447   7.847  0.8280 -0.0877 -2.0293
  188SAPI  C31021689   4.926   1.623   7.971  0.9470 -0.0395  0.2695
  188SAPI  H10X21690   4.824   1.647   7.933  0.9979 -0.2633 -0.0174
  188SAPI  H10Y21691   4.981   1.718   7.991 -0.3505  0.6800  0.5131
  188SAPI  C31121692   4.921   1.537   8.099  0.3182  0.1162 -0.0627
  188SAPI  H11X21693   5.020   1.486   8.096 -0.0689 -0.6562 -0.0733
  188SAPI  H11Y21694   4.843   1.459   8.082  0.4066  0.0612 -0.2233
  188SAPI  C31221695   4.905   1.622   8.222  0.8368  0.2679  0.4902
  188SAPI  H12X21696   4.808   1.675   8.218  0.7059 -0.0385 -0.8761
  188SAPI  H12Y21697   4.983   1.701   8.223  0.6828  0.4145  0.8150
  188SAPI  C31321698   4.914   1.546   8.361  0.4253 -0.1900 -0.2011
  188SAPI  H13X21699   5.022   1.521   8.351  0.1499 -0.9377 -1.6559
  188SAPI  H13Y21700   4.852   1.454   8.360 -0.8232  0.6052  0.9092
  188SAPI  C31421701   4.894   1.637   8.483 -0.7462  1.1190 -0.7190
  188SAPI  H14X21702   4.965   1.723   8.487 -0.1167  0.6303 -1.2317
  188SAPI  H14Y21703   4.918   1.588   8.580 -0.3933  3.2349  0.3347
  188SAPI  C31521704   4.745   1.677   8.503 -0.6296 -0.2499 -0.3551
  188SAPI  H15X21705   4.693   1.580   8.518 -1.1155 -0.0489 -0.7409
  188SAPI  H15Y21706   4.710   1.732   8.414  3.0802  2.1498 -0.5459
  188SAPI  C31621707   4.728   1.776   8.617  0.2356 -0.1988  0.1081
  188SAPI  H16X21708   4.769   1.877   8.598 -0.6773  0.4376  1.3673
  188SAPI  H16Y21709   4.784   1.748   8.709 -2.2690 -3.5531  0.7869
  188SAPI  C31721710   4.582   1.779   8.672  0.6973 -0.1335  0.2407
  188SAPI  H17X21711   4.580   1.845   8.761  2.0088 -0.5719  0.6156
  188SAPI  H17Y21712   4.541   1.680   8.701  0.3408 -0.1111 -0.1774
  188SAPI  C31821713   4.483   1.856   8.581 -0.1151 -0.0501  0.1004
  188SAPI  H18X21714   4.394   1.900   8.630  1.1820  0.1074  2.4784
  188SAPI  H18Y21715   4.448   1.796   8.494  3.1147 -0.7000 -0.9023
  188SAPI  H18Z21716   4.534   1.947   8.542 -0.1551  0.0481  0.2782
  189POPC     N21717   4.591   2.445  10.938 -0.0251  0.8501  0.5718
  189POPC   C1221718   4.601   2.551  11.042 -0.4909 -0.4290 -0.9571
  189POPC  H12A21719   4.623   2.506  11.137  0.5324 -1.7938 -1.7845
  189POPC  H12B21720   4.504   2.596  11.053 -0.0857  0.6745 -1.6967
  189POPC   C1321721   4.545   2.494  10.804 -0.1596  0.1742  0.2510
  189POPC  H13A21722   4.596   2.580  10.762 -0.2746 -0.3563 -1.0273
  189POPC  H13B21723   4.560   2.427  10.721  0.4282 -0.1935  0.6472
  189POPC  H13C21724   4.444   2.529  10.820 -0.4844 -0.4687 -0.3480
  189POPC   C1421725   4.711   2.368  10.909 -0.7358 -0.2303 -0.3305
  189POPC  H14A21726   4.787   2.441  10.883 -0.6298 -0.7594 -1.6186
  189POPC  H14B21727   4.736   2.308  10.994 -1.2575 -0.8559 -0.6128
  189POPC  H14C21728   4.712   2.297  10.828  2.4343 -1.7429  0.8515
  189POPC   C1521729   4.497   2.339  10.983 -1.0552  0.0236  0.7791
  189POPC  H15A21730   4.557   2.280  11.050  0.4202  2.4895  1.7260
  189POPC  H15B21731   4.466   2.277  10.900  1.1874 -0.2538  0.0837
  189POPC  H15C21732   4.414   2.383  11.036 -0.9591 -2.3607  3.1228
  189POPC   C1121733   4.706   2.666  11.010  0.8334 -0.7745 -0.2373
  189POPC  H11A21734   4.798   2.624  10.964  1.1387  2.3943 -2.9661
  189POPC  H11B21735   4.738   2.715  11.104 -0.2575 -0.8639  0.1990
  189POPC     P21736   4.761   2.867  10.847  0.1140 -0.1698  0.2816
  189POPC   O1321737   4.891   2.876  10.909 -0.4685  0.1820 -0.4318
  189POPC   O1421738   4.708   2.998  10.807 -0.1141 -0.0965 -0.6022
  189POPC   O1221739   4.659   2.770  10.926  0.0742 -0.1314  0.3950
  189POPC   O1121740   4.785   2.779  10.719  0.4832  0.0030  0.2710
  189POPC    C121741   4.689   2.758  10.619  0.3347  0.6986 -0.2366
  189POPC    HA21742   4.582   2.750  10.648  0.5805  3.3120  1.7491
  189POPC    HB21743   4.698   2.655  10.580  0.7811  0.4297  0.5712
  189POPC    C221744   4.689   2.856  10.496  0.0103  0.7346 -0.0299
  189POPC    HS21745   4.644   2.954  10.518 -0.8080  0.1868  0.8034
  189POPC   O2121746   4.602   2.795  10.394 -0.5850  0.3932 -0.1147
  189POPC   C2121747   4.480   2.813  10.413  0.2455  0.2067 -0.6811
  189POPC   O2221748   4.432   2.878  10.508  0.2234 -0.1750  0.0350
  189POPC   C2221749   4.404   2.761  10.294  0.3773 -0.8750 -0.3518
  189POPC   H2R21750   4.389   2.653  10.316  0.3550 -0.4849  1.6846
  189POPC   H2S21751   4.477   2.766  10.210  1.0846  1.7175  0.3293
  189POPC    C321752   4.832   2.881  10.443  0.0629 -0.0245  0.3045
  189POPC    HX21753   4.888   2.785  10.438 -0.3397 -0.1967 -2.4987
  189POPC    HY21754   4.872   2.943  10.525  0.2136  0.5763 -0.2211
  189POPC   O3121755   4.829   2.955  10.321  0.5082  0.2358 -0.7658
  189POPC   C3121756   4.934   2.935  10.246 -0.5664  0.0696 -0.0895
  189POPC   O3221757   5.041   2.879  10.270 -0.2174 -0.2881  0.0072
  189POPC   C3221758   4.916   3.015  10.113  0.3491 -0.5127  0.3239
  189POPC   H2X21759   4.965   3.113  10.134  1.2043 -0.4225 -1.8475
  189POPC   H2Y21760   4.809   3.028  10.087  0.5491  1.7237  0.3645
  189POPC   C2321761   4.257   2.817  10.276 -0.1701 -0.9131  0.2124
  189POPC   H3R21762   4.218   2.841  10.377 -0.7787 -1.4137  0.0993
  189POPC   H3S21763   4.191   2.736  10.239  1.0188 -1.1564 -1.5135
  189POPC   C2421764   4.254   2.935  10.175  0.6400  0.1433  0.2719
  189POPC   H4R21765   4.330   3.004  10.219  1.4924 -1.5632  1.6264
  189POPC   H4S21766   4.157   2.988  10.177 -0.7201 -2.2061  2.0160
  189POPC   C2521767   4.305   2.916  10.034 -0.4071 -0.6376  0.2001
  189POPC   H5R21768   4.269   2.819   9.992 -0.6463 -0.6430  0.4135
  189POPC   H5S21769   4.415   2.907  10.042 -0.6368 -3.3464  1.6201
  189POPC   C2621770   4.264   3.045   9.953 -0.1268  0.1306  0.0782
  189POPC   H6R21771   4.272   3.138  10.014 -1.4394  1.1235 -1.1882
  189POPC   H6S21772   4.157   3.040   9.924 -0.5091  0.7965  1.2988
  189POPC   C2721773   4.341   3.059   9.822 -0.2022  0.2137  1.4463
  189POPC   H7R21774   4.448   3.060   9.852  0.8791 -2.6103 -1.6227
  189POPC   H7S21775   4.320   3.154   9.768  1.7595  0.4275  0.9553
  189POPC   C2821776   4.336   2.934   9.731  0.3992  0.1758 -0.6705
  189POPC   H8R21777   4.341   2.839   9.788  0.7350  1.8298  2.2703
  189POPC   H8S21778   4.432   2.936   9.675  0.9744  0.6138  0.2888
  189POPC   C2921779   4.214   2.938   9.633 -1.1541  0.7194 -0.3208
  189POPC   H9121780   4.135   2.871   9.672  0.6756 -1.1838  0.3288
  189POPC  C21021781   4.192   2.992   9.515  0.6596 -0.2055 -0.4961
  189POPC  H10121782   4.098   2.974   9.461 -0.0151  0.9093  0.2661
  189POPC  C21121783   4.295   3.068   9.438  0.1688  0.4471  0.1208
  189POPC  H11R21784   4.379   3.095   9.506 -0.3141  0.1267  0.8557
  189POPC  H11S21785   4.262   3.165   9.395  1.0166  0.0914 -1.3946
  189POPC  C21221786   4.360   2.969   9.337  0.3556 -0.0173 -0.5460
  189POPC  H12R21787   4.409   2.881   9.384  1.1337 -0.6931 -2.5133
  189POPC  H12S21788   4.445   3.017   9.285  0.9898  0.3066  0.7455
  189POPC  C21321789   4.266   2.919   9.229 -0.0721 -0.3187 -0.2542
  189POPC  H13R21790   4.196   2.995   9.189 -0.7477 -0.0642  1.3340
  189POPC  H13S21791   4.208   2.840   9.281  1.9593 -1.0633  0.9932
  189POPC  C21421792   4.339   2.855   9.108  0.1769 -0.0242 -0.8861
  189POPC  H14R21793   4.413   2.781   9.144  0.7787  1.7765  1.9097
  189POPC  H14S21794   4.401   2.935   9.061  0.9957 -1.5657 -2.5134
  189POPC  C21521795   4.243   2.813   9.001  0.1580  0.0624  0.3289
  189POPC  H15R21796   4.148   2.871   9.002 -0.8664 -1.5220 -0.3351
  189POPC  H15S21797   4.214   2.707   9.018 -1.1601  0.5979  1.5920
  189POPC  C21621798   4.306   2.816   8.862 -0.2416 -0.1181 -0.2131
  189POPC  H16R21799   4.386   2.739   8.861  1.6184  1.6847  1.3081
  189POPC  H16S21800   4.355   2.914   8.845 -1.9362  0.6257 -0.9906
  189POPC  C21721801   4.216   2.797   8.742 -0.2107  0.2207  0.7313
  189POPC  H17R21802   4.151   2.886   8.724 -3.4818 -1.6590  2.2680
  189POPC  H17S21803   4.134   2.726   8.769  0.9221 -0.9071  1.3198
  189POPC  C21821804   4.289   2.739   8.615  0.4192  0.5410 -0.2819
  189POPC  H18R21805   4.337   2.642   8.637  1.8050  1.4009  0.5943
  189POPC  H18S21806   4.372   2.810   8.592  2.7508 -1.0560  2.5520
  189POPC  H18T21807   4.214   2.723   8.535  0.0206 -1.5173  0.4551
  189POPC   C3321808   4.984   2.949   9.986 -0.0069  0.0677 -0.1720
  189POPC   H3X21809   4.917   2.863   9.964 -0.0042  0.1267 -0.4103
  189POPC   H3Y21810   5.084   2.916  10.023 -0.9843 -1.8395  0.9557
  189POPC   C3421811   4.987   3.030   9.855  0.0652  0.1499  0.1705
  189POPC   H4X21812   5.030   3.127   9.887 -1.7774  0.5803  1.4512
  189POPC   H4Y21813   4.885   3.056   9.821 -0.3769  0.9098  1.9719
  189POPC   C3521814   5.063   2.959   9.739 -0.1125 -0.1868  0.2227
  189POPC   H5X21815   5.057   2.848   9.735 -1.0762 -0.1121 -1.8053
  189POPC   H5Y21816   5.167   2.994   9.758 -1.0756  2.4765  1.0045
  189POPC   C3621817   5.031   3.011   9.596  0.1570 -0.3490 -0.5884
  189POPC   H6X21818   5.063   3.117   9.605  0.7340 -0.6112  0.6401
  189POPC   H6Y21819   4.924   3.009   9.564 -0.6138 -0.3757  1.8206
  189POPC   C3721820   5.119   2.949   9.492  0.5061  0.5822  0.2310
  189POPC   H7X21821   5.099   2.842   9.471 -0.9170  0.6527  1.0883
  189POPC   H7Y21822   5.225   2.955   9.525  0.6489  0.6900 -0.2376
  189POPC   C3821823   5.110   3.021   9.357  0.3331  0.7098 -0.1387
  189POPC   H8X21824   5.130   3.130   9.368 -1.2772  0.9873  0.2233
  189POPC   H8Y21825   5.005   3.008   9.324  0.0348  2.8020 -0.1489
  189POPC   C3921826   5.222   2.964   9.265  0.3960 -0.6031  0.4297
  189POPC   H9X21827   5.225   2.853   9.264  1.5095 -0.5973  1.2997
  189POPC   H9Y21828   5.321   2.997   9.303 -0.9074  2.3527  1.5676
  189POPC  C31021829   5.204   3.023   9.126 -0.6557 -0.0406  0.0516
  189POPC  H10X21830   5.229   3.131   9.127 -2.3603  0.4207 -1.3388
  189POPC  H10Y21831   5.099   3.008   9.091 -1.1847  2.3539  0.4499
  189POPC  C31121832   5.291   2.971   9.013 -0.3131 -0.2396  0.8442
  189POPC  H11X21833   5.396   2.972   9.049  0.3799  3.7138 -0.7520
  189POPC  H11Y21834   5.268   3.041   8.930 -1.6058 -3.0378 -1.3500
  189POPC  C31221835   5.262   2.832   8.962  0.5229 -0.2501 -0.1983
  189POPC  H12X21836   5.152   2.833   8.954  0.5443 -1.0914 -0.6900
  189POPC  H12Y21837   5.296   2.771   9.048 -0.8634  0.5903  0.9852
  189POPC  C31321838   5.345   2.788   8.842 -0.3250  0.3262 -0.4812
  189POPC  H13X21839   5.316   2.689   8.801  1.3580  0.1696 -1.3713
  189POPC  H13Y21840   5.451   2.786   8.876 -0.1303 -3.0258 -0.9498
  189POPC  C31421841   5.323   2.867   8.713 -0.2497 -0.1396  0.1143
  189POPC  H14X21842   5.363   2.971   8.711  1.0105 -0.6109 -0.0514
  189POPC  H14Y21843   5.212   2.867   8.705 -0.3174  0.7334  0.8810
  189POPC  C31521844   5.389   2.797   8.592  0.2695  0.1172  0.2038
  189POPC  H15X21845   5.343   2.697   8.585 -1.8626  1.0588 -0.0885
  189POPC  H15Y21846   5.499   2.790   8.604  0.6100  0.5490 -2.2536
  189POPC  C31621847   5.356   2.844   8.454  0.0130 -0.8746 -0.0786
  189POPC  H16X21848   5.432   2.800   8.385  1.0409 -0.4290  0.7301
  189POPC  H16Y21849   5.350   2.955   8.451 -0.8718 -0.9300 -0.5539
  189POPC  H16Z21850   5.252   2.807   8.446 -1.1975  0.8406  4.6680
  190POPC     N21851   0.363   5.048  11.496  0.2088  1.2601 -0.3864
  190POPC   C1221852   0.315   5.008  11.357 -0.0834 -0.3726  0.1778
  190POPC  H12A21853   0.280   5.097  11.305  2.1132  1.4644  1.6332
  190POPC  H12B21854   0.230   4.943  11.370  0.6558 -0.7821  3.9655
  190POPC   C1321855   0.245   5.099  11.572 -0.3462  0.3077 -0.8463
  190POPC  H13A21856   0.220   5.203  11.556 -3.1038 -0.1552 -0.1042
  190POPC  H13B21857   0.154   5.041  11.569 -1.0348  1.3766 -1.9248
  190POPC  H13C21858   0.281   5.109  11.673 -1.6434  1.4610 -0.4569
  190POPC   C1421859   0.422   4.927  11.558 -0.6639  1.2058 -0.1466
  190POPC  H14A21860   0.425   4.936  11.665 -1.1243 -2.8466  0.3681
  190POPC  H14B21861   0.369   4.837  11.529  3.1146 -0.7346 -1.7452
  190POPC  H14C21862   0.524   4.899  11.538  0.1263  2.3979  1.9849
  190POPC   C1521863   0.464   5.155  11.483 -0.1178 -0.1119  0.5835
  190POPC  H15A21864   0.508   5.173  11.579  2.3769  0.4918 -0.5955
  190POPC  H15B21865   0.433   5.245  11.432 -0.5605 -0.3423  0.4369
  190POPC  H15C21866   0.550   5.126  11.425  0.8305  0.1613  1.8303
  190POPC   C1121867   0.422   4.947  11.260  0.0285 -0.2963  0.1700
  190POPC  H11A21868   0.369   4.910  11.170  0.5046  1.5491 -0.9094
  190POPC  H11B21869   0.461   4.854  11.307 -1.6644 -0.9530  0.3399
  190POPC     P21870   0.485   5.139  11.099 -0.0935 -0.2073  0.0072
  190POPC   O1321871   0.596   5.235  11.083  0.4477 -0.1096 -0.3337
  190POPC   O1421872   0.355   5.201  11.131  0.2591  0.1856  0.1269
  190POPC   O1221873   0.522   5.050  11.223 -0.3599 -0.1685  0.3589
  190POPC   O1121874   0.466   5.038  10.983 -0.7354  0.4057 -0.1840
  190POPC    C121875   0.584   4.979  10.920  0.0440 -0.4939  0.0028
  190POPC    HA21876   0.571   4.871  10.900 -0.4099  0.0573 -3.2436
  190POPC    HB21877   0.674   4.996  10.983  0.6142 -3.5031  0.1352
  190POPC    C221878   0.592   5.047  10.781  0.2370 -0.0918 -0.1882
  190POPC    HS21879   0.663   4.976  10.733  0.3943 -0.2721  0.3090
  190POPC   O2121880   0.646   5.179  10.797  0.5564 -0.0186  1.1528
  190POPC   C2121881   0.692   5.236  10.685 -0.1029 -0.0683 -0.0695
  190POPC   O2221882   0.728   5.184  10.586 -1.1608 -0.2662  0.0157
  190POPC   C2221883   0.697   5.387  10.699 -0.2535 -0.1762  0.7690
  190POPC   H2R21884   0.802   5.420  10.717 -0.2605  0.5377 -0.3848
  190POPC   H2S21885   0.634   5.412  10.787 -1.3066 -4.3580  1.4305
  190POPC    C321886   0.463   5.041  10.693  0.0774  0.5318  0.0717
  190POPC    HX21887   0.382   5.106  10.734 -0.8339 -1.1969  1.1526
  190POPC    HY21888   0.411   4.944  10.710  0.9695  0.2898  1.5328
  190POPC   O3121889   0.476   5.062  10.551 -0.4459  0.2157 -0.2601
  190POPC   C3121890   0.525   4.959  10.481 -0.1041 -0.2037  0.0572
  190POPC   O3221891   0.563   4.856  10.534  0.0808 -0.1016 -0.0711
  190POPC   C3221892   0.515   4.986  10.331  0.3183 -0.2345  0.5931
  190POPC   H2X21893   0.415   4.947  10.300  0.8072 -0.6770 -0.4677
  190POPC   H2Y21894   0.586   4.920  10.277 -2.1993 -2.2037 -0.5149
  190POPC   C2321895   0.651   5.461  10.570 -0.2465 -0.7609 -0.5251
  190POPC   H3R21896   0.697   5.422  10.477 -0.7901 -1.1942 -0.6160
  190POPC   H3S21897   0.692   5.563  10.586 -1.8227 -0.0604 -0.7680
  190POPC   C2421898   0.496   5.471  10.564 -0.7537 -0.0195 -0.4327
  190POPC   H4R21899   0.442   5.509  10.653 -1.8896  1.0639 -1.5504
  190POPC   H4S21900   0.467   5.369  10.530  0.6198 -1.0235  1.2469
  190POPC   C2521901   0.456   5.579  10.458 -0.4888  0.5369 -0.0954
  190POPC   H5R21902   0.487   5.684  10.478 -1.3357  0.4633  1.7763
  190POPC   H5S21903   0.345   5.577  10.461 -0.4674  0.2545  1.6023
  190POPC   C2621904   0.502   5.538  10.315  0.1269 -0.0188 -0.0938
  190POPC   H6R21905   0.482   5.429  10.312  0.8791 -0.1873  0.7102
  190POPC   H6S21906   0.611   5.557  10.307 -0.0410  1.0797  0.0175
  190POPC   C2721907   0.421   5.606  10.207  0.3514 -0.7380  0.4682
  190POPC   H7R21908   0.446   5.714  10.199 -1.0434 -0.5289 -3.9152
  190POPC   H7S21909   0.312   5.609  10.229 -0.2870  0.8907 -2.3313
  190POPC   C2821910   0.443   5.542  10.064  0.4201 -0.2278 -0.3189
  190POPC   H8R21911   0.377   5.581   9.984  2.0448  1.6332 -0.8456
  190POPC   H8S21912   0.420   5.434  10.073 -0.9530  0.1822  1.5671
  190POPC   C2921913   0.586   5.559  10.015  0.2679 -0.2404  0.1232
  190POPC   H9121914   0.660   5.566  10.096 -1.1251  0.4656  1.3832
  190POPC  C21021915   0.629   5.591   9.896  0.1344 -0.8260 -0.0392
  190POPC  H10121916   0.735   5.601   9.866 -0.0728  0.6298 -0.3843
  190POPC  C21121917   0.549   5.610   9.771 -0.1472  0.3908 -0.5149
  190POPC  H11R21918   0.516   5.716   9.764  2.6230  1.3318 -0.6545
  190POPC  H11S21919   0.454   5.553   9.764 -0.1856  0.6758 -2.8699
  190POPC  C21221920   0.636   5.571   9.653 -0.2445  0.0115  0.2916
  190POPC  H12R21921   0.661   5.463   9.657  2.7633  0.5852 -0.6269
  190POPC  H12S21922   0.727   5.632   9.637 -0.2841 -0.1063 -0.4286
  190POPC  C21321923   0.557   5.582   9.523  0.1901 -0.2453 -0.0142
  190POPC  H13R21924   0.520   5.686   9.512  0.8780  0.1199  0.9545
  190POPC  H13S21925   0.481   5.501   9.525 -1.7433  1.5119  1.6646
  190POPC  C21421926   0.651   5.540   9.412 -1.0525  0.0933 -0.0526
  190POPC  H14R21927   0.684   5.438   9.440 -0.4542  0.2682 -0.0959
  190POPC  H14S21928   0.744   5.601   9.407  0.2910 -1.8234  0.5251
  190POPC  C21521929   0.590   5.547   9.273  0.7773 -0.4698  0.1584
  190POPC  H15R21930   0.567   5.655   9.260  1.6553 -0.2543  0.3755
  190POPC  H15S21931   0.492   5.499   9.253  0.7001  0.7415 -2.7844
  190POPC  C21621932   0.683   5.514   9.155 -1.0099 -0.8915 -0.5002
  190POPC  H16R21933   0.720   5.410   9.148  0.5040 -0.3028 -1.5856
  190POPC  H16S21934   0.776   5.563   9.189 -0.5174 -1.9864 -0.2370
  190POPC  C21721935   0.638   5.565   9.017  0.4250  0.1063 -0.4658
  190POPC  H17R21936   0.533   5.531   9.001  0.8182 -0.1010 -2.9153
  190POPC  H17S21937   0.707   5.515   8.946  0.2463  2.1629 -2.1932
  190POPC  C21821938   0.634   5.718   9.001 -0.8598  0.1774 -0.0099
  190POPC  H18R21939   0.713   5.777   9.052 -2.0589 -0.7035  3.0566
  190POPC  H18S21940   0.542   5.753   9.052 -0.6623 -0.3435  0.7167
  190POPC  H18T21941   0.634   5.747   8.894  1.8338  0.0935 -0.1157
  190POPC   C3321942   0.522   5.129  10.273  0.1956  0.6051 -0.5741
  190POPC   H3X21943   0.626   5.164  10.290  0.0017  0.6356  0.6016
  190POPC   H3Y21944   0.465   5.203  10.334 -1.5867 -1.8542  0.9350
  190POPC   C3421945   0.476   5.140  10.133  0.3341  0.5215 -0.6247
  190POPC   H4X21946   0.435   5.242  10.121 -0.7887 -0.1124 -2.6897
  190POPC   H4Y21947   0.393   5.070  10.110 -0.0778  1.0332 -0.7094
  190POPC   C3521948   0.570   5.118  10.017 -1.1311 -0.0792  0.2214
  190POPC   H5X21949   0.612   5.015  10.020  1.1866  0.8518  1.6355
  190POPC   H5Y21950   0.666   5.169  10.036 -0.2816 -1.8505  0.9404
  190POPC   C3621951   0.525   5.151   9.883 -0.4952  0.4418 -0.0866
  190POPC   H6X21952   0.511   5.260   9.865 -0.5381  0.2506 -1.2699
  190POPC   H6Y21953   0.426   5.106   9.860 -0.8180  0.9821  0.2271
  190POPC   C3721954   0.621   5.094   9.774 -0.4261 -0.4025  0.3242
  190POPC   H7X21955   0.627   4.983   9.783  0.7479 -0.4236 -0.4992
  190POPC   H7Y21956   0.724   5.133   9.790 -1.1189  2.1798 -0.9460
  190POPC   C3821957   0.587   5.144   9.633  0.2647  0.0556 -0.0210
  190POPC   H8X21958   0.606   5.253   9.631 -1.1885  0.3217 -0.2016
  190POPC   H8Y21959   0.480   5.122   9.617  0.1532  0.0777  0.6507
  190POPC   C3921960   0.680   5.085   9.522  0.0447 -0.2974  0.0410
  190POPC   H9X21961   0.674   4.974   9.525  2.9572 -0.5732 -0.9903
  190POPC   H9Y21962   0.789   5.110   9.525 -0.0775  0.1698  1.4503
  190POPC  C31021963   0.627   5.126   9.380 -0.1369 -0.3619  0.7350
  190POPC  H10X21964   0.633   5.236   9.367  1.2037 -0.6377 -1.3285
  190POPC  H10Y21965   0.523   5.090   9.369 -0.9957  1.1494  3.2174
  190POPC  C31121966   0.701   5.053   9.264  0.8274  0.2707  0.0465
  190POPC  H11X21967   0.692   4.943   9.279  0.6889  0.4359  1.2570
  190POPC  H11Y21968   0.811   5.069   9.268  1.1003 -1.4511  0.6655
  190POPC  C31221969   0.642   5.071   9.122 -0.1510  0.2655  0.2509
  190POPC  H12X21970   0.666   5.174   9.088 -0.4909  0.6773  1.2088
  190POPC  H12Y21971   0.533   5.053   9.121 -0.0843 -0.4094  2.0262
  190POPC  C31321972   0.694   4.966   9.021 -0.6103 -0.3921  0.0249
  190POPC  H13X21973   0.686   4.868   9.072 -1.3525  0.0766  0.8467
  190POPC  H13Y21974   0.802   4.986   9.005  0.0691 -2.3663  1.7340
  190POPC  C31421975   0.620   4.971   8.887 -0.6055 -0.5163 -0.1414
  190POPC  H14X21976   0.613   5.078   8.858  0.2877 -0.4616 -0.1854
  190POPC  H14Y21977   0.515   4.937   8.899 -1.6990  1.9351 -2.0755
  190POPC  C31521978   0.693   4.891   8.775  0.3453 -0.3753 -0.5548
  190POPC  H15X21979   0.685   4.785   8.809  0.4343 -0.2359 -0.0951
  190POPC  H15Y21980   0.800   4.922   8.775  0.1380  0.3503 -0.2783
  190POPC  C31621981   0.640   4.894   8.632 -0.1832 -0.4809  0.7082
  190POPC  H16X21982   0.533   4.864   8.632 -0.1809 -0.6594  2.7560
  190POPC  H16Y21983   0.695   4.815   8.578  0.7026  0.0678  0.7808
  190POPC  H16Z21984   0.661   4.991   8.581  1.0170 -0.0399  1.9523
  191POPC     N21985   1.967   1.356   6.262  0.1140  0.4771 -1.0055
  191POPC   C1221986   1.996   1.244   6.363  0.6069 -0.5660  0.6362
  191POPC  H12A21987   1.987   1.152   6.306  1.2393  0.6083 -1.4438
  191POPC  H12B21988   1.924   1.245   6.443  0.4596 -0.5217  0.5044
  191POPC   C1321989   1.841   1.338   6.189 -0.7231 -0.3090  0.1556
  191POPC  H13A21990   1.824   1.235   6.159  2.8275 -0.8948 -0.3393
  191POPC  H13B21991   1.761   1.363   6.256  0.3688 -0.0986  1.4181
  191POPC  H13C21992   1.835   1.404   6.104  0.6968  1.4117  1.3156
  191POPC   C1421993   1.957   1.478   6.326  1.5691  0.0697  0.8440
  191POPC  H14A21994   2.057   1.511   6.352  1.3126  2.0748 -0.4910
  191POPC  H14B21995   1.924   1.559   6.264 -0.4354  0.1821  1.9813
  191POPC  H14C21996   1.895   1.471   6.415  1.3088  0.6547  0.7136
  191POPC   C1521997   2.082   1.361   6.161 -0.2989  0.1873 -0.1533
  191POPC  H15A21998   2.097   1.461   6.124  2.9616  0.7626  2.2711
  191POPC  H15B21999   2.074   1.289   6.080 -0.4863  0.5973 -0.5023
  191POPC  H15C22000   2.171   1.324   6.209  0.5774  1.1176 -1.0219
  191POPC   C1122001   2.139   1.225   6.410 -0.2265  0.2149  0.3361
  191POPC  H11A22002   2.129   1.156   6.497 -1.0184  0.9128  0.8101
  191POPC  H11B22003   2.173   1.319   6.459  1.3376 -0.8018  1.2818
  191POPC     P22004   2.237   1.008   6.314 -0.0062 -0.0108  0.2635
  191POPC   O1322005   2.308   0.964   6.187 -0.9972  0.1825 -0.4254
  191POPC   O1422006   2.105   0.949   6.338 -0.2174 -0.2434  0.0875
  191POPC   O1222007   2.219   1.167   6.306  0.0987 -0.7289 -0.1467
  191POPC   O1122008   2.331   0.982   6.439  0.4869 -0.4283  0.0048
  191POPC    C122009   2.434   1.074   6.469  0.2435  0.0405 -0.4122
  191POPC    HA22010   2.389   1.175   6.460 -2.4661 -1.2063 -2.0293
  191POPC    HB22011   2.522   1.058   6.403 -0.2236 -0.9764 -0.8058
  191POPC    C222012   2.473   1.069   6.618  0.2128 -0.0983 -0.3118
  191POPC    HS22013   2.531   0.977   6.642  1.7017  1.4535  2.5927
  191POPC   O2122014   2.358   1.090   6.710  0.2290  0.0226  0.0893
  191POPC   C2122015   2.299   0.967   6.743 -1.0200 -0.0841  0.2161
  191POPC   O2222016   2.328   0.864   6.690 -0.5112  0.3203  0.4405
  191POPC   C2222017   2.193   0.998   6.855  0.2930  0.1520 -0.0522
  191POPC   H2R22018   2.125   1.075   6.812 -0.8931 -1.7518 -1.7587
  191POPC   H2S22019   2.242   1.060   6.933 -1.3844  1.6426 -0.1260
  191POPC    C322020   2.589   1.179   6.641  0.4831 -0.3108  0.7031
  191POPC    HX22021   2.538   1.277   6.626  1.0838 -0.0470  0.3327
  191POPC    HY22022   2.662   1.168   6.559  0.6810 -1.4408  1.0211
  191POPC   O3122023   2.652   1.154   6.771  0.3465  0.1622 -0.5963
  191POPC   C3122024   2.701   1.261   6.826 -0.5970 -1.0807 -0.2470
  191POPC   O3222025   2.707   1.374   6.782 -0.1111 -0.0283  0.2784
  191POPC   C3222026   2.753   1.228   6.966  0.4234  0.1644  0.0246
  191POPC   H2X22027   2.847   1.287   6.969 -0.4886  1.6631  2.4545
  191POPC   H2Y22028   2.784   1.122   6.966 -1.9529 -0.5808 -0.4744
  191POPC   C2322029   2.104   0.883   6.903 -0.8590 -0.2970 -0.3895
  191POPC   H3R22030   2.070   0.831   6.811 -0.4175 -0.0098 -0.7213
  191POPC   H3S22031   2.012   0.917   6.955 -0.0750  0.5784  0.4676
  191POPC   C2422032   2.183   0.779   6.979  0.1021  0.7863 -0.5635
  191POPC   H4R22033   2.263   0.726   6.922  1.0424 -0.8460  2.1020
  191POPC   H4S22034   2.117   0.695   7.009 -0.3995  0.9295 -1.2282
  191POPC   C2522035   2.243   0.832   7.111  0.0122  0.2672  0.2713
  191POPC   H5R22036   2.322   0.901   7.074 -1.2834  0.9936 -1.2664
  191POPC   H5S22037   2.286   0.738   7.150 -1.3023 -1.8338 -2.9264
  191POPC   C2622038   2.135   0.898   7.208 -1.1242  0.3571  0.4588
  191POPC   H6R22039   2.082   0.977   7.152 -0.7252  0.9650  0.9175
  191POPC   H6S22040   2.194   0.938   7.293  0.4283 -0.9360  0.0553
  191POPC   C2722041   2.041   0.790   7.259  0.6618 -0.0990  0.3678
  191POPC   H7R22042   2.100   0.730   7.331  0.3999  1.3301  1.8137
  191POPC   H7S22043   1.995   0.719   7.187  0.8613 -1.2453  1.3368
  191POPC   C2822044   1.918   0.839   7.334 -0.1379 -0.3908 -0.1993
  191POPC   H8R22045   1.841   0.872   7.260  1.0954 -1.7260 -2.1804
  191POPC   H8S22046   1.952   0.920   7.402  0.7944 -0.7039 -0.2741
  191POPC   C2922047   1.848   0.736   7.408 -0.0913 -0.0214 -0.2486
  191POPC   H9122048   1.799   0.670   7.335  1.6381 -0.9178 -0.6602
  191POPC  C21022049   1.850   0.705   7.539 -0.0086 -0.5859 -0.4908
  191POPC  H10122050   1.789   0.630   7.591 -0.4006 -0.0925 -0.2365
  191POPC  C21122051   1.928   0.784   7.640  0.0304  0.0174  0.0303
  191POPC  H11R22052   1.895   0.889   7.650  1.3129  0.6082 -1.4258
  191POPC  H11S22053   2.035   0.790   7.608  0.3072 -2.7365  0.1675
  191POPC  C21222054   1.912   0.720   7.777 -0.8536  0.4499  0.2969
  191POPC  H12R22055   2.007   0.750   7.826 -0.2678 -0.6708 -0.1131
  191POPC  H12S22056   1.917   0.610   7.763  0.1593  0.7987 -2.5382
  191POPC  C21322057   1.788   0.762   7.855  0.5148  0.3068  0.2039
  191POPC  H13R22058   1.694   0.736   7.801  1.3740 -1.3178 -0.6060
  191POPC  H13S22059   1.781   0.872   7.859  2.8728  0.5595 -1.0995
  191POPC  C21422060   1.771   0.685   7.993  0.3043 -0.2421 -0.2421
  191POPC  H14R22061   1.718   0.755   8.061  1.6107  1.1858 -0.6303
  191POPC  H14S22062   1.871   0.672   8.039  0.1174  1.3104  0.6731
  191POPC  C21522063   1.697   0.553   7.994 -0.2313  0.7687  0.5624
  191POPC  H15R22064   1.765   0.476   7.950  0.6420  1.3046  0.9559
  191POPC  H15S22065   1.602   0.566   7.937 -1.8596  3.1735  3.5882
  191POPC  C21622066   1.673   0.502   8.139 -0.5383 -0.0322 -0.4520
  191POPC  H16R22067   1.609   0.412   8.147 -0.1590 -0.2505  0.1931
  191POPC  H16S22068   1.617   0.581   8.193  0.5867 -0.2078  1.0319
  191POPC  C21722069   1.797   0.466   8.215 -0.3086  0.9834  0.7761
  191POPC  H17R22070   1.876   0.544   8.212  0.3761  0.3136 -1.9470
  191POPC  H17S22071   1.840   0.375   8.167 -0.3315  0.2675  2.0771
  191POPC  C21822072   1.762   0.421   8.355  0.6174  0.1394 -0.3078
  191POPC  H18R22073   1.708   0.497   8.416  1.0461  1.5292 -1.6086
  191POPC  H18S22074   1.853   0.392   8.413 -1.3024  0.3345  3.0660
  191POPC  H18T22075   1.704   0.327   8.349  2.8900 -1.3925  0.5153
  191POPC   C3322076   2.671   1.281   7.092  0.1191  0.4458  0.2943
  191POPC   H3X22077   2.635   1.386   7.080 -0.5152  0.1120 -0.9820
  191POPC   H3Y22078   2.739   1.271   7.179  0.6603  1.4317  0.0028
  191POPC   C3422079   2.542   1.206   7.116 -0.1135  0.2199  0.0550
  191POPC   H4X22080   2.566   1.097   7.119 -0.4209  0.1721  1.8219
  191POPC   H4Y22081   2.472   1.222   7.031  0.4956 -3.0263 -1.2105
  191POPC   C3522082   2.498   1.234   7.253 -0.4257 -1.3517 -0.2152
  191POPC   H5X22083   2.476   1.343   7.256  0.7076 -1.1271  0.1348
  191POPC   H5Y22084   2.586   1.222   7.319  1.9529 -0.0213 -2.9517
  191POPC   C3622085   2.370   1.176   7.291 -0.5304  0.8680 -0.3524
  191POPC   H6X22086   2.389   1.072   7.326 -1.4442  0.9004  0.2970
  191POPC   H6Y22087   2.294   1.172   7.211 -0.2643  1.9062 -0.6773
  191POPC   C3722088   2.294   1.252   7.407 -0.2050  0.5570 -0.3452
  191POPC   H7X22089   2.191   1.211   7.403  0.5476 -1.7630  1.6341
  191POPC   H7Y22090   2.282   1.361   7.396  0.4997  0.9048  1.8743
  191POPC   C3822091   2.350   1.221   7.549  0.6129  0.3790 -0.5900
  191POPC   H8X22092   2.446   1.278   7.557 -0.2699  1.6407  2.0046
  191POPC   H8Y22093   2.377   1.114   7.562  0.8612  0.5865  0.7972
  191POPC   C3922094   2.257   1.264   7.658  0.5148 -0.0896  0.1873
  191POPC   H9X22095   2.218   1.368   7.648 -0.1710 -0.4320 -0.7997
  191POPC   H9Y22096   2.309   1.250   7.755  0.6869 -3.5185 -0.3080
  191POPC  C31022097   2.125   1.188   7.668  0.5449 -0.5127  0.3618
  191POPC  H10X22098   2.145   1.091   7.616  1.1811 -1.1719  1.7703
  191POPC  H10Y22099   2.049   1.241   7.608 -0.4505 -0.6075  1.5146
  191POPC  C31122100   2.066   1.167   7.810  0.5825  0.0922 -0.3731
  191POPC  H11X22101   2.152   1.132   7.871  0.4226 -0.3948 -0.4236
  191POPC  H11Y22102   1.991   1.085   7.815  0.0819  0.6006  0.8731
  191POPC  C31222103   1.991   1.287   7.878 -0.4680  0.6267 -0.2224
  191POPC  H12X22104   1.888   1.276   7.839 -0.7486 -1.0634  0.8590
  191POPC  H12Y22105   2.019   1.389   7.845  0.6459  0.4716  0.1745
  191POPC  C31322106   1.969   1.273   8.028  0.1255 -0.1787  0.2401
  191POPC  H13X22107   1.883   1.338   8.052  1.7865  1.5649  1.8645
  191POPC  H13Y22108   2.056   1.313   8.084  0.5887 -0.0736 -0.5297
  191POPC  C31422109   1.934   1.124   8.064  0.2057 -0.4141 -0.3010
  191POPC  H14X22110   2.024   1.059   8.070 -1.0698 -2.5231 -2.4230
  191POPC  H14Y22111   1.860   1.072   7.999  0.4861 -0.8450 -0.2838
  191POPC  C31522112   1.871   1.114   8.198 -0.2228 -0.1726  0.1897
  191POPC  H15X22113   1.769   1.157   8.203  0.4014  1.2499  1.8356
  191POPC  H15Y22114   1.927   1.184   8.264 -2.3019  0.7110  1.0892
  191POPC  C31622115   1.870   0.975   8.237  0.4456  0.4803  0.5744
  191POPC  H16X22116   1.821   0.912   8.159  0.0493 -0.6233  1.6794
  191POPC  H16Y22117   1.810   0.946   8.327  0.0426 -0.6724 -0.0424
  191POPC  H16Z22118   1.966   0.922   8.257  0.6855  0.5100 -0.4765
  192POPC     N22119   6.108   3.511   6.316  0.1347 -0.5004  0.2504
  192POPC   C1222120   5.958   3.522   6.348 -0.6885  0.3123  0.2527
  192POPC  H12A22121   5.946   3.547   6.452  0.6647 -1.7426  0.9475
  192POPC  H12B22122   5.922   3.421   6.336  0.5926 -0.0733 -0.5985
  192POPC   C1322123   6.162   3.647   6.313  0.3825 -0.1465 -0.1107
  192POPC  H13A22124   6.172   3.699   6.407  0.4354 -0.9099  0.3079
  192POPC  H13B22125   6.266   3.628   6.289  0.0227  0.5903 -2.5826
  192POPC  H13C22126   6.123   3.700   6.227 -1.5807 -1.8506 -0.3472
  192POPC   C1422127   6.175   3.425   6.423  0.0440 -0.6196 -0.7915
  192POPC  H14A22128   6.282   3.425   6.414  0.1163  2.0236 -0.6896
  192POPC  H14B22129   6.155   3.467   6.520  1.8879 -2.2950  0.3758
  192POPC  H14C22130   6.142   3.323   6.411  0.5847 -0.8437 -0.3907
  192POPC   C1522131   6.138   3.442   6.184  0.4516 -0.3191 -0.2067
  192POPC  H15A22132   6.242   3.464   6.165  0.0124  1.3716 -0.8660
  192POPC  H15B22133   6.073   3.494   6.114 -1.3404  0.5689  1.9916
  192POPC  H15C22134   6.120   3.336   6.175 -0.1060 -0.2744  0.3278
  192POPC   C1122135   5.860   3.612   6.267 -0.3335 -0.4302 -0.3105
  192POPC  H11A22136   5.807   3.547   6.194 -1.5152  0.2985 -0.1248
  192POPC  H11B22137   5.914   3.691   6.210 -2.1814  0.6549 -0.6220
  192POPC     P22138   5.678   3.776   6.340 -0.4375  0.1673  0.0445
  192POPC   O1322139   5.586   3.791   6.446  1.0604  0.2681 -0.6897
  192POPC   O1422140   5.627   3.789   6.199  0.5156 -0.2282 -0.8186
  192POPC   O1222141   5.773   3.657   6.362  0.1566 -0.0729 -0.1489
  192POPC   O1122142   5.785   3.887   6.365  0.4773  0.2077 -0.0589
  192POPC    C122143   5.892   3.897   6.456 -0.5219  0.7318  0.2317
  192POPC    HA22144   5.943   3.994   6.437 -0.4910  0.4361 -1.3150
  192POPC    HB22145   5.956   3.807   6.442 -1.2086  0.3049 -0.2221
  192POPC    C222146   5.849   3.899   6.607  0.2806  0.1082  0.3012
  192POPC    HS22147   5.796   3.803   6.623 -1.7611  1.0764 -0.3206
  192POPC   O2122148   5.768   4.008   6.645  0.1627 -0.1692  0.5590
  192POPC   C2122149   5.663   3.989   6.721 -0.0681  0.3275 -0.3009
  192POPC   O2222150   5.624   3.880   6.762 -0.0543 -0.9799 -0.2579
  192POPC   C2222151   5.597   4.121   6.740 -0.2594 -0.4460 -0.3203
  192POPC   H2R22152   5.598   4.163   6.637  1.8223 -2.5301 -1.2510
  192POPC   H2S22153   5.656   4.181   6.812 -1.6144 -0.5364  0.9009
  192POPC    C322154   5.978   3.909   6.697  0.4091 -0.1553  0.2787
  192POPC    HX22155   6.029   4.006   6.676 -1.0288  0.7041  0.6125
  192POPC    HY22156   6.054   3.829   6.680  1.3690  1.2354 -2.7216
  192POPC   O3122157   5.946   3.923   6.845 -0.1642 -0.3237 -0.4038
  192POPC   C3122158   5.927   3.810   6.909  0.4349  0.0567  0.2449
  192POPC   O3222159   5.945   3.704   6.865  0.1542 -0.6204 -1.5025
  192POPC   C3222160   5.867   3.826   7.046 -0.1373  0.0313  0.6148
  192POPC   H2X22161   5.760   3.839   7.023  0.5557  2.4143 -1.7732
  192POPC   H2Y22162   5.913   3.916   7.094  3.4073 -0.7136 -1.0029
  192POPC   C2322163   5.451   4.122   6.801 -0.9587 -0.4562 -0.2457
  192POPC   H3R22164   5.378   4.088   6.725 -0.1340 -0.8269 -0.8863
  192POPC   H3S22165   5.429   4.231   6.806 -1.6047 -0.6150  0.6363
  192POPC   C2422166   5.418   4.066   6.936 -0.4318 -0.4669 -0.3527
  192POPC   H4R22167   5.465   3.966   6.943  0.2190 -0.0589  2.3680
  192POPC   H4S22168   5.309   4.062   6.958 -0.4197 -0.9902 -0.3824
  192POPC   C2522169   5.471   4.161   7.050  0.1130  0.2434  0.0288
  192POPC   H5R22170   5.415   4.257   7.048  0.6087  0.6012  1.8337
  192POPC   H5S22171   5.575   4.189   7.021  0.9857 -0.0169  2.6606
  192POPC   C2622172   5.469   4.100   7.189  0.2774 -0.3761 -0.1317
  192POPC   H6R22173   5.361   4.091   7.214  0.2637 -0.0451 -0.0654
  192POPC   H6S22174   5.515   4.168   7.263 -0.2401  0.1920 -0.3186
  192POPC   C2722175   5.522   3.959   7.195 -0.3110  0.6235 -0.5952
  192POPC   H7R22176   5.622   3.945   7.148 -0.0889 -1.3834  0.3725
  192POPC   H7S22177   5.459   3.887   7.139 -0.5345  0.0487  0.3660
  192POPC   C2822178   5.533   3.897   7.340 -0.3779  0.0846  0.5277
  192POPC   H8R22179   5.603   3.961   7.398 -1.0774 -0.6409  2.2526
  192POPC   H8S22180   5.582   3.798   7.334  0.5535  0.5685 -0.1662
  192POPC   C2922181   5.415   3.901   7.427 -0.3414  0.1273  0.1239
  192POPC   H9122182   5.320   3.934   7.382 -0.2902  0.7581  0.4747
  192POPC  C21022183   5.411   3.872   7.558  0.1627  0.3574  0.5833
  192POPC  H10122184   5.314   3.879   7.609  0.1279  0.4280  0.5059
  192POPC  C21122185   5.524   3.822   7.645 -0.0913  0.2748  0.2618
  192POPC  H11R22186   5.617   3.831   7.585 -0.3782 -3.5576 -0.9892
  192POPC  H11S22187   5.521   3.712   7.657  2.0235  0.0259 -1.0139
  192POPC  C21222188   5.538   3.898   7.781  0.6007  0.5890  0.2475
  192POPC  H12R22189   5.502   4.001   7.761  0.1499  0.4642  0.4129
  192POPC  H12S22190   5.648   3.901   7.798  0.6092 -1.6784  0.8960
  192POPC  C21322191   5.469   3.830   7.894  0.5594  0.2484 -0.1734
  192POPC  H13R22192   5.516   3.731   7.913  0.1265  0.2145  0.8040
  192POPC  H13S22193   5.362   3.809   7.873  0.5158  0.6723 -0.3862
  192POPC  C21422194   5.485   3.900   8.030 -0.1878 -0.4802 -0.3014
  192POPC  H14R22195   5.453   4.006   8.018 -0.3688 -0.5286 -0.2495
  192POPC  H14S22196   5.593   3.905   8.056 -0.0515  0.4064 -0.9881
  192POPC  C21522197   5.399   3.843   8.141  0.0545  0.1634  0.4289
  192POPC  H15R22198   5.399   3.734   8.124 -0.6468  0.3371 -0.8243
  192POPC  H15S22199   5.293   3.876   8.129  0.1742  0.1942 -0.6705
  192POPC  C21622200   5.464   3.886   8.276 -0.3927  0.4643  0.5464
  192POPC  H16R22201   5.439   3.993   8.295  1.3651  1.0595 -0.2840
  192POPC  H16S22202   5.571   3.878   8.250 -0.6766  0.4896 -0.6798
  192POPC  C21722203   5.422   3.789   8.387 -1.3143 -0.5298  0.2523
  192POPC  H17R22204   5.472   3.822   8.480  0.9810  0.2983 -1.1883
  192POPC  H17S22205   5.451   3.685   8.362 -0.4536  0.1093 -1.6356
  192POPC  C21822206   5.274   3.791   8.423  0.7072 -0.4652  0.1837
  192POPC  H18R22207   5.233   3.892   8.401  2.1022  0.1541  0.2733
  192POPC  H18S22208   5.254   3.763   8.528 -1.7954 -0.8562 -0.3385
  192POPC  H18T22209   5.211   3.722   8.363 -1.7105  3.0061 -1.6113
  192POPC   C3322210   5.905   3.710   7.136 -0.7111  0.3766 -0.1125
  192POPC   H3X22211   6.015   3.695   7.131 -0.6797  0.8819 -1.1859
  192POPC   H3Y22212   5.863   3.614   7.098  0.2963  0.6189 -1.9523
  192POPC   C3422213   5.873   3.728   7.277  0.3862  0.2802 -0.1333
  192POPC   H4X22214   5.850   3.629   7.323 -1.4980  1.2133  1.0684
  192POPC   H4Y22215   5.782   3.790   7.290  1.1165  1.3848 -0.2357
  192POPC   C3522216   5.982   3.785   7.367 -0.4402 -0.4552  1.2999
  192POPC   H5X22217   6.014   3.880   7.318 -1.4454 -0.8567 -0.2098
  192POPC   H5Y22218   6.073   3.724   7.385 -0.4165  0.1802  3.5523
  192POPC   C3622219   5.936   3.825   7.501 -0.1061 -0.0421 -0.5279
  192POPC   H6X22220   5.901   3.732   7.550  0.2445  0.3740  0.5473
  192POPC   H6Y22221   5.852   3.896   7.519 -0.5263 -0.8611  0.9166
  192POPC   C3722222   6.059   3.877   7.587 -0.0585  0.4088  0.0019
  192POPC   H7X22223   6.112   3.964   7.543  3.7227 -1.3355  0.6427
  192POPC   H7Y22224   6.136   3.797   7.583  0.4436  0.5153  3.7212
  192POPC   C3822225   6.007   3.918   7.733 -0.1024 -0.8915  0.7355
  192POPC   H8X22226   5.957   3.828   7.774 -0.0450 -0.3194  2.1128
  192POPC   H8Y22227   5.933   4.000   7.728  1.3253  0.4323  0.2697
  192POPC   C3922228   6.119   3.958   7.835 -0.0098 -0.2849  0.0361
  192POPC   H9X22229   6.143   4.059   7.795 -0.4150 -1.0031 -2.1525
  192POPC   H9Y22230   6.207   3.891   7.842  0.5969  0.4166 -0.6125
  192POPC  C31022231   6.073   3.978   7.978 -0.4618 -0.7353 -0.2723
  192POPC  H10X22232   6.007   4.066   7.992 -2.0206 -1.3954 -2.9267
  192POPC  H10Y22233   6.154   3.999   8.052 -0.7280  0.8937 -0.3960
  192POPC  C31122234   6.013   3.857   8.046 -0.0606  0.1248  0.7418
  192POPC  H11X22235   6.079   3.770   8.026 -0.9700 -0.8285  1.7745
  192POPC  H11Y22236   5.915   3.825   8.005 -0.0069 -1.8531  2.0352
  192POPC  C31222237   5.996   3.862   8.196 -0.8676  0.4681  0.9284
  192POPC  H12X22238   5.957   3.964   8.213 -1.4778  0.3936  0.1040
  192POPC  H12Y22239   6.094   3.866   8.247 -0.4607 -0.8323  0.2914
  192POPC  C31322240   5.922   3.736   8.251  0.1567 -0.2259  0.0317
  192POPC  H13X22241   5.816   3.733   8.219  0.1752  0.5839 -0.1230
  192POPC  H13Y22242   5.923   3.741   8.362 -0.1941 -3.4765  0.2857
  192POPC  C31422243   6.006   3.606   8.231  0.7646 -0.5551  0.4743
  192POPC  H14X22244   6.111   3.639   8.223  0.0044  1.8360 -0.7451
  192POPC  H14Y22245   5.981   3.557   8.134  2.5605  0.2163 -0.4179
  192POPC  C31522246   5.982   3.503   8.345 -0.4571  0.3529  0.0811
  192POPC  H15X22247   6.021   3.406   8.306 -0.6634  0.5119 -0.5412
  192POPC  H15Y22248   5.872   3.491   8.355 -0.2949 -1.2754  0.1909
  192POPC  C31622249   6.042   3.526   8.485 -0.5509  0.3403  0.4853
  192POPC  H16X22250   6.147   3.490   8.492 -0.3214  0.9655  0.3469
  192POPC  H16Y22251   6.000   3.453   8.557 -0.2388 -2.1775 -1.7359
  192POPC  H16Z22252   6.031   3.633   8.511 -2.5426  0.1814  0.4141
  193SOD    SOD22253   6.173   3.788   0.022 -0.4413 -0.3971  0.1188
  194SOD    SOD22254   0.860   4.246  12.994 -0.2448 -0.3122  0.0608
  195SOD    SOD22255   0.989   6.411   6.076  0.1498 -0.1628 -0.1955
  196SOD    SOD22256   6.512   5.364  16.604  0.0291  0.0255  0.0440
  197SOD    SOD22257   4.214   1.983  13.568 -0.1146  0.5530 -0.1462
  198SOD    SOD22258   6.612   1.587  15.655  0.3283 -0.0775  0.1965
  199SOD    SOD22259   2.789   6.018   5.061 -0.0682 -0.2759 -0.1654
  200SOD    SOD22260   2.609   2.560  13.991  0.5932  0.6326  0.4490
  201SOD    SOD22261   3.800   0.596   2.421 -0.1986  0.0025  0.1034
  202SOD    SOD22262   3.261   2.544  11.275  0.1508 -0.2262 -0.4663
  203SOD    SOD22263   1.945   6.651  16.511  0.0587  0.0205 -0.0407
  204SOD    SOD22264   5.124   6.620   5.745  0.3413 -0.1754  0.2544
  205SOD    SOD22265   5.841   5.016   6.620 -0.3236 -0.0727 -0.1226
  206SOD    SOD22266   0.578   2.419   5.991  0.2671 -0.4689 -0.1839
  207SOD    SOD22267   3.245   0.568   5.802 -0.1037  0.5420 -0.0115
  208SOD    SOD22268   3.243   0.608  12.247 -0.0252  0.2990 -0.3635
  209SOD    SOD22269   4.959   6.440   2.821  0.1738  0.2532 -0.5661
  210SOD    SOD22270   2.563   4.336  10.885 -0.3381 -0.1273  0.5210
  211SOD    SOD22271   2.293   5.715   2.857 -0.0584  0.1004 -0.2327
  212SOD    SOD22272   1.071   4.678   3.142  0.5521  0.1961 -0.3155
  213SOD    SOD22273   4.568   6.546   5.766 -0.3271 -0.1655  0.3029
  214SOD    SOD22274   1.578   2.403   0.000 -0.0517 -0.3849  0.0899
  215SOD    SOD22275   0.484   5.911  12.914 -0.3386 -0.6927 -0.1639
  216SOD    SOD22276   4.772   5.631  11.530  0.1701  0.1660  0.1800
  217SOD    SOD22277   0.273   5.928   3.009  0.0366  0.2047 -0.5529
  218SOD    SOD22278   4.288   1.232   0.873  0.5415 -0.7067  0.1721
  219SOD    SOD22279   5.854   2.815  10.790  0.1039 -0.4584  0.3789
  220SOD    SOD22280   1.364   1.210   3.940  0.5767  0.2139  0.2705
  221SOD    SOD22281   5.708   6.263   1.180  0.5682  0.2390  0.3658
  222SOD    SOD22282   5.054   2.780   1.781 -0.3927  0.1875 -0.0091
  223SOD    SOD22283   1.199   1.914   5.336  0.1442 -0.2099  0.1791
  224SOD    SOD22284   2.801   1.344   2.984  0.1756  0.0810  0.3531
  225SOD    SOD22285   5.193   0.462  11.669  0.2833  0.5291 -0.2776
  226SOD    SOD22286   2.535   2.099   1.804  0.3204 -0.4257 -0.3362
  227SOD    SOD22287   1.202   1.035   2.950  0.1565  0.2410 -0.6928
  228SOD    SOD22288   5.388   5.748  16.308 -0.9302 -0.1806  0.1214
  229SOD    SOD22289   3.574   3.294   2.885  0.0837  0.4810 -0.5765
  230SOD    SOD22290   6.551   4.091   5.713  0.1697 -0.5926 -0.3892
  231SOD    SOD22291   6.239   5.253  11.569  0.1574  0.2664  0.0405
  232SOD    SOD22292   0.074   5.466  11.077  0.0700 -0.1395  0.0902
  233SOD    SOD22293   0.260   4.695   5.776  0.2460 -0.0370  0.3695
  234SOD    SOD22294   6.212   5.516   6.170 -0.1385  0.1237  0.5888
  235SOD    SOD22295   2.703   1.800  14.998 -0.2091  0.2924  0.4407
  236SOD    SOD22296   1.015   0.072   4.997  0.2123  0.5439 -0.0946
  237SOD    SOD22297   3.334   4.727  13.677  0.2913  0.0189  0.7714
  238SOD    SOD22298   4.491   5.959   1.207  0.2575 -0.5334  0.5314
  239SOD    SOD22299   5.170   0.845  13.099  0.3526  0.0038  0.0285
  240SOD    SOD22300   6.152   4.854   5.487 -0.3595 -0.4826  0.4146
  241SOD    SOD22301   1.852   3.726   0.714  0.2615  0.1009  0.0699
  242SOD    SOD22302   6.375   5.094   0.372  0.1676 -0.8787 -0.1621
  243SOD    SOD22303   0.488   3.442  13.991 -0.3210 -0.0712  0.3393
  244SOD    SOD22304   1.084   2.013  13.750  0.2415  0.4078  0.4393
  245SOD    SOD22305   3.054   4.509  11.577  0.2856 -0.8525 -0.3952
  246SOD    SOD22306   1.969   3.879   1.829  0.4951 -0.4870  0.4930
  247SOD    SOD22307   2.097   5.351   3.983 -0.0925 -0.2304 -0.5618
  248SOD    SOD22308   0.765   5.657   5.503 -0.4809  0.4090  0.2581
  249SOD    SOD22309   4.714   1.486  12.353  0.2592 -0.6622  0.2245
  250SOD    SOD22310   4.666   6.716  10.854 -0.1537  0.5324  0.2298
  251SOD    SOD22311   6.235   4.136  15.724 -0.5188  0.2714  0.3930
  252SOD    SOD22312   0.301   0.174   5.946 -0.0004 -0.4529 -0.3841
  253SOD    SOD22313   3.620   6.361  13.920 -0.1306 -0.0278  0.2433
  254SOD    SOD22314   4.082   5.807  10.973  0.0811 -0.5751 -0.3099
  255SOD    SOD22315   5.923   2.653   5.263  0.3771  0.3307 -0.0783
  256SOD    SOD22316   2.986   5.173  10.803  0.0792  0.1758 -0.6358
  257SOD    SOD22317   6.190   0.255  11.033  0.5304  0.0795 -0.1242
  258SOD    SOD22318   2.889   2.793   4.541 -0.1419  0.0461  0.2530
  259SOD    SOD22319   0.918   4.037  11.030  0.2712 -0.6964 -0.5665
  260SOD    SOD22320   5.216   0.536  11.028 -0.3293 -0.0902 -0.1343
  261SOD    SOD22321   2.915   3.930  13.357 -0.3005  0.1735  0.0312
  262SOD    SOD22322   1.591   4.982  16.749  0.3982 -0.3100 -0.2986
  263SOD    SOD22323   0.106   2.135  11.956  0.4816  0.3776  0.1254
  264SOD    SOD22324   5.728   4.673  10.696 -0.5815  0.2446 -0.1208
  265SOD    SOD22325   5.831   6.713  15.131  0.3247  0.1171  0.1813
  266SOD    SOD22326   2.693   6.765  13.379 -0.2877 -0.2816  0.0231
  267SOD    SOD22327   2.008   0.362   3.470  0.6137 -0.0659  0.5577
  268SOD    SOD22328   1.873   4.645   5.967 -0.2216  0.0577 -0.2673
  269SOD    SOD22329   5.497   4.348  14.611  0.0006 -0.2986  0.7095
  270CLA    CLA22330   1.367   3.947  15.914 -0.3020  0.3248  0.0573
  271CLA    CLA22331   6.100   4.730  12.123  0.0994  0.2417 -0.4931
  272CLA    CLA22332   2.053   4.189   5.043  0.0597  0.0911 -0.1251
  273CLA    CLA22333   3.419   0.119   2.713 -0.0592  0.2978 -0.0862
  274CLA    CLA22334   1.080   2.979  12.892 -0.3857 -0.1258  0.0117
  275CLA    CLA22335   1.929   5.259   4.592  0.0460  0.5845  0.5161
  276CLA    CLA22336   0.766   0.074  15.593 -0.0509  0.1434  0.1772
  277CLA    CLA22337   2.750   2.474  14.383 -0.4908 -0.0045 -0.3280
  278CLA    CLA22338   6.499   2.403  14.453  0.2498  0.4163 -0.0976
  279CLA    CLA22339   3.869   5.377  11.917 -0.1252 -0.0835 -0.0501
  280CLA    CLA22340   2.672   5.008   1.576 -0.4139  0.1020 -0.3246
  281CLA    CLA22341   3.353   3.486  12.865  0.0492  0.4630  0.0852
  282CLA    CLA22342   1.962   5.222   3.527  0.2473 -0.2685  0.0009
  283CLA    CLA22343   0.467   5.953  15.374 -0.0200  0.0702 -0.0622
  284CLA    CLA22344   6.015   4.263   3.375  0.2210 -0.0339  0.2324
  285CLA    CLA22345   0.838   6.427   2.941 -0.1283  0.0552 -0.1751
  286CLA    CLA22346   2.535   0.187  12.663  0.3685  0.3385  0.2736
  287CLA    CLA22347   4.904   5.806  15.761 -0.3614 -0.1082 -0.2322
  288CLA    CLA22348   5.391   2.388   2.838  0.4574 -0.5108 -0.0103
  289CLA    CLA22349   3.584   0.979   0.782 -0.0715  0.4623  0.1553
  290CLA    CLA22350   6.426   3.311   0.206 -0.3202 -0.2443  0.1223
  291CLA    CLA22351   3.298   3.966   2.661 -0.3409  0.2560 -0.0875
  292CLA    CLA22352   0.761   0.071   4.205  0.1254 -0.2766 -0.5362
  293CLA    CLA22353   1.156   0.668   5.454 -0.3853 -0.2635 -0.0367
  294CLA    CLA22354   5.051   3.998   2.232 -0.2375 -0.2069  0.2875
  295CLA    CLA22355   2.345   0.467  14.885  0.2600  0.0615 -0.1093
  296CLA    CLA22356   5.920   0.911   3.239 -0.0766  0.3818 -0.2463
  297CLA    CLA22357   3.825   3.223   5.608  0.1880 -0.0652 -0.0776
  298CLA    CLA22358   5.342   5.860  12.415 -0.1715  0.0969 -0.0858
  299CLA    CLA22359   6.712   6.021   0.914 -0.2508  0.1117  0.0567
  300CLA    CLA22360   3.820   5.219   4.328  0.2161 -0.1469  0.0098
  301CLA    CLA22361   2.260   1.168  15.517  0.4040 -0.0052 -0.5900
  302CLA    CLA22362   2.320   1.217   4.833 -0.1725 -0.1521  0.1962
  303CLA    CLA22363   0.322   5.379   1.772  0.0817 -0.1511  0.0457
  304CLA    CLA22364   3.762   3.193   4.400 -0.4827 -0.0134  0.3884
  305CLA    CLA22365   0.912   5.013   2.838  0.4328  0.1887  0.1213
  306CLA    CLA22366   5.794   6.736  11.568  0.4566  0.1201  0.0859
  307CLA    CLA22367   2.338   1.370  12.132  0.3530  0.0908  0.5052
  308CLA    CLA22368   1.706   3.575  16.936  0.3043 -0.0797  0.3426
  309CLA    CLA22369   2.944   5.598   2.414  0.6215  0.3137 -0.2064
  310CLA    CLA22370   0.322   3.082  12.456  0.1026  0.0197  0.0629
  311CLA    CLA22371   5.174   1.771  13.939 -0.5172  0.4186 -0.0676
  312CLA    CLA22372   3.558   2.194  12.074 -0.2587  0.2548 -0.0276
  313CLA    CLA22373   0.654   2.278   0.425 -0.1602 -0.0195  0.3517
  314CLA    CLA22374   5.747   5.260  15.186 -0.0056 -0.0131  0.0855
  315CLA    CLA22375   4.443   0.309  15.638 -0.1449 -0.0459 -0.4760
  316CLA    CLA22376   3.406   5.085   4.848  0.3274 -0.3813  0.2062
  317CLA    CLA22377   0.774   0.823   2.092 -0.3475  0.0033  0.2652
  318CLA    CLA22378   3.501   0.487  12.295 -0.0391  0.2284 -0.1265
  319CLA    CLA22379   4.733   3.925  16.773 -0.2716 -0.3053  0.2777
  320CLA    CLA22380   2.966   1.577   2.470  0.3820  0.0455  0.1290
  321CLA    CLA22381   6.643   6.621   4.473 -0.3783 -0.5938  0.1850
  322CLA    CLA22382   2.288   4.373  11.383  0.0727 -0.1032 -0.0214
  323TIP3   OH222383   3.603   0.439  15.318  0.7930  0.6192  0.4138
  323TIP3    H122384   3.529   0.426  15.377  1.4190  1.0902  1.3350
  323TIP3    H222385   3.575   0.401  15.235  0.4100 -1.3819  1.3934
  324TIP3   OH222386   3.361   4.402   3.641 -0.3222  0.1681  0.3176
  324TIP3    H122387   3.267   4.410   3.656 -0.0402  0.5741  2.0397
  324TIP3    H222388   3.367   4.352   3.559 -2.0151  1.4442 -0.6783
  325TIP3   OH222389   5.172   2.467  13.222  0.3627 -0.0199 -0.1638
  325TIP3    H122390   5.095   2.422  13.257 -0.3678  1.3559  0.1055
  325TIP3    H222391   5.227   2.483  13.298  0.9906 -1.0878 -0.3710
  326TIP3   OH222392   5.879   0.262   2.084  0.0605  1.0715  0.1304
  326TIP3    H122393   5.873   0.173   2.117 -0.2203  1.3275  0.7775
  326TIP3    H222394   5.955   0.300   2.128  0.4133  1.0399 -0.4310
  327TIP3   OH222395   4.366   3.918  16.687 -0.1269  0.3059 -0.2165
  327TIP3    H122396   4.322   3.840  16.653  1.8472 -0.1169 -2.0292
  327TIP3    H222397   4.330   3.930  16.775 -1.3433 -1.9359 -0.3417
  328TIP3   OH222398   6.112   2.316  14.274 -0.1865 -0.2550  0.2600
  328TIP3    H122399   6.174   2.388  14.279  0.7481 -1.0943  1.0589
  328TIP3    H222400   6.074   2.323  14.186  0.9107  0.3698 -0.1764
  329TIP3   OH222401   5.894   0.240   4.595 -0.2036 -0.0194  0.2009
  329TIP3    H122402   5.882   0.320   4.646 -1.9464  0.1821 -0.4724
  329TIP3    H222403   5.882   0.268   4.504 -1.5076 -1.1630  0.0009
  330TIP3   OH222404   3.301   5.234   1.546 -0.4892 -0.2382  0.6538
  330TIP3    H122405   3.357   5.205   1.618  1.6499 -0.3830 -0.9517
  330TIP3    H222406   3.230   5.169   1.543  0.3498 -1.2447  1.5321
  331TIP3   OH222407   1.946   4.583   4.116  0.3197 -0.5225 -0.1883
  331TIP3    H122408   1.859   4.614   4.091  0.4406  0.0052  0.0414
  331TIP3    H222409   1.959   4.617   4.205  0.7866 -0.5440 -0.2468
  332TIP3   OH222410   0.017   2.393   0.671 -0.0493 -0.1457  0.3722
  332TIP3    H122411   0.089   2.411   0.610  1.4792  0.9911  2.3884
  332TIP3    H222412   0.033   2.303   0.701  1.5848  0.6415  2.0420
  333TIP3   OH222413   1.930   1.494  11.562  0.5122  0.3467  0.2312
  333TIP3    H122414   1.907   1.482  11.470  0.6802  1.1753  0.0704
  333TIP3    H222415   2.002   1.557  11.560 -1.0721  2.2893  1.0366
  334TIP3   OH222416   5.107   4.910  10.346 -0.0476 -0.0284 -0.5662
  334TIP3    H122417   5.136   4.866  10.427  1.9174  0.6970 -0.8198
  334TIP3    H222418   5.123   5.003  10.362 -4.7458  0.8758  0.2039
  335TIP3   OH222419   2.080   5.471   4.236 -0.3767 -0.2069 -0.3834
  335TIP3    H122420   2.127   5.388   4.233 -0.3950 -0.1969 -1.0736
  335TIP3    H222421   2.146   5.538   4.218 -0.1163  0.0505  1.3266
  336TIP3   OH222422   6.663   0.713   5.476 -0.2392  0.4708  0.2894
  336TIP3    H122423   6.671   0.742   5.567  1.1861 -2.6277  1.2683
  336TIP3    H222424   6.660   0.795   5.426  0.2088  2.2908  2.9928
  337TIP3   OH222425   5.773   6.483   1.214  0.8711 -0.0957  0.4278
  337TIP3    H122426   5.730   6.565   1.192 -0.5002 -0.2157  2.3971
  337TIP3    H222427   5.856   6.510   1.254  1.0641  0.2552 -0.1900
  338TIP3   OH222428   0.812   6.745  13.505  0.2118 -0.5816  0.4658
  338TIP3    H122429   0.851   6.785  13.427  0.7027 -1.0385  0.4689
  338TIP3    H222430   0.753   6.678  13.472  0.3244 -0.6892  0.4807
  339TIP3   OH222431   3.638   5.545   3.700 -0.7267 -0.5112  0.3698
  339TIP3    H122432   3.611   5.577   3.786 -0.0940  1.1691 -0.0208
  339TIP3    H222433   3.604   5.456   3.696 -2.1955 -0.0593  1.7042
  340TIP3   OH222434   6.223   0.186   6.168  0.0194  0.1086  0.3721
  340TIP3    H122435   6.196   0.099   6.138  0.5978  0.8074 -2.4453
  340TIP3    H222436   6.142   0.237   6.170 -0.2047 -0.2558  1.2999
  341TIP3   OH222437   2.006   2.256  15.602  0.1022  0.4146 -0.0635
  341TIP3    H122438   1.914   2.284  15.601  0.3704  1.3288 -0.7921
  341TIP3    H222439   2.054   2.337  15.621  0.8163  0.1405 -0.6806
  342TIP3   OH222440   0.064   1.623  10.860  0.2894 -0.2469  0.6943
  342TIP3    H122441   0.058   1.601  10.767 -3.1257 -2.0809  1.1820
  342TIP3    H222442   0.048   1.717  10.863  0.8107 -0.0872 -0.5411
  343TIP3   OH222443   1.306   4.241   4.223 -0.2242 -0.1459 -0.6428
  343TIP3    H122444   1.392   4.201   4.239 -0.1686 -0.2057 -1.0690
  343TIP3    H222445   1.243   4.177   4.255 -0.1139 -0.2102 -0.5545
  344TIP3   OH222446   3.487   5.933  12.387 -0.5403 -0.1432  0.3673
  344TIP3    H122447   3.517   5.908  12.299 -1.8682 -0.8938  0.0888
  344TIP3    H222448   3.425   6.004  12.371 -1.9890 -1.3234  0.5150
  345TIP3   OH222449   4.197   5.745   1.518  0.6621  0.2072  0.4484
  345TIP3    H122450   4.250   5.761   1.597 -0.5604 -0.3191  1.4107
  345TIP3    H222451   4.145   5.824   1.508 -1.4743 -0.8734  2.0742
  346TIP3   OH222452   3.109   6.711  14.335 -0.0893  0.3973 -0.3790
  346TIP3    H122453   3.163   6.636  14.309 -1.1355 -0.1909 -0.8879
  346TIP3    H222454   3.097   6.700  14.430 -2.5090 -1.6523 -0.8283
  347TIP3   OH222455   4.341   3.730   1.654 -0.4893  0.2008  0.2358
  347TIP3    H122456   4.291   3.726   1.735 -1.3923  0.0054 -0.3191
  347TIP3    H222457   4.293   3.674   1.593  1.7606 -2.1157  0.3892
  348TIP3   OH222458   6.550   1.931   0.427  0.5328 -0.2575 -0.3249
  348TIP3    H122459   6.578   1.840   0.432  0.1218 -0.4651 -1.5443
  348TIP3    H222460   6.532   1.946   0.334  1.3690  1.3046 -0.2839
  349TIP3   OH222461   5.086   4.932  15.487 -0.5919 -0.1874  0.0278
  349TIP3    H122462   5.100   4.957  15.395  0.9060 -0.8825  0.0308
  349TIP3    H222463   5.173   4.941  15.527 -1.2927  0.3755  1.4558
  350TIP3   OH222464   6.390   3.177  17.042 -0.0905 -0.1764 -0.0713
  350TIP3    H122465   6.379   3.083  17.028 -1.4644 -0.1877  0.8834
  350TIP3    H222466   6.381   3.188  17.137 -1.2879  1.0515 -0.2957
  351TIP3   OH222467   0.542   5.572   1.657  0.5023  0.1166  0.1592
  351TIP3    H122468   0.496   5.506   1.709  1.1666 -0.4274  0.0652
  351TIP3    H222469   0.626   5.584   1.702  0.5957  0.5159 -0.1161
  352TIP3   OH222470   3.162   0.983   2.014  0.0603  0.4314  0.8605
  352TIP3    H122471   3.250   0.960   1.985 -0.8453 -0.7685 -1.2164
  352TIP3    H222472   3.175   1.032   2.095  2.5962  0.0140  0.7926
  353TIP3   OH222473   4.552   4.898  11.855  0.5019 -0.6185  0.1451
  353TIP3    H122474   4.528   4.805  11.854 -3.2204  0.1887  0.9694
  353TIP3    H222475   4.557   4.920  11.948  2.1047 -0.0621 -0.0302
  354TIP3   OH222476   2.798   0.451   3.045 -0.1622  0.2134  0.6998
  354TIP3    H122477   2.812   0.442   2.950 -0.3552  0.1808  0.6753
  354TIP3    H222478   2.854   0.383   3.083  4.7707  3.8758  0.9733
  355TIP3   OH222479   0.753   1.316  16.653 -0.1599  0.0036 -0.0582
  355TIP3    H122480   0.810   1.248  16.617  0.4001  0.2863  0.2737
  355TIP3    H222481   0.746   1.295  16.746  0.7253  0.8721  0.2226
  356TIP3   OH222482   3.446   6.141   6.325  0.4164 -0.2375 -0.0919
  356TIP3    H122483   3.435   6.137   6.420  0.7089  0.1954 -0.0339
  356TIP3    H222484   3.362   6.114   6.290 -0.1522  0.9351  0.3153
  357TIP3   OH222485   6.222   1.275  13.037  0.3173 -0.0394  0.0463
  357TIP3    H122486   6.209   1.334  13.112 -0.9572  1.0252 -0.9791
  357TIP3    H222487   6.134   1.245  13.014  0.3994  1.3484 -2.3488
  358TIP3   OH222488   0.744   0.199   5.366  0.2417 -0.0158  0.1082
  358TIP3    H122489   0.691   0.212   5.287  1.3810 -2.8632 -1.2915
  358TIP3    H222490   0.725   0.108   5.392  3.8557 -0.9869 -0.1237
  359TIP3   OH222491   5.458   1.986  13.317 -0.0452  0.0978 -0.1535
  359TIP3    H122492   5.441   2.075  13.287 -0.3589  0.3186  0.6409
  359TIP3    H222493   5.545   1.966  13.283 -0.0926  0.5953 -0.5878
  360TIP3   OH222494   2.229   5.260   2.612  0.2266 -0.8696  0.6487
  360TIP3    H122495   2.316   5.247   2.574 -0.0422  0.2853 -0.4649
  360TIP3    H222496   2.169   5.250   2.538 -0.4428  0.0084  1.0534
  361TIP3   OH222497   3.669   1.397  14.680  0.1860  0.0503 -0.1545
  361TIP3    H122498   3.700   1.448  14.755 -0.4334 -1.0506  0.8829
  361TIP3    H222499   3.589   1.441  14.653 -0.2599 -0.2588  0.6341
  362TIP3   OH222500   6.686   1.300  15.213  0.1175 -0.3127  0.6675
  362TIP3    H122501   6.668   1.380  15.163 -0.1329 -0.8724 -0.1461
  362TIP3    H222502   6.650   1.229  15.160  2.8589 -1.2926 -0.0197
  363TIP3   OH222503   4.142   3.495  15.531 -0.1537 -0.2797 -1.1280
  363TIP3    H122504   4.153   3.590  15.532  3.3270 -0.5507  0.7537
  363TIP3    H222505   4.197   3.465  15.458 -0.7217 -0.9204 -1.3056
  364TIP3   OH222506   5.657   2.374   0.221  0.1156 -0.1342  0.1779
  364TIP3    H122507   5.697   2.351   0.137 -0.6533  1.8673 -0.7891
  364TIP3    H222508   5.626   2.464   0.210 -1.9810 -0.5481  1.8696
  365TIP3   OH222509   2.561   6.371   5.138 -0.3348  0.1867  0.1872
  365TIP3    H122510   2.561   6.462   5.169 -2.1314  0.5585 -0.7453
  365TIP3    H222511   2.495   6.370   5.069  2.4145 -0.9019 -2.6836
  366TIP3   OH222512   5.152   4.483   1.631  0.3711  0.3612  0.2256
  366TIP3    H122513   5.161   4.401   1.679  0.4966 -0.0782 -0.5508
  366TIP3    H222514   5.116   4.544   1.696 -0.7215 -0.5762  0.5361
  367TIP3   OH222515   6.243   3.954  13.069 -0.8311 -0.3251 -0.4085
  367TIP3    H122516   6.186   4.030  13.082 -0.4700 -0.0160 -0.6107
  367TIP3    H222517   6.208   3.910  12.992 -0.4262  0.2151 -0.9088
  368TIP3   OH222518   0.845   3.860   3.295 -0.2630 -0.7931  0.2712
  368TIP3    H122519   0.887   3.869   3.381 -0.4249  0.7949  0.2202
  368TIP3    H222520   0.916   3.867   3.232 -0.4519  1.0538  0.2119
  369TIP3   OH222521   0.657   1.517   4.226  0.2903 -0.4444  0.1516
  369TIP3    H122522   0.674   1.601   4.185 -0.4096 -0.7788 -0.8547
  369TIP3    H222523   0.568   1.525   4.262  0.4010 -0.5961  0.4646
  370TIP3   OH222524   6.359   6.466  11.015  0.3527  0.2326  0.0864
  370TIP3    H122525   6.303   6.502  10.947 -1.2249 -1.3662  0.4614
  370TIP3    H222526   6.438   6.438  10.969 -0.2452  0.1352 -0.9069
  371TIP3   OH222527   0.143   0.603   3.676 -0.3523  0.6910  0.3657
  371TIP3    H122528   0.154   0.568   3.588  0.4240  1.1025  0.2949
  371TIP3    H222529   0.231   0.602   3.714 -0.9004 -0.9979  1.7252
  372TIP3   OH222530   4.143   0.779  13.121  0.3739  0.2982  0.3418
  372TIP3    H122531   4.227   0.775  13.076 -0.2134  0.6258 -0.8405
  372TIP3    H222532   4.096   0.701  13.092  1.2078 -1.3465  3.0685
  373TIP3   OH222533   1.067   0.587   6.124  0.3230 -0.2093 -0.4513
  373TIP3    H122534   0.995   0.584   6.187  1.9686  0.2850  1.5628
  373TIP3    H222535   1.109   0.501   6.132  0.9077  0.0781 -0.4046
  374TIP3   OH222536   2.324   6.203  12.812 -0.0865 -0.0092 -0.4360
  374TIP3    H122537   2.409   6.197  12.769 -0.2054  0.2667 -0.7231
  374TIP3    H222538   2.319   6.126  12.869  1.0171  0.8035  0.8065
  375TIP3   OH222539   6.407   1.811  12.810 -0.3874 -0.4463  0.0074
  375TIP3    H122540   6.473   1.772  12.753 -0.8552  1.2119 -1.7393
  375TIP3    H222541   6.443   1.896  12.834 -1.8918  0.5375 -1.0701
  376TIP3   OH222542   4.133   2.190  16.877 -0.0400  0.1315  0.0703
  376TIP3    H122543   4.065   2.126  16.853 -0.9269  1.3512 -0.8420
  376TIP3    H222544   4.129   2.194  16.972  0.2120 -1.3473  0.1620
  377TIP3   OH222545   5.762   4.119   2.010 -0.0803  0.2803  0.4314
  377TIP3    H122546   5.795   4.036   1.974  1.9173  1.0413  0.3831
  377TIP3    H222547   5.833   4.181   1.996 -2.2854  2.5925 -1.4335
  378TIP3   OH222548   3.540   0.990   5.769 -0.0264 -0.9395 -0.0216
  378TIP3    H122549   3.614   1.043   5.738 -0.2811 -1.1557 -1.0400
  378TIP3    H222550   3.574   0.946   5.847  0.2753  0.4926  0.6888
  379TIP3   OH222551   1.866   5.659  11.748 -0.3377  0.4426  0.4936
  379TIP3    H122552   1.885   5.704  11.830  2.0970  2.6637 -1.1002
  379TIP3    H222553   1.878   5.727  11.681 -0.0223 -1.7788 -1.8523
  380TIP3   OH222554   2.666   2.636  15.890  0.1658 -0.1264 -0.3318
  380TIP3    H122555   2.597   2.692  15.855  1.2825  1.2587 -0.4333
  380TIP3    H222556   2.664   2.652  15.985  1.0501  0.7912 -0.4524
  381TIP3   OH222557   2.731   5.912  15.458 -0.0600  0.2457 -0.5095
  381TIP3    H122558   2.731   5.860  15.377  0.7416  1.7684 -1.5255
  381TIP3    H222559   2.668   5.982  15.442  1.0132  1.2841 -0.3333
  382TIP3   OH222560   2.726   5.664   4.580  0.4216 -0.0964 -0.6164
  382TIP3    H122561   2.702   5.637   4.491 -1.0029 -1.7957  0.2430
  382TIP3    H222562   2.644   5.687   4.621  1.1478  1.3139  0.0971
  383TIP3   OH222563   6.481   3.255  11.215  0.1509  0.4138 -0.0845
  383TIP3    H122564   6.396   3.229  11.179  1.1021 -2.4744 -0.4661
  383TIP3    H222565   6.463   3.271  11.308 -0.7967 -0.3276 -0.1191
  384TIP3   OH222566   0.972   5.284   5.745 -0.2230  0.1990 -0.1900
  384TIP3    H122567   0.985   5.228   5.668 -0.4962 -0.1393  0.0097
  384TIP3    H222568   0.930   5.227   5.810  0.1751  0.4276  0.2772
  385TIP3   OH222569   0.411   4.707  16.856  0.6144 -0.1237  0.4290
  385TIP3    H122570   0.335   4.653  16.880 -0.0563 -0.4756 -2.1086
  385TIP3    H222571   0.486   4.649  16.868 -0.0287 -1.4923 -1.4944
  386TIP3   OH222572   4.326   0.328   2.961  0.1474 -0.1636  0.3708
  386TIP3    H122573   4.235   0.358   2.965  0.3109  0.1926  2.7399
  386TIP3    H222574   4.329   0.272   2.883 -1.7687  0.8074 -0.4688
  387TIP3   OH222575   1.412   5.619   6.225 -0.4988 -0.0325  0.1165
  387TIP3    H122576   1.335   5.671   6.207  0.3523  1.3547  0.3648
  387TIP3    H222577   1.480   5.654   6.167  0.0634 -0.9625  0.1751
  388TIP3   OH222578   2.923   6.620  16.234  0.4490 -0.2205  0.5332
  388TIP3    H122579   2.914   6.601  16.327  2.6179 -1.1437  0.6271
  388TIP3    H222580   2.961   6.540  16.197 -0.6589 -0.0007 -1.2360
  389TIP3   OH222581   5.324   2.286   1.468 -1.1680  0.0735  0.5607
  389TIP3    H122582   5.274   2.366   1.487 -1.8140 -0.4276  1.0551
  389TIP3    H222583   5.329   2.283   1.373  2.9606  3.1522  0.4355
  390TIP3   OH222584   2.979   5.473   5.457 -0.3817 -0.1396 -0.2379
  390TIP3    H122585   3.049   5.439   5.512 -0.2988 -0.6868 -0.6638
  390TIP3    H222586   2.909   5.408   5.463  0.0852 -0.8192 -1.6889
  391TIP3   OH222587   1.364   4.233  14.754  0.1226 -0.0383  0.4083
  391TIP3    H122588   1.399   4.306  14.805 -0.3143 -0.2963  1.0884
  391TIP3    H222589   1.399   4.154  14.796 -0.6304 -0.2717  0.6252
  392TIP3   OH222590   1.635   4.761  14.012  0.1908  0.0415 -0.3865
  392TIP3    H122591   1.558   4.818  14.010 -0.9122 -1.4247 -1.4078
  392TIP3    H222592   1.606   4.682  14.058  1.6657  0.2002  0.9222
  393TIP3   OH222593   2.451   4.579   5.407 -0.0418  0.2292  0.2375
  393TIP3    H122594   2.504   4.576   5.486 -1.0851 -1.7439  0.9328
  393TIP3    H222595   2.409   4.665   5.409 -1.9651 -0.6432  3.1988
  394TIP3   OH222596   3.741   4.191   1.559  0.4946 -0.2707  0.1497
  394TIP3    H122597   3.780   4.245   1.627  0.4637 -1.4320  1.1334
  394TIP3    H222598   3.804   4.121   1.544  0.2541 -0.3336 -0.6330
  395TIP3   OH222599   2.169   4.500   0.295  0.3040 -0.1039  0.1176
  395TIP3    H122600   2.184   4.527   0.385  0.0239 -0.4117  0.2560
  395TIP3    H222601   2.144   4.581   0.250 -1.2789 -0.2335  0.6933
  396TIP3   OH222602   1.566   0.640  16.135 -0.2068 -0.0918 -0.5642
  396TIP3    H122603   1.652   0.670  16.105 -0.4523 -1.3306 -2.6707
  396TIP3    H222604   1.527   0.599  16.058 -3.3093  1.7039 -0.0778
  397TIP3   OH222605   4.249   0.702   4.901 -0.1176  0.4099 -0.3597
  397TIP3    H122606   4.261   0.697   4.807 -0.2380 -0.8314 -0.3219
  397TIP3    H222607   4.155   0.719   4.913 -0.3901 -0.9291 -0.4522
  398TIP3   OH222608   4.345   5.535  11.524  0.2616 -0.0757  0.3426
  398TIP3    H122609   4.302   5.505  11.604 -1.6521 -0.5646 -0.8262
  398TIP3    H222610   4.281   5.592  11.481  2.0425  1.9313  0.1376
  399TIP3   OH222611   6.562   3.838  17.168 -0.6817  0.1155  0.0760
  399TIP3    H122612   6.513   3.758  17.147 -1.5904  0.7352 -0.2372
  399TIP3    H222613   6.495   3.899  17.198  0.2401  0.1411  2.2351
  400TIP3   OH222614   1.536   3.781  16.766 -0.0008  0.8640  0.6950
  400TIP3    H122615   1.580   3.703  16.800 -0.6696  0.1216 -0.0855
  400TIP3    H222616   1.456   3.789  16.818  0.1982  1.1838  0.9509
  401TIP3   OH222617   3.168   6.560   0.647  0.1158 -0.1953 -0.8465
  401TIP3    H122618   3.228   6.558   0.572  0.6394  0.0419 -0.4413
  401TIP3    H222619   3.183   6.646   0.687  0.2405 -0.5318 -0.1525
  402TIP3   OH222620   2.106   4.715  11.929  0.4546 -0.7461  0.0893
  402TIP3    H122621   2.105   4.621  11.911 -0.4965 -0.5005 -1.2605
  402TIP3    H222622   2.181   4.749  11.879 -0.1234 -0.5751 -0.6805
  403TIP3   OH222623   3.191   5.533   2.873  0.0619 -0.0771 -0.1037
  403TIP3    H122624   3.153   5.450   2.845 -1.0270  0.5097 -0.4476
  403TIP3    H222625   3.264   5.548   2.813  0.7131 -1.1160  0.4118
  404TIP3   OH222626   5.720   3.260  15.000  0.5037 -0.2292 -0.0177
  404TIP3    H122627   5.811   3.277  14.976  0.4438 -0.2314 -0.2552
  404TIP3    H222628   5.719   3.170  15.033  0.9706  0.4678  2.0106
  405TIP3   OH222629   3.724   4.293  12.541  0.1573  0.2533 -0.4741
  405TIP3    H122630   3.794   4.230  12.557  0.3742  0.4568 -0.6016
  405TIP3    H222631   3.643   4.244  12.553  0.3090 -0.4243 -2.0057
  406TIP3   OH222632   6.492   2.509  11.509  0.0747 -0.0355 -0.2265
  406TIP3    H122633   6.439   2.439  11.472  0.3289  0.5710 -1.7900
  406TIP3    H222634   6.450   2.590  11.480  1.4442  0.4558 -0.9553
  407TIP3   OH222635   4.420   1.140   2.533 -0.7322  0.1585  0.3167
  407TIP3    H122636   4.484   1.070   2.521 -0.6839  0.2368  0.1254
  407TIP3    H222637   4.470   1.221   2.524 -0.6478  0.2271  1.2310
  408TIP3   OH222638   1.681   0.659  13.790  0.0159 -0.0950 -0.5847
  408TIP3    H122639   1.685   0.656  13.694 -0.2967  0.9235 -0.6485
  408TIP3    H222640   1.771   0.678  13.817  0.1292 -0.5125 -0.6687
  409TIP3   OH222641   3.347   6.474  13.447  0.1622  0.7739  0.3514
  409TIP3    H122642   3.386   6.550  13.490  0.6349 -0.4398  2.1543
  409TIP3    H222643   3.419   6.412  13.438 -0.1046  0.6733 -1.5489
  410TIP3   OH222644   4.331   1.877  15.811 -0.1149 -0.3188  0.2549
  410TIP3    H122645   4.344   1.900  15.720  1.3848 -0.9689  0.2726
  410TIP3    H222646   4.383   1.941  15.860  0.0471 -0.6844  0.5714
  411TIP3   OH222647   0.745   2.098   5.390  0.0350 -0.2045 -0.0718
  411TIP3    H122648   0.758   2.103   5.295  1.5769  0.4957  0.1608
  411TIP3    H222649   0.666   2.151   5.405  0.5134  0.7609 -0.8242
  412TIP3   OH222650   2.844   6.041   2.771  0.0960  0.0627  0.0609
  412TIP3    H122651   2.758   6.001   2.761 -0.4973  1.4429 -0.6542
  412TIP3    H222652   2.872   6.016   2.859 -0.1187 -2.0582 -0.4279
  413TIP3   OH222653   6.288   5.614  10.922 -0.3624  0.5757  0.3927
  413TIP3    H122654   6.247   5.566  10.849 -0.6718  0.7626  0.4406
  413TIP3    H222655   6.291   5.551  10.993  0.0984  0.3385  0.1668
  414TIP3   OH222656   3.275   1.096   5.831 -0.4842  0.2079  0.1914
  414TIP3    H122657   3.328   1.171   5.860 -0.6832  0.8949 -1.1203
  414TIP3    H222658   3.306   1.078   5.742 -1.1013 -0.6572  0.1381
  415TIP3   OH222659   4.427   6.591   2.413 -0.0775  0.9220 -0.2632
  415TIP3    H122660   4.515   6.580   2.377 -0.2840  1.5162 -0.9717
  415TIP3    H222661   4.377   6.518   2.376  0.3347  0.0447  0.8787
  416TIP3   OH222662   5.026   2.930  12.668  0.7642  0.1422  0.3153
  416TIP3    H122663   4.999   2.881  12.746  0.9200  1.7503  1.4305
  416TIP3    H222664   4.944   2.961  12.630  0.7215 -0.1123  0.1969
  417TIP3   OH222665   3.535   2.061  13.426 -0.2709  0.6358  0.4035
  417TIP3    H122666   3.517   2.139  13.478 -1.3178 -0.4847  1.7987
  417TIP3    H222667   3.550   1.992  13.490 -1.6112 -0.8013 -0.7529
  418TIP3   OH222668   5.033   4.407  13.313 -0.0918 -0.2980 -0.3387
  418TIP3    H122669   4.973   4.339  13.286  0.2494 -0.6024 -0.3358
  418TIP3    H222670   5.094   4.416  13.240  0.1611 -0.3448 -0.1361
  419TIP3   OH222671   1.495   5.918  14.585 -0.6355 -0.1394  0.2316
  419TIP3    H122672   1.476   6.009  14.609 -0.6838 -0.1941  0.4050
  419TIP3    H222673   1.580   5.922  14.540 -1.5317  0.2421 -1.4991
  420TIP3   OH222674   5.240   2.757   1.579 -0.0500 -0.5138  0.1510
  420TIP3    H122675   5.334   2.771   1.590 -0.0747 -1.7303  2.6337
  420TIP3    H222676   5.232   2.665   1.557 -0.6946 -0.5949  0.6995
  421TIP3   OH222677   3.008   6.725  11.866  0.3911  0.5379 -0.0679
  421TIP3    H122678   3.099   6.744  11.888  0.2311  1.2110  0.0411
  421TIP3    H222679   3.010   6.703  11.773  0.7707 -0.2091  0.1135
  422TIP3   OH222680   5.117   1.059   4.782 -0.7019  0.1970 -0.3254
  422TIP3    H122681   5.125   0.996   4.709 -2.6638 -0.1400 -0.3135
  422TIP3    H222682   5.198   1.048   4.832 -0.4420 -1.4262 -1.0317
  423TIP3   OH222683   2.127   6.232   6.395  0.0416 -0.0014  0.0186
  423TIP3    H122684   2.162   6.166   6.455 -0.0572  0.4796  0.6214
  423TIP3    H222685   2.050   6.190   6.356 -0.6893  0.1425  1.2488
  424TIP3   OH222686   5.203   3.845  16.755  0.3227 -0.5083 -0.0466
  424TIP3    H122687   5.271   3.875  16.694  0.7894 -0.6414  0.3944
  424TIP3    H222688   5.228   3.755  16.776  0.4357 -0.3127  0.6910
  425TIP3   OH222689   2.952   3.749  10.702 -0.5300 -0.4650  0.1180
  425TIP3    H122690   2.895   3.682  10.666 -1.1027 -0.2036  0.5148
  425TIP3    H222691   3.036   3.734  10.661 -0.9483 -0.7085 -0.6647
  426TIP3   OH222692   3.337   0.979  10.767  0.2849 -0.7882 -0.4946
  426TIP3    H122693   3.250   0.939  10.767 -0.8031  1.2851 -2.6917
  426TIP3    H222694   3.321   1.070  10.791  1.8686 -0.4063 -0.7757
  427TIP3   OH222695   0.132   5.468  16.957 -0.4277  0.0148 -0.1321
  427TIP3    H122696   0.072   5.394  16.962 -0.2326 -0.0469  2.0405
  427TIP3    H222697   0.180   5.467  17.040 -0.6014  2.6957  0.1003
  428TIP3   OH222698   5.669   0.271  14.413 -0.2996 -0.1513 -0.0986
  428TIP3    H122699   5.610   0.223  14.472  1.2854 -1.4160  0.5134
  428TIP3    H222700   5.617   0.284  14.333 -2.1775  0.7928  1.2038
  429TIP3   OH222701   4.366   3.771  15.254 -0.2913  0.5455  0.2830
  429TIP3    H122702   4.338   3.857  15.286  1.7614  1.6749 -0.7476
  429TIP3    H222703   4.442   3.750  15.308  0.3561  0.2730 -0.7281
  430TIP3   OH222704   0.768   0.613   3.990  0.5522 -0.5195 -0.2284
  430TIP3    H122705   0.803   0.609   4.080 -1.3583 -2.3455  0.5233
  430TIP3    H222706   0.732   0.701   3.982  0.8030 -0.3082  0.7700
  431TIP3   OH222707   0.994   3.191  12.507  0.0156 -0.3126  0.7769
  431TIP3    H122708   1.062   3.223  12.567  1.9387 -1.3487 -0.7282
  431TIP3    H222709   1.040   3.128  12.451 -1.6544  0.6879 -1.8714
  432TIP3   OH222710   6.031   1.582  12.078 -0.0016 -0.7001  0.3916
  432TIP3    H122711   6.113   1.613  12.040 -0.4720  0.0123 -0.0434
  432TIP3    H222712   6.007   1.649  12.141  0.8607 -1.9459  2.1331
  433TIP3   OH222713   5.575   3.793  16.221 -0.0179 -0.9910 -0.5511
  433TIP3    H122714   5.579   3.725  16.154 -0.0185 -1.3133 -0.2291
  433TIP3    H222715   5.482   3.817  16.225 -0.1727 -1.6506  0.0019
  434TIP3   OH222716   0.166   3.002  12.904  0.0618 -0.4140 -0.3205
  434TIP3    H122717   0.117   3.032  12.827  0.4032  0.3687 -0.2449
  434TIP3    H222718   0.105   3.015  12.977  0.6259  1.3760 -0.1045
  435TIP3   OH222719   5.872   6.428   0.785  0.0380  0.1512  0.5406
  435TIP3    H122720   5.953   6.387   0.813  0.0723 -0.2265 -0.0841
  435TIP3    H222721   5.890   6.522   0.788 -0.5398  0.2750  3.5246
  436TIP3   OH222722   5.032   1.916  15.959 -0.7857  0.3689 -0.2516
  436TIP3    H122723   4.988   1.929  15.876 -1.8304  0.3759  0.2835
  436TIP3    H222724   5.019   1.999  16.006 -2.2063 -0.4242  0.8054
  437TIP3   OH222725   5.941   1.245  17.134  0.0288  0.4764 -0.1918
  437TIP3    H122726   6.031   1.236  17.166 -0.5419 -1.0180  1.1712
  437TIP3    H222727   5.925   1.164  17.085 -0.4407  0.9416 -0.8220
  438TIP3   OH222728   5.019   0.133   1.564 -0.7393 -0.3618  0.4539
  438TIP3    H122729   5.000   0.068   1.496 -3.4974  0.4807  0.2874
  438TIP3    H222730   4.933   0.167   1.589  0.3305  0.6911  3.0691
  439TIP3   OH222731   3.021   6.098   2.332 -0.3932 -0.5595  0.0848
  439TIP3    H122732   3.085   6.069   2.268  0.2178 -2.8989  1.6390
  439TIP3    H222733   3.065   6.090   2.416 -1.4090  1.7385  0.9254
  440TIP3   OH222734   2.842   6.720   5.118  0.3787 -0.1587  0.6570
  440TIP3    H122735   2.901   6.703   5.044 -0.7632 -1.4417 -0.0055
  440TIP3    H222736   2.887   6.683   5.194  1.1731  0.3988  0.4756
  441TIP3   OH222737   1.595   1.236   4.383 -0.0705 -0.0410  0.3210
  441TIP3    H122738   1.659   1.255   4.314  2.2366  0.8961  2.5763
  441TIP3    H222739   1.512   1.269   4.347  1.0891  0.8002 -1.8296
  442TIP3   OH222740   3.355   6.469   2.270 -0.6301  0.0173  0.1474
  442TIP3    H122741   3.285   6.520   2.311  0.4678  1.1280  0.7166
  442TIP3    H222742   3.347   6.382   2.308 -2.2024 -0.1161 -0.4167
  443TIP3   OH222743   3.582   0.852  16.717  0.5510 -0.4981 -0.6090
  443TIP3    H122744   3.597   0.888  16.804 -0.7171  0.5040 -0.7825
  443TIP3    H222745   3.511   0.790  16.728 -0.9028  0.9881 -1.2062
  444TIP3   OH222746   3.457   4.140   2.110  0.3343  0.2924 -0.1157
  444TIP3    H122747   3.392   4.199   2.148  0.7029  1.2582 -0.9305
  444TIP3    H222748   3.538   4.161   2.157  0.2095 -0.4201  0.4228
  445TIP3   OH222749   3.411   5.545   5.255  0.1627  0.2228 -0.1169
  445TIP3    H122750   3.350   5.473   5.270 -0.5244  0.3770 -1.8783
  445TIP3    H222751   3.421   5.586   5.341 -0.6606 -1.0105  0.6036
  446TIP3   OH222752   5.862   6.275  14.867 -0.2005  0.4465  0.1477
  446TIP3    H122753   5.818   6.192  14.849  2.0521 -0.6221 -0.8040
  446TIP3    H222754   5.895   6.265  14.956 -1.1889  0.9539  0.5871
  447TIP3   OH222755   3.006   3.659   0.797  0.2894 -0.3386 -0.2765
  447TIP3    H122756   3.080   3.695   0.846 -0.6933  0.4059  0.6849
  447TIP3    H222757   2.993   3.572   0.833  0.6586 -0.4477 -0.4050
  448TIP3   OH222758   1.461   5.105   5.170 -0.1024  0.4390 -0.5620
  448TIP3    H122759   1.532   5.147   5.121  1.3487 -0.8031  0.3515
  448TIP3    H222760   1.465   5.145   5.257 -0.8142  0.6710 -0.6374
  449TIP3   OH222761   6.140   4.437   0.896 -0.0232  0.0480  0.1024
  449TIP3    H122762   6.049   4.463   0.908  0.6174  2.5233  0.1271
  449TIP3    H222763   6.189   4.519   0.896  2.1442 -1.1567 -0.6558
  450TIP3   OH222764   4.560   6.356   3.337  0.0123 -0.2198  0.1187
  450TIP3    H122765   4.611   6.299   3.395 -0.2696 -0.9245 -0.3186
  450TIP3    H222766   4.477   6.368   3.382  0.1599  0.0524  0.3249
  451TIP3   OH222767   3.095   3.087   5.622  0.1547  0.0164  0.1824
  451TIP3    H122768   3.130   3.056   5.706 -1.1394  0.5538  0.9453
  451TIP3    H222769   3.003   3.061   5.623 -0.1547  1.0249 -0.5727
  452TIP3   OH222770   6.317   3.586  14.175 -0.0670 -0.6340  0.9067
  452TIP3    H122771   6.252   3.604  14.242  0.3133  0.9079  0.8994
  452TIP3    H222772   6.314   3.663  14.117  2.2345 -0.1492  1.3247
  453TIP3   OH222773   4.633   3.788  17.090  0.2725 -0.5267 -0.0252
  453TIP3    H122774   4.634   3.693  17.077 -0.5158 -0.3135 -2.1004
  453TIP3    H222775   4.649   3.824  17.002  1.1462  1.2796  0.8225
  454TIP3   OH222776   1.806   4.020  15.821  0.6937 -0.0331 -0.3328
  454TIP3    H122777   1.746   4.022  15.895  0.4285  1.3542 -0.5534
  454TIP3    H222778   1.888   4.055  15.856  0.6938  0.2188 -0.5769
  455TIP3   OH222779   1.886   2.147   5.559  0.5001  0.2612 -0.0023
  455TIP3    H122780   1.920   2.235   5.541  0.7531  0.1808  0.0929
  455TIP3    H222781   1.909   2.096   5.482 -0.5306  0.5281 -0.5126
  456TIP3   OH222782   3.170   5.649  14.829 -0.2219  0.1761  0.0619
  456TIP3    H122783   3.082   5.685  14.821  0.1589  0.6318 -2.8851
  456TIP3    H222784   3.159   5.556  14.812 -0.1644  0.1862 -0.0284
  457TIP3   OH222785   4.350   0.108  11.435 -0.5568  0.4069  0.1813
  457TIP3    H122786   4.374   0.020  11.466 -1.9920 -0.8317 -1.9541
  457TIP3    H222787   4.301   0.145  11.508 -0.8141 -0.9770  0.7616
  458TIP3   OH222788   1.726   0.269   5.039  0.1195  0.5682  0.1976
  458TIP3    H122789   1.675   0.344   5.070 -1.3775 -0.2496 -0.2198
  458TIP3    H222790   1.717   0.203   5.109 -1.3099 -0.4031 -0.8438
  459TIP3   OH222791   5.928   6.336  14.028  0.2455 -0.1337 -0.5687
  459TIP3    H122792   5.865   6.265  14.017  0.3620 -0.4045  0.4263
  459TIP3    H222793   5.954   6.359  13.939 -2.2368  0.9118 -1.1195
  460TIP3   OH222794   4.763   5.942  16.872  0.3246  0.3442 -0.8399
  460TIP3    H122795   4.719   5.932  16.957 -1.6804 -2.0435 -2.0171
  460TIP3    H222796   4.694   5.975  16.814  1.0322 -0.2213 -2.0240
  461TIP3   OH222797   3.783   4.173   0.695 -0.3672 -0.1895 -0.1490
  461TIP3    H122798   3.729   4.198   0.620  2.4430  3.8117 -1.1204
  461TIP3    H222799   3.806   4.081   0.678 -3.3888 -0.7874 -1.7459
  462TIP3   OH222800   2.894   0.969   1.958 -0.3904  0.1061  0.1164
  462TIP3    H122801   2.860   1.049   1.998  1.5527  1.4949 -0.8718
  462TIP3    H222802   2.986   0.967   1.982  0.0543 -0.7783 -1.4888
  463TIP3   OH222803   1.443   4.989   6.036 -0.1568  0.4569  0.0969
  463TIP3    H122804   1.522   4.972   5.985 -1.0854 -2.4256 -0.5649
  463TIP3    H222805   1.474   5.035   6.114  2.4875 -1.9551  0.6349
  464TIP3   OH222806   6.440   4.500   4.663  0.4863 -0.2169  0.0303
  464TIP3    H122807   6.413   4.512   4.572 -0.4726 -0.4537  0.2792
  464TIP3    H222808   6.397   4.570   4.711  1.9961  0.6778  0.1275
  465TIP3   OH222809   1.189   0.555   4.395 -0.4260  0.0081 -0.2134
  465TIP3    H122810   1.209   0.509   4.314 -1.0860 -0.2408 -0.2381
  465TIP3    H222811   1.224   0.643   4.381 -0.5671 -0.0191 -0.7855
  466TIP3   OH222812   5.516   4.866  11.740  0.5653  0.3798 -0.4885
  466TIP3    H122813   5.567   4.791  11.709 -0.7063  0.4012 -2.8508
  466TIP3    H222814   5.435   4.827  11.773  1.2177  0.5123  1.4265
  467TIP3   OH222815   1.090   0.177   3.834  0.1081 -0.8088  0.2548
  467TIP3    H122816   1.067   0.130   3.914 -1.8111  1.1330  0.9827
  467TIP3    H222817   1.011   0.171   3.780  0.7444 -0.5785 -0.7174
  468TIP3   OH222818   1.793   3.125  11.861  0.5111  0.3178  0.2317
  468TIP3    H122819   1.786   3.200  11.803  1.9488 -0.5362 -1.1218
  468TIP3    H222820   1.795   3.049  11.802 -0.1200 -0.7394  1.5122
  469TIP3   OH222821   6.286   1.441  11.819 -0.1182  0.2235 -0.6997
  469TIP3    H122822   6.272   1.534  11.832 -0.0554  0.0783  0.5056
  469TIP3    H222823   6.278   1.403  11.906  2.4008 -0.5696 -0.7458
  470TIP3   OH222824   5.103   1.247  14.326  0.3062 -0.3539 -0.7927
  470TIP3    H122825   5.055   1.316  14.280  0.6226  1.5319  1.5413
  470TIP3    H222826   5.151   1.201  14.256 -1.3740  0.5351 -2.6335
  471TIP3   OH222827   2.012   1.855  13.618  0.3328  0.0249 -0.2673
  471TIP3    H122828   2.055   1.777  13.653  0.3869  0.8207  1.5602
  471TIP3    H222829   1.982   1.829  13.531  0.2051 -2.0725  0.3452
  472TIP3   OH222830   6.164   4.597  12.939  0.0696  0.1085  0.6127
  472TIP3    H122831   6.228   4.662  12.911 -0.5672  1.0154  1.2078
  472TIP3    H222832   6.080   4.629  12.906 -0.1803 -0.6979  0.4390
  473TIP3   OH222833   2.972   5.492  11.409  0.0656  0.8459 -0.0912
  473TIP3    H122834   3.046   5.457  11.360 -0.9140 -1.4049 -0.1100
  473TIP3    H222835   2.968   5.584  11.385  0.5378  0.1901 -3.0888
  474TIP3   OH222836   1.757   1.187   5.283 -0.2921 -0.2550  0.2837
  474TIP3    H122837   1.709   1.260   5.321 -0.1845  0.5134 -1.0022
  474TIP3    H222838   1.690   1.139   5.232 -0.1971 -0.5935  0.4740
  475TIP3   OH222839   0.324   2.010  14.452  0.2061 -0.5007  0.3418
  475TIP3    H122840   0.297   2.095  14.417  2.8037  0.8169  1.3192
  475TIP3    H222841   0.354   1.961  14.376 -1.2906 -0.6118 -0.2261
  476TIP3   OH222842   2.236   0.173  12.716 -0.5461  0.0436 -0.7487
  476TIP3    H122843   2.327   0.200  12.701 -0.8472  1.3616 -0.3350
  476TIP3    H222844   2.239   0.077  12.712  0.5280  0.1036 -2.5926
  477TIP3   OH222845   3.065   6.260   3.156 -0.1143  0.1787 -0.5255
  477TIP3    H122846   3.070   6.286   3.248 -1.2131  1.6142 -0.8276
  477TIP3    H222847   2.972   6.267   3.134  0.0153 -0.9050 -1.5455
  478TIP3   OH222848   2.204   0.995  16.811  0.0718  0.1228  0.1163
  478TIP3    H122849   2.215   0.931  16.881 -2.3254  2.4298  2.8610
  478TIP3    H222850   2.288   1.040  16.806 -0.3266  1.6153  3.5566
  479TIP3   OH222851   5.879   5.585  13.922  0.3257  0.3366  0.1684
  479TIP3    H122852   5.970   5.605  13.899  0.4623  1.4039  1.4584
  479TIP3    H222853   5.878   5.587  14.018 -1.5264  2.9550  0.2237
  480TIP3   OH222854   4.442   5.970  14.013 -0.2970 -0.1000  0.3595
  480TIP3    H122855   4.490   5.934  13.938 -0.9432 -0.2135 -0.0004
  480TIP3    H222856   4.350   5.959  13.991 -0.4969 -0.0998  1.1548
  481TIP3   OH222857   0.726   3.276   1.220 -0.9634  0.5972  0.1866
  481TIP3    H122858   0.738   3.243   1.309 -0.6497  1.6473  0.5435
  481TIP3    H222859   0.670   3.211   1.178  0.5438 -0.9723  0.5099
  482TIP3   OH222860   2.260   1.348   2.248  0.1358 -0.3318  0.0850
  482TIP3    H122861   2.211   1.267   2.233 -0.6503  0.4541 -1.9807
  482TIP3    H222862   2.352   1.321   2.247 -0.1329 -1.3013  0.3214
  483TIP3   OH222863   3.303   2.870  12.164  0.1114  0.4328 -0.2922
  483TIP3    H122864   3.293   2.964  12.145 -1.3834 -0.1466 -2.7185
  483TIP3    H222865   3.215   2.839  12.181  0.6902 -0.4412  1.3792
  484TIP3   OH222866   0.781   3.439  14.173 -0.5259 -0.3299 -0.0642
  484TIP3    H122867   0.790   3.346  14.193 -0.6007 -0.5771 -1.1224
  484TIP3    H222868   0.832   3.452  14.093 -2.0307  0.1298 -0.9916
  485TIP3   OH222869   3.503   4.093   0.593 -0.2982  0.1231  0.6702
  485TIP3    H122870   3.530   4.010   0.556  3.0122  0.4913  1.9023
  485TIP3    H222871   3.432   4.071   0.653  1.4738 -2.1302  2.1112
  486TIP3   OH222872   1.297   2.513   1.065  0.1185 -0.0420 -0.2274
  486TIP3    H122873   1.388   2.498   1.039 -0.0237  0.0927 -0.8042
  486TIP3    H222874   1.303   2.581   1.132  0.6364 -1.5839  1.3712
  487TIP3   OH222875   1.770   6.727  15.408 -0.1478 -0.0055  0.2170
  487TIP3    H122876   1.831   6.744  15.336  0.6197 -0.1719  0.8134
  487TIP3    H222877   1.794   6.791  15.475 -0.3921 -0.3128  0.5980
  488TIP3   OH222878   2.484   5.149  12.884 -0.1052  0.1734 -0.5407
  488TIP3    H122879   2.391   5.125  12.881  0.1371 -0.7842 -0.7531
  488TIP3    H222880   2.490   5.217  12.951 -0.9125  0.0222 -0.3126
  489TIP3   OH222881   1.229   4.252   5.091  0.0757  0.2539  0.3992
  489TIP3    H122882   1.249   4.336   5.133  3.6418 -0.1189 -0.1697
  489TIP3    H222883   1.278   4.256   5.008  0.1986 -2.2926  0.2889
  490TIP3   OH222884   2.246   1.546  11.337 -0.5388  0.2745  0.2586
  490TIP3    H122885   2.233   1.452  11.325 -0.8123  0.4475 -0.9443
  490TIP3    H222886   2.241   1.559  11.432 -1.9974 -0.7119  0.3524
  491TIP3   OH222887   0.494   3.067   4.453  0.3154 -0.8871 -0.5218
  491TIP3    H122888   0.460   2.992   4.502  1.3261 -0.6914  0.5322
  491TIP3    H222889   0.501   3.137   4.518  3.5436 -1.1917 -0.3904
  492TIP3   OH222890   4.453   2.762  17.234 -0.5177  0.3317 -0.0881
  492TIP3    H122891   4.371   2.788  17.192 -0.2992  0.8923 -0.1689
  492TIP3    H222892   4.517   2.826  17.204 -0.4318  0.9592  1.3564
  493TIP3   OH222893   1.212   1.431   0.674 -0.3125 -0.2718 -0.2857
  493TIP3    H122894   1.156   1.484   0.730 -0.5292 -0.3829 -0.3972
  493TIP3    H222895   1.177   1.443   0.586  0.0404 -0.0806 -0.4029
  494TIP3   OH222896   5.888   4.168  13.552 -0.2349  0.2931  0.0891
  494TIP3    H122897   5.885   4.143  13.460  0.4790  1.9061 -0.4145
  494TIP3    H222898   5.798   4.193  13.573 -0.5758 -0.8712  0.1021
  495TIP3   OH222899   0.075   3.047  12.635  0.1467 -0.5347 -0.2549
  495TIP3    H122900   0.146   3.077  12.579 -0.4222  1.1542 -0.1180
  495TIP3    H222901   0.024   2.987  12.580  1.3695 -1.3628 -0.5089
  496TIP3   OH222902   0.304   2.027   1.071 -0.4593  0.2552 -0.2779
  496TIP3    H122903   0.350   1.953   1.032  0.6084  0.5707  0.3350
  496TIP3    H222904   0.262   1.990   1.149 -0.7276  0.0895 -0.5034
  497TIP3   OH222905   0.866   6.514  15.535 -0.0854 -0.0418  0.9636
  497TIP3    H122906   0.795   6.545  15.479  0.3313 -0.8530 -0.0585
  497TIP3    H222907   0.853   6.419  15.540  1.2409 -0.2907  0.2594
  498TIP3   OH222908   6.751   5.302  12.427 -0.2267 -0.3411 -0.2982
  498TIP3    H122909   6.740   5.310  12.521  0.5721 -0.6505 -0.1674
  498TIP3    H222910   6.739   5.390  12.393  3.4314  0.6822  0.5559
  499TIP3   OH222911   3.906   0.900   5.125 -0.4248  0.1092 -0.5636
  499TIP3    H122912   3.969   0.897   5.198 -0.4521 -2.6465 -0.5500
  499TIP3    H222913   3.959   0.924   5.049 -0.2162  2.0498  0.1372
  500TIP3   OH222914   3.381   4.895   1.851 -0.1187  0.1092  0.0744
  500TIP3    H122915   3.457   4.867   1.902 -1.5961 -0.1937  2.2440
  500TIP3    H222916   3.390   4.990   1.845 -0.4675  0.3040  1.9732
  501TIP3   OH222917   3.602   4.172   1.848 -0.5216 -0.2283 -0.1909
  501TIP3    H122918   3.606   4.256   1.801  1.2935 -0.9013 -1.3583
  501TIP3    H222919   3.539   4.187   1.918  0.3772  2.3977  0.1774
  502TIP3   OH222920   2.592   6.323   0.507 -1.0052  0.3842  0.2415
  502TIP3    H122921   2.532   6.374   0.453  0.1500 -0.3307 -1.8140
  502TIP3    H222922   2.593   6.236   0.467 -1.9625 -0.9983  2.9189
  503TIP3   OH222923   5.720   4.562   1.856  0.0679  0.1413 -0.1246
  503TIP3    H122924   5.700   4.643   1.810 -1.9359  0.1529  0.6939
  503TIP3    H222925   5.747   4.501   1.787 -0.0896  0.9810 -0.9515
  504TIP3   OH222926   4.337   0.149  16.141  0.2061  0.3974  0.3298
  504TIP3    H122927   4.291   0.231  16.157  2.0805  1.6142 -0.2148
  504TIP3    H222928   4.271   0.092  16.101 -0.7648  2.1484 -0.6712
  505TIP3   OH222929   4.332   0.715  15.925 -0.0670 -0.2717 -0.4033
  505TIP3    H122930   4.393   0.786  15.945 -0.8460  0.6809 -1.2973
  505TIP3    H222931   4.387   0.645  15.892  0.4609  1.7188 -4.4818
  506TIP3   OH222932   5.822   0.096  16.111 -0.1623 -0.3637 -0.1429
  506TIP3    H122933   5.824   0.184  16.075  1.3828 -0.1498  0.4102
  506TIP3    H222934   5.904   0.056  16.081  0.2102 -0.8474  1.4663
  507TIP3   OH222935   3.277   6.306   5.200  0.1707  0.3220 -0.2203
  507TIP3    H122936   3.316   6.231   5.245 -0.5484 -0.5804 -1.0428
  507TIP3    H222937   3.282   6.283   5.107  2.0713  2.3512 -0.7070
  508TIP3   OH222938   1.318   0.673  15.139 -0.3085  0.4164 -0.0989
  508TIP3    H122939   1.242   0.643  15.189  0.4002  1.7930  1.9440
  508TIP3    H222940   1.374   0.595  15.132 -0.9485 -0.0828  0.2399
  509TIP3   OH222941   2.429   4.803  10.993  0.4842 -0.4053  0.0460
  509TIP3    H122942   2.485   4.802  11.071  1.4666  0.3476 -0.6284
  509TIP3    H222943   2.464   4.874  10.939 -2.5159  1.7004  0.5870
  510TIP3   OH222944   1.278   6.727   3.003  0.3095 -0.5267 -0.6809
  510TIP3    H122945   1.217   6.653   3.007 -1.5269  0.7279 -3.1702
  510TIP3    H222946   1.245   6.790   3.067 -1.4276  0.3683 -2.3825
  511TIP3   OH222947   2.833   2.383  14.901  0.1543 -0.7845 -0.0222
  511TIP3    H122948   2.767   2.445  14.930 -0.0093 -0.6507 -0.6528
  511TIP3    H222949   2.862   2.338  14.980  0.2803  0.1002  0.4441
  512TIP3   OH222950   0.551   4.478  16.665 -0.6854 -0.0993  0.6718
  512TIP3    H122951   0.479   4.500  16.605 -0.7952  2.1446  1.5179
  512TIP3    H222952   0.605   4.557  16.665 -0.7387  0.0163  3.5621
  513TIP3   OH222953   2.375   4.614   1.282  0.2753 -0.4208 -0.5465
  513TIP3    H122954   2.370   4.707   1.307  0.8262 -0.2275 -1.1355
  513TIP3    H222955   2.387   4.567   1.364 -1.3452 -0.0982 -0.0778
  514TIP3   OH222956   2.011   4.800  11.290 -0.3074  0.0345  0.2590
  514TIP3    H122957   1.992   4.859  11.362 -2.6261 -1.2241  0.7606
  514TIP3    H222958   1.941   4.816  11.226  0.0809 -0.8782 -0.4256
  515TIP3   OH222959   1.570   6.708  14.937  0.1864  0.2406  0.4149
  515TIP3    H122960   1.498   6.648  14.920 -0.7395  1.5427 -0.4415
  515TIP3    H222961   1.602   6.685  15.024 -0.2882 -1.3137  0.2005
  516TIP3   OH222962   4.778   3.086  14.105  0.2888 -0.0610 -0.3093
  516TIP3    H122963   4.852   3.133  14.142  0.6045 -0.9086  0.1552
  516TIP3    H222964   4.738   3.041  14.180  1.0355 -1.9390 -0.9753
  517TIP3   OH222965   2.826   0.593   3.277 -0.1205  0.0049 -0.6282
  517TIP3    H122966   2.823   0.531   3.204 -2.1183 -0.1636 -0.4352
  517TIP3    H222967   2.867   0.544   3.349  0.9587 -0.1312 -1.3143
  518TIP3   OH222968   4.576   4.591   1.359 -0.3661  0.2539 -0.0408
  518TIP3    H122969   4.539   4.505   1.376 -0.7659  0.5029  0.3755
  518TIP3    H222970   4.660   4.591   1.406 -0.2233 -0.0117 -0.2924
  519TIP3   OH222971   2.935   2.168   3.587  0.3503 -0.3234 -0.0633
  519TIP3    H122972   2.962   2.222   3.512  1.8261  1.9650  1.9574
  519TIP3    H222973   2.840   2.178   3.591  0.4115  0.7105 -0.7992
  520TIP3   OH222974   1.018   4.735   1.838 -0.0888  0.2653  0.4707
  520TIP3    H122975   0.950   4.788   1.796 -0.5583  0.4100  1.3894
  520TIP3    H222976   1.054   4.791   1.906 -0.4747 -0.5289  1.3422
  521TIP3   OH222977   4.743   2.985  12.547 -0.5917  0.3971  0.0936
  521TIP3    H122978   4.804   2.992  12.473  0.4785 -0.3967  0.8624
  521TIP3    H222979   4.670   2.933  12.513  0.1741 -0.4770 -0.2477
  522TIP3   OH222980   0.975   1.245   0.887  0.3370  0.1062 -0.1850
  522TIP3    H122981   0.983   1.329   0.932 -0.6905  1.1558 -1.8367
  522TIP3    H222982   0.965   1.181   0.957  2.2774  1.1863  1.1715
  523TIP3   OH222983   3.500   6.294  15.134  0.6529 -0.3945  0.3632
  523TIP3    H122984   3.573   6.312  15.194  0.8773  2.7623 -0.6770
  523TIP3    H222985   3.423   6.290  15.191  1.3112 -1.3154  1.2285
  524TIP3   OH222986   1.012   2.771  11.173  0.2093 -0.3388  0.1134
  524TIP3    H122987   1.083   2.710  11.155  1.9040  1.6208 -0.1718
  524TIP3    H222988   1.044   2.824  11.245 -1.5383 -0.2160  0.8614
  525TIP3   OH222989   5.769   5.855   3.753 -0.0961 -0.6844 -0.5318
  525TIP3    H122990   5.803   5.882   3.839  0.0187 -1.1315 -0.4329
  525TIP3    H222991   5.677   5.880   3.755  0.2147  0.5108 -0.7916
  526TIP3   OH222992   1.501   2.853  10.708  0.5221  0.3898  0.3512
  526TIP3    H122993   1.510   2.759  10.692  2.0447  0.8259 -1.9102
  526TIP3    H222994   1.574   2.874  10.767  0.6161  0.2424  0.2886
  527TIP3   OH222995   3.908   2.834  14.471  0.6875  0.0202  0.2173
  527TIP3    H122996   3.812   2.835  14.474  0.6465 -0.7268 -0.4013
  527TIP3    H222997   3.934   2.921  14.501 -0.1627  0.0136  1.0333
  528TIP3   OH222998   4.411   1.244   2.193 -0.3207  0.1746 -0.0122
  528TIP3    H122999   4.404   1.303   2.268 -0.4011 -1.2713  1.1733
  528TIP3    H223000   4.321   1.236   2.160 -0.4481  0.0207  0.3727
  529TIP3   OH223001   0.248   1.980  15.353  0.4504 -0.1310  0.8741
  529TIP3    H123002   0.249   2.030  15.435 -0.8836 -1.5970  1.8417
  529TIP3    H223003   0.340   1.973  15.327  0.7859  1.4584  1.5315
  530TIP3   OH223004   1.299   3.937   3.940 -0.1192  0.3082 -0.0574
  530TIP3    H123005   1.254   4.022   3.940  2.3098  1.6664  0.3895
  530TIP3    H223006   1.342   3.932   4.025  0.9372 -0.7473 -0.6212
  531TIP3   OH223007   3.536   5.408  16.226  0.3956  0.2666  0.2652
  531TIP3    H123008   3.529   5.365  16.311 -0.2715 -0.0272  0.0739
  531TIP3    H223009   3.483   5.487  16.235  0.0401  0.0598  0.0217
  532TIP3   OH223010   0.098   5.474   3.813 -0.3692 -0.2777 -0.1148
  532TIP3    H123011   0.184   5.436   3.833 -0.0796  0.4310  0.0140
  532TIP3    H223012   0.046   5.400   3.781  1.6107 -0.0503 -4.5635
  533TIP3   OH223013   5.256   5.392   4.065 -0.3364  0.1816 -0.4486
  533TIP3    H123014   5.343   5.385   4.103  0.0320 -0.5163 -1.3799
  533TIP3    H223015   5.199   5.343   4.124 -0.3866  1.7851  0.9230
  534TIP3   OH223016   4.370   3.090  16.865  0.2151 -1.0800 -0.0728
  534TIP3    H123017   4.291   3.043  16.838 -0.2839 -0.6754  0.6395
  534TIP3    H223018   4.442   3.040  16.828 -0.4073 -0.9610 -1.5077
  535TIP3   OH223019   4.041   3.822  15.067  0.0296 -0.5685  0.5095
  535TIP3    H123020   4.099   3.761  15.113  0.3090 -0.0480  0.8652
  535TIP3    H223021   3.971   3.840  15.130  0.9858  0.9930  1.1790
  536TIP3   OH223022   2.060   4.877  10.900  0.3931 -0.9415 -0.0463
  536TIP3    H123023   2.035   4.963  10.867  1.7552 -0.1221  1.0017
  536TIP3    H223024   1.994   4.857  10.966  1.9152  0.8681  2.1578
  537TIP3   OH223025   5.891   2.233   1.050  0.1175 -0.4668 -0.3968
  537TIP3    H123026   5.964   2.199   0.997  0.5473  2.3124 -1.7388
  537TIP3    H223027   5.818   2.240   0.989 -0.3888 -0.3578  0.2130
  538TIP3   OH223028   1.097   6.015   5.999  0.4206  0.4760 -0.4600
  538TIP3    H123029   1.075   6.108   5.995  0.2798  0.6504  2.3027
  538TIP3    H223030   1.047   5.982   6.074  1.2651 -1.6020 -0.7404
  539TIP3   OH223031   1.372   2.277  14.682  0.0109 -0.7063 -0.2687
  539TIP3    H123032   1.447   2.333  14.701  0.4186 -1.6487  1.0196
  539TIP3    H223033   1.380   2.257  14.589  0.9933 -0.2820 -0.2849
  540TIP3   OH223034   6.182   3.240  13.915  0.2383  0.3403  0.0631
  540TIP3    H123035   6.272   3.233  13.883  0.6035  0.7480  0.9679
  540TIP3    H223036   6.148   3.318  13.873  0.0855 -0.1736 -0.7865
  541TIP3   OH223037   3.892   5.134  12.481  0.1432  0.5857 -0.3808
  541TIP3    H123038   3.797   5.124  12.480  0.0627  1.3058 -0.8224
  541TIP3    H223039   3.907   5.228  12.468  0.8981  0.6476  0.7307
  542TIP3   OH223040   2.430   4.521   0.247 -0.1719 -0.2741  0.6421
  542TIP3    H123041   2.448   4.507   0.340 -1.2645  1.4961  1.1642
  542TIP3    H223042   2.339   4.492   0.236  0.4542 -2.0940 -0.3078
  543TIP3   OH223043   5.652   0.020   1.283  0.3401 -0.5464 -0.1102
  543TIP3    H123044   5.696   0.039   1.366  0.7316 -1.2733 -0.1493
  543TIP3    H223045   5.563   0.055   1.294  0.8699  0.8219  0.0180
  544TIP3   OH223046   2.907   5.416   3.747 -0.0932  0.3164  1.0910
  544TIP3    H123047   2.886   5.445   3.658  0.6703  0.2589  0.8836
  544TIP3    H223048   2.990   5.459   3.767  0.6257 -1.0119  1.1070
  545TIP3   OH223049   5.643   3.998  12.577 -0.2422 -0.5796  0.2736
  545TIP3    H123050   5.667   4.043  12.496 -1.9384  0.0665  0.0878
  545TIP3    H223051   5.638   3.905  12.552 -1.2793 -0.3279 -0.5243
  546TIP3   OH223052   0.753   5.854  16.165 -0.9272 -0.4879 -0.1920
  546TIP3    H123053   0.736   5.767  16.131  1.9051 -0.6904 -1.3599
  546TIP3    H223054   0.717   5.913  16.099  1.3856 -0.8640 -1.8776
  547TIP3   OH223055   6.195   0.532   3.310 -0.4032 -0.1726 -0.1274
  547TIP3    H123056   6.200   0.570   3.398 -0.9925 -0.3379 -0.0178
  547TIP3    H223057   6.271   0.475   3.304  1.9885  2.8328 -1.1917
  548TIP3   OH223058   6.227   2.970   0.754  0.3115 -0.0616  0.4421
  548TIP3    H123059   6.271   2.902   0.704  0.5326  1.4737 -1.6107
  548TIP3    H223060   6.241   3.050   0.702  1.5294  1.9226  3.5366
  549TIP3   OH223061   5.153   5.219   0.157 -0.3377  0.2596  0.0418
  549TIP3    H123062   5.180   5.162   0.229 -0.8441  0.3966  0.3446
  549TIP3    H223063   5.208   5.191   0.083 -0.4673 -0.5140  0.2227
  550TIP3   OH223064   0.588   0.039   0.480 -0.4439  0.2836 -0.1613
  550TIP3    H123065   0.670   0.042   0.529 -0.2001 -1.8775 -0.3219
  550TIP3    H223066   0.537   0.113   0.514  0.6339  0.2694  1.6403
  551TIP3   OH223067   2.117   1.038   3.975  0.1599 -0.1869 -0.0315
  551TIP3    H123068   2.114   1.070   4.065 -0.0124  0.2887 -0.2014
  551TIP3    H223069   2.204   1.063   3.943  0.4939 -1.0061  0.2365
  552TIP3   OH223070   6.144   2.607  16.626  0.3123  0.4816 -0.9867
  552TIP3    H123071   6.162   2.547  16.697  0.4101 -0.7214 -1.9963
  552TIP3    H223072   6.133   2.551  16.549 -0.4490  1.6929 -1.7939
  553TIP3   OH223073   5.768   5.480   3.317 -0.0976 -0.3114 -0.1058
  553TIP3    H123074   5.686   5.523   3.339 -0.8566 -1.8666  0.3029
  553TIP3    H223075   5.743   5.409   3.258  1.0738 -0.2572 -0.6998
  554TIP3   OH223076   5.495   2.477  16.061 -0.0591 -0.1344  0.2778
  554TIP3    H123077   5.451   2.430  16.132  2.0764 -1.0250  1.1159
  554TIP3    H223078   5.495   2.568  16.090 -1.1420 -0.1484  0.3472
  555TIP3   OH223079   1.157   2.793   2.677  0.0884  0.1669  0.4255
  555TIP3    H123080   1.086   2.825   2.621  1.2443  1.9640 -0.0954
  555TIP3    H223081   1.117   2.784   2.763 -1.0507 -0.0274 -0.1002
  556TIP3   OH223082   6.247   6.586   3.747 -0.2024  0.1813 -0.2055
  556TIP3    H123083   6.233   6.551   3.835  2.1760  0.8381  0.5028
  556TIP3    H223084   6.216   6.677   3.752 -1.1526 -0.1157 -0.4231
  557TIP3   OH223085   0.331   6.244   5.134  0.1431  0.3922 -0.6418
  557TIP3    H123086   0.331   6.181   5.061 -1.4648 -0.1601 -0.2143
  557TIP3    H223087   0.325   6.330   5.091 -0.7213  0.0785 -1.1926
  558TIP3   OH223088   0.399   5.914   3.485  0.6098 -0.7701  0.0771
  558TIP3    H123089   0.374   5.857   3.412 -1.1063 -1.3492  1.0487
  558TIP3    H223090   0.494   5.923   3.477  0.4857 -0.8673 -2.1673
  559TIP3   OH223091   4.266   3.502   1.058  0.4406  0.3674 -0.1495
  559TIP3    H123092   4.312   3.501   0.974  0.5549 -0.4837 -0.0930
  559TIP3    H223093   4.228   3.589   1.064  0.9240  0.6346 -0.8167
  560TIP3   OH223094   0.365   6.146   5.545 -0.5939  0.4392 -0.2279
  560TIP3    H123095   0.388   6.065   5.590 -2.3079  0.9694  1.7509
  560TIP3    H223096   0.282   6.128   5.502 -0.6902  0.9764 -0.2791
  561TIP3   OH223097   2.530   4.160  15.012  0.1493  0.4642  0.0144
  561TIP3    H123098   2.535   4.113  15.095 -0.4392  1.4862  0.6462
  561TIP3    H223099   2.448   4.130  14.972 -0.0557  0.6935  0.2599
  562TIP3   OH223100   0.266   1.877   1.755  0.1926  0.3058 -0.0648
  562TIP3    H123101   0.329   1.925   1.809  1.6168 -1.5520  0.0256
  562TIP3    H223102   0.241   1.802   1.809  0.6424 -0.8867 -1.4654
  563TIP3   OH223103   1.139   5.759  16.999 -0.1737  0.0063 -0.1947
  563TIP3    H123104   1.231   5.779  16.980 -0.2164 -0.8064 -1.3655
  563TIP3    H223105   1.108   5.835  17.047  1.0853  0.3465  0.1378
  564TIP3   OH223106   0.209   0.206   2.309  0.3518  0.1345  0.2999
  564TIP3    H123107   0.245   0.294   2.316  0.6446  0.2294 -1.9184
  564TIP3    H223108   0.275   0.156   2.261  1.5291 -2.1634  3.9265
  565TIP3   OH223109   6.195   4.633  15.282 -0.4000 -0.2548 -0.4640
  565TIP3    H123110   6.229   4.713  15.241  1.3511 -0.5201  0.3573
  565TIP3    H223111   6.260   4.566  15.261 -0.6722 -0.9242  0.7490
  566TIP3   OH223112   4.130   1.141  14.500 -0.1218  0.4142 -0.1873
  566TIP3    H123113   4.081   1.213  14.541  1.1946  1.0118  0.4035
  566TIP3    H223114   4.211   1.135  14.551 -0.8427 -2.5884  0.8362
  567TIP3   OH223115   6.006   2.244  16.103 -0.4661 -0.2498  0.0706
  567TIP3    H123116   6.072   2.276  16.041 -1.2409 -0.9086 -1.1130
  567TIP3    H223117   6.028   2.151  16.115 -0.5905 -0.2313  0.4576
  568TIP3   OH223118   1.142   6.191  14.883 -0.3576 -0.0370  0.0604
  568TIP3    H123119   1.164   6.106  14.920  1.7880  1.1244  1.7261
  568TIP3    H223120   1.122   6.246  14.959 -0.9840  1.1264 -0.9103
  569TIP3   OH223121   1.686   5.195   4.997  0.0449  0.8487 -0.2948
  569TIP3    H123122   1.626   5.267   4.976  0.7430  2.5013  2.7511
  569TIP3    H223123   1.773   5.235   4.995  0.6628 -0.4600 -0.5474
  570TIP3   OH223124   3.157   0.418   3.638 -0.1826 -0.4030 -0.0654
  570TIP3    H123125   3.157   0.323   3.649  0.8864 -0.2269  1.8579
  570TIP3    H223126   3.245   0.438   3.605  1.0241  0.1793  3.1481
  571TIP3   OH223127   2.462   6.046  15.205 -1.1218  0.4482 -0.0570
  571TIP3    H123128   2.508   6.067  15.286 -0.9459 -0.2052  0.0245
  571TIP3    H223129   2.472   5.951  15.197 -1.4643  0.4597 -0.6458
  572TIP3   OH223130   6.290   4.327  11.734  0.6271 -0.6041  0.9638
  572TIP3    H123131   6.280   4.403  11.790  0.4518 -0.2747  0.4930
  572TIP3    H223132   6.327   4.260  11.791  1.0886 -0.0684  1.2992
  573TIP3   OH223133   5.077   3.543  14.009 -0.4887  0.4918  0.4004
  573TIP3    H123134   5.077   3.455  13.972 -0.0791  0.1800  1.1124
  573TIP3    H223135   5.015   3.538  14.082 -0.7000  0.8771  0.2500
  574TIP3   OH223136   1.336   2.738  10.966 -0.2045 -0.6227  0.3294
  574TIP3    H123137   1.409   2.780  11.011 -0.7813  2.6815 -1.4848
  574TIP3    H223138   1.368   2.724  10.877 -1.6703  0.8729 -0.4886
  575TIP3   OH223139   2.940   3.711  12.336  0.1513 -0.2375 -0.3925
  575TIP3    H123140   3.018   3.744  12.291 -0.3737 -0.1717 -1.2975
  575TIP3    H223141   2.881   3.787  12.340  1.0475  0.4220  2.5471
  576TIP3   OH223142   1.300   4.048  10.447  0.4463  0.1063 -0.5967
  576TIP3    H123143   1.240   4.053  10.521 -0.1587  2.1913 -1.1543
  576TIP3    H223144   1.347   4.132  10.449  0.8625 -0.0630 -2.1960
  577TIP3   OH223145   4.504   0.475   1.437  0.4479  0.1258  0.4390
  577TIP3    H123146   4.450   0.439   1.507  0.1608 -0.2365  0.0342
  577TIP3    H223147   4.461   0.557   1.413 -0.4151 -0.5689 -0.4582
  578TIP3   OH223148   2.570   1.789   1.841  0.3665 -0.3194  0.6930
  578TIP3    H123149   2.482   1.756   1.822 -0.4538  1.6766  0.7413
  578TIP3    H223150   2.589   1.758   1.930 -0.6882 -0.0403  1.0298
  579TIP3   OH223151   2.479   3.806   3.035 -0.1202 -0.2509  0.0302
  579TIP3    H123152   2.552   3.745   3.045  0.4668  0.3005 -0.7883
  579TIP3    H223153   2.410   3.754   2.992  0.1488 -0.5089 -0.0912
  580TIP3   OH223154   1.617   1.998   0.105  0.5344 -0.3637 -0.1861
  580TIP3    H123155   1.598   1.905   0.093 -1.5171  0.1243 -1.0355
  580TIP3    H223156   1.577   2.020   0.190  0.6062 -0.1454 -0.2069
  581TIP3   OH223157   2.178   6.431   6.171 -0.5109  0.2804 -0.0611
  581TIP3    H123158   2.165   6.382   6.253 -1.8385  2.2282  0.9839
  581TIP3    H223159   2.089   6.453   6.143 -0.0008  0.9145 -1.2451
  582TIP3   OH223160   5.629   2.765   1.288 -0.0957 -0.2930 -0.0441
  582TIP3    H123161   5.597   2.697   1.347  0.6904 -0.3630  0.3213
  582TIP3    H223162   5.574   2.841   1.307  0.4311 -0.1827  1.1111
  583TIP3   OH223163   6.465   6.015   4.411  0.1075 -0.4661 -0.5734
  583TIP3    H123164   6.521   5.977   4.343  0.9565 -1.6836  0.7353
  583TIP3    H223165   6.413   5.941   4.444  0.9948 -0.3317  1.2682
  584TIP3   OH223166   1.776   6.534  15.916 -1.0492 -0.0961  0.2586
  584TIP3    H123167   1.768   6.594  15.842 -0.7268  1.0605  1.1329
  584TIP3    H223168   1.843   6.574  15.973 -1.1236 -1.0695  1.0663
  585TIP3   OH223169   6.133   6.057   2.643 -0.4762 -0.1341 -0.2390
  585TIP3    H123170   6.066   6.100   2.696 -1.0786  0.4119 -1.4034
  585TIP3    H223171   6.204   6.040   2.704 -0.9293  0.9424  0.6371
  586TIP3   OH223172   2.738   3.700  16.935  0.0136 -0.0493  0.1073
  586TIP3    H123173   2.749   3.663  16.847  1.4872 -1.7699  0.9678
  586TIP3    H223174   2.657   3.662  16.968  0.4814 -0.9501  0.2280
  587TIP3   OH223175   6.427   1.719  13.254 -0.0113 -0.0745  0.3832
  587TIP3    H123176   6.471   1.638  13.229 -0.3324 -0.3895  0.8388
  587TIP3    H223177   6.383   1.699  13.336  0.4830  0.7626  0.8685
  588TIP3   OH223178   4.744   5.718   5.409 -0.5352 -0.1340  0.2066
  588TIP3    H123179   4.806   5.711   5.337  0.1370 -1.6802  0.9019
  588TIP3    H223180   4.687   5.642   5.399 -0.5433 -0.2692  1.2117
  589TIP3   OH223181   5.850   5.694   4.220 -0.5484  0.2926 -0.7291
  589TIP3    H123182   5.761   5.721   4.244  0.1843  2.5862 -0.3112
  589TIP3    H223183   5.892   5.775   4.192  1.1353 -0.9246 -1.8671
  590TIP3   OH223184   5.224   5.056   3.990  0.4978  0.0202  0.1972
  590TIP3    H123185   5.313   5.084   3.971 -0.2983  3.0911  0.5031
  590TIP3    H223186   5.196   5.010   3.911  1.9568  0.0046 -0.3427
  591TIP3   OH223187   2.652   4.079  12.701  0.2502  0.0642 -0.1268
  591TIP3    H123188   2.608   4.158  12.732  1.8379  1.2001 -0.6528
  591TIP3    H223189   2.745   4.098  12.710  0.7059 -0.9938 -2.0140
  592TIP3   OH223190   0.194   3.830  11.915 -0.0044  0.2187  0.1248
  592TIP3    H123191   0.121   3.876  11.955  1.6234  0.7744  2.7267
  592TIP3    H223192   0.191   3.854  11.823 -1.7158  2.0661  0.6033
  593TIP3   OH223193   6.472   6.221   0.594 -0.0745  0.4056  0.1422
  593TIP3    H123194   6.381   6.231   0.623 -1.5878  0.2698 -3.8670
  593TIP3    H223195   6.509   6.309   0.603 -1.7354  1.3126 -1.1556
  594TIP3   OH223196   6.389   2.238   2.887  0.2799  0.0298  0.5181
  594TIP3    H123197   6.313   2.295   2.874 -0.1660 -0.5687  0.5086
  594TIP3    H223198   6.398   2.231   2.982  1.5811  1.7655  0.5748
  595TIP3   OH223199   3.782   1.942  11.468 -0.5083  0.2406  0.1461
  595TIP3    H123200   3.852   1.882  11.494  0.0979  0.8804  0.0370
  595TIP3    H223201   3.749   1.907  11.386 -0.5529 -0.2603  0.3755
  596TIP3   OH223202   0.380   6.678  12.570  0.0888 -0.2132 -0.2460
  596TIP3    H123203   0.335   6.593  12.578  0.7013 -0.4985  0.2963
  596TIP3    H223204   0.309   6.742  12.561 -0.3883 -0.7639 -0.5089
  597TIP3   OH223205   5.185   6.616  13.418  0.2976  0.3133  0.0963
  597TIP3    H123206   5.246   6.651  13.353  0.3687  1.5966  0.8209
  597TIP3    H223207   5.198   6.521  13.415  0.5704  0.3724 -1.4715
  598TIP3   OH223208   6.451   2.130  14.907 -0.2192  0.2771 -0.0739
  598TIP3    H123209   6.392   2.102  14.838 -0.5762 -0.5159  0.5361
  598TIP3    H223210   6.396   2.183  14.966 -0.0508  0.4755 -0.0913
  599TIP3   OH223211   4.944   6.693   5.307  0.2214  0.1619  0.1421
  599TIP3    H123212   4.928   6.699   5.213  2.6453 -0.9473 -0.4244
  599TIP3    H223213   4.982   6.778   5.330 -3.1214  1.6242  0.8645
  600TIP3   OH223214   2.122   6.152   0.874 -0.3641  0.5668  0.5233
  600TIP3    H123215   2.156   6.116   0.956 -1.4395  1.2687  1.3009
  600TIP3    H223216   2.110   6.076   0.818  2.4292  0.2565  0.1843
  601TIP3   OH223217   6.613   1.924  10.631 -0.0526  0.0321  0.2039
  601TIP3    H123218   6.695   1.965  10.660 -0.6360  1.8001 -0.5052
  601TIP3    H223219   6.637   1.872  10.555  0.5169 -0.0341  0.4233
  602TIP3   OH223220   0.270   0.028  11.203 -0.0222 -0.3682  0.5234
  602TIP3    H123221   0.179  -0.002  11.203 -0.1682  0.0066 -0.8297
  602TIP3    H223222   0.314  -0.029  11.140 -0.2385  1.9126 -1.8526
  603TIP3   OH223223   6.083   0.612   0.016  0.0614 -0.4940  0.6227
  603TIP3    H123224   6.118   0.652   0.096  1.3281 -1.0016  0.3591
  603TIP3    H223225   6.153   0.554  -0.014  0.8588  1.7721 -2.4300
  604TIP3   OH223226   1.139   5.357   0.297 -0.2067  0.0355  0.2821
  604TIP3    H123227   1.196   5.380   0.371  0.6541 -0.5920 -0.1588
  604TIP3    H223228   1.058   5.405   0.313  0.0638  0.1300  1.4839
  605TIP3   OH223229   6.661   1.265   0.310  0.0384  0.0081 -0.3356
  605TIP3    H123230   6.694   1.276   0.399  0.8086  2.3504 -0.8491
  605TIP3    H223231   6.664   1.170   0.295 -2.1221 -0.7580  2.8241
  606TIP3   OH223232   2.002   0.052   3.930 -0.0430  0.0076  0.2526
  606TIP3    H123233   1.957   0.058   4.014 -2.5056  1.2543 -1.0389
  606TIP3    H223234   1.957  -0.020   3.884  0.0528  0.5051 -0.6405
  607TIP3   OH223235   3.324   4.880  15.271 -0.1273  0.1300  0.4061
  607TIP3    H123236   3.337   4.861  15.364  2.3415  1.6121  0.4568
  607TIP3    H223237   3.264   4.955  15.270  1.9299  1.8934  1.0532
  608TIP3   OH223238   3.765   2.271   5.633  1.0733  0.4550 -0.9256
  608TIP3    H123239   3.764   2.348   5.575  1.3482  0.6414 -0.6831
  608TIP3    H223240   3.744   2.306   5.720  2.2024  0.4149 -0.6257
  609TIP3   OH223241   4.066   5.720  15.973 -0.1315  0.0834 -0.2731
  609TIP3    H123242   4.006   5.708  16.046  1.0317 -2.0544  0.4071
  609TIP3    H223243   4.132   5.652  15.984  1.7278  1.5320 -1.6986
  610TIP3   OH223244   3.074   6.724   4.105 -0.1671  0.1072 -0.2328
  610TIP3    H123245   3.067   6.795   4.041  0.7626 -0.2797 -0.7803
  610TIP3    H223246   3.004   6.663   4.081 -0.1771  0.2326 -0.5303
  611TIP3   OH223247   3.029   2.309  13.157  0.3851  0.3024  0.8621
  611TIP3    H123248   3.088   2.261  13.098 -1.5533 -2.8228  1.2268
  611TIP3    H223249   2.982   2.369  13.100 -0.9082 -2.1091 -0.8126
  612TIP3   OH223250   1.225   3.990  14.072 -0.4101  0.4894 -0.4742
  612TIP3    H123251   1.221   4.063  14.134 -0.3343 -0.5356  0.7780
  612TIP3    H223252   1.283   3.926  14.113 -0.9564 -0.5503 -1.2538
  613TIP3   OH223253   0.566   4.665  12.444  0.8026  0.1269 -0.3371
  613TIP3    H123254   0.662   4.661  12.442  0.8649 -1.0037  1.8601
  613TIP3    H223255   0.539   4.586  12.491 -1.2438  0.3339 -1.0445
  614TIP3   OH223256   4.422   4.813   2.314  0.0023  0.1646 -0.0218
  614TIP3    H123257   4.346   4.872   2.310 -1.4078 -1.2776  2.4782
  614TIP3    H223258   4.459   4.827   2.401 -1.3265 -3.4982  1.3479
  615TIP3   OH223259   5.875   0.108  14.532  0.2260  0.3311 -0.0749
  615TIP3    H123260   5.875   0.031  14.474  2.5609  2.5156 -3.3122
  615TIP3    H223261   5.792   0.152  14.514 -1.0969 -1.2315  1.7530
  616TIP3   OH223262   5.777   6.197  11.356 -0.0889 -0.2467 -0.3227
  616TIP3    H123263   5.744   6.120  11.310  0.2221  0.0621 -1.0719
  616TIP3    H223264   5.805   6.164  11.441  1.2589 -1.2143 -1.0996
  617TIP3   OH223265   0.844   2.349  10.665 -0.0592 -0.0535 -0.2543
  617TIP3    H123266   0.840   2.438  10.630  0.3342  0.9551  2.0726
  617TIP3    H223267   0.786   2.350  10.742  1.5445 -1.1694  1.0468
  618TIP3   OH223268   0.701   2.275  12.123 -0.0736  0.0865 -0.2363
  618TIP3    H123269   0.645   2.312  12.192 -0.4334  1.4805 -1.2302
  618TIP3    H223270   0.697   2.340  12.053  2.1925 -0.1370 -0.6383
  619TIP3   OH223271   3.361   3.517   0.432 -0.3954  0.2266 -0.1428
  619TIP3    H123272   3.434   3.575   0.411  0.0366 -0.1871  0.1882
  619TIP3    H223273   3.358   3.456   0.359  0.3791 -0.5080  0.4183
  620TIP3   OH223274   3.045   6.655  10.680  0.7320 -0.3453  0.2725
  620TIP3    H123275   2.994   6.671  10.601  0.4122 -0.8112  0.3801
  620TIP3    H223276   3.136   6.665  10.653  0.5930  0.4783  0.0711
  621TIP3   OH223277   4.857   5.235  14.935  0.0539  0.0215  0.1551
  621TIP3    H123278   4.820   5.248  14.847  0.9234 -0.8239 -0.3512
  621TIP3    H223279   4.887   5.144  14.935  0.6555  0.2112  1.1079
  622TIP3   OH223280   0.194   3.412  10.337 -0.1419 -0.0820  0.0440
  622TIP3    H123281   0.104   3.382  10.330 -0.0251 -0.4186 -0.0660
  622TIP3    H223282   0.247   3.334  10.318  0.1760 -0.0718  0.8312
  623TIP3   OH223283   5.579   0.542  11.931 -0.3107 -0.3600 -0.1179
  623TIP3    H123284   5.657   0.496  11.903  0.8388  1.6538 -0.4435
  623TIP3    H223285   5.606   0.592  12.008 -1.2361  0.4632 -0.2953
  624TIP3   OH223286   3.135   3.988  12.537  0.4028 -0.3073  0.2360
  624TIP3    H123287   3.119   3.894  12.529  1.5795 -0.3721 -4.8268
  624TIP3    H223288   3.048   4.027  12.538 -0.0881 -1.3720  1.2888
  625TIP3   OH223289   2.395   3.788  16.358 -0.7696  0.5751 -0.0935
  625TIP3    H123290   2.349   3.863  16.398 -0.5095  0.0765  1.2019
  625TIP3    H223291   2.487   3.801  16.382 -0.6979 -0.0594 -0.0194
  626TIP3   OH223292   6.170   6.255  14.105  0.5806 -0.1434 -0.2295
  626TIP3    H123293   6.079   6.269  14.080  0.6265  0.1524 -0.2253
  626TIP3    H223294   6.176   6.160  14.120  0.2757 -0.1632 -0.2318
  627TIP3   OH223295   0.392   4.402   1.031  0.1378  0.2326 -0.4869
  627TIP3    H123296   0.406   4.492   1.060  0.5839  0.4268 -1.2723
  627TIP3    H223297   0.480   4.369   1.011 -0.0420 -0.3141 -0.4050
  628TIP3   OH223298   4.163   2.254  14.349 -0.2476 -0.0225  0.4424
  628TIP3    H123299   4.167   2.158  14.348  0.9670  0.0032  0.4046
  628TIP3    H223300   4.232   2.281  14.288 -1.5787  0.8774 -0.7360
  629TIP3   OH223301   1.469   1.380   0.950  0.0420  0.4848 -0.0369
  629TIP3    H123302   1.510   1.294   0.956  0.1998  0.6022  0.6425
  629TIP3    H223303   1.492   1.411   0.862 -0.0354 -0.1697 -0.2977
  630TIP3   OH223304   2.998   1.561   3.528  0.0090 -0.0571 -0.0682
  630TIP3    H123305   3.029   1.471   3.520 -2.0202 -0.8145  0.0787
  630TIP3    H223306   3.013   1.584   3.620 -2.6478 -1.5817  0.8695
  631TIP3   OH223307   1.596   0.297   0.454 -0.1677  0.5126  0.1345
  631TIP3    H123308   1.552   0.287   0.539  0.5454 -1.0280  0.3652
  631TIP3    H223309   1.680   0.252   0.466 -0.0738  0.2217 -1.4026
  632TIP3   OH223310   4.707   5.416   2.699 -0.0845 -0.4204 -0.0273
  632TIP3    H123311   4.721   5.383   2.611  1.3146 -0.4959  0.2069
  632TIP3    H223312   4.641   5.485   2.689 -1.7618 -2.0460 -0.7615
  633TIP3   OH223313   1.649   4.714  12.940  0.3911 -0.1416 -0.3880
  633TIP3    H123314   1.737   4.749  12.926  0.1838  0.7233  0.3588
  633TIP3    H223315   1.664   4.627  12.977  0.9369 -0.0242 -0.3177
  634TIP3   OH223316   5.751   2.350  17.210  0.0165 -0.2639  0.1763
  634TIP3    H123317   5.726   2.396  17.130  3.2362  0.2716 -0.6597
  634TIP3    H223318   5.761   2.259  17.183  0.3341 -0.2276  0.1746
  635TIP3   OH223319   6.035   3.447  16.599 -0.2664 -0.1260  0.0492
  635TIP3    H123320   6.052   3.436  16.506 -1.0393 -1.6217  0.0497
  635TIP3    H223321   6.120   3.467  16.637 -0.0360  1.0992 -1.0390
  636TIP3   OH223322   4.364   4.455   6.023 -0.2048 -0.2535  0.2977
  636TIP3    H123323   4.438   4.404   5.991 -0.2169 -0.6437  0.8616
  636TIP3    H223324   4.311   4.392   6.073 -0.8900  0.0311 -0.0575
  637TIP3   OH223325   5.922   4.852   0.151  0.0937 -0.7365 -0.0640
  637TIP3    H123326   5.911   4.942   0.120  1.2322 -0.5917 -0.0748
  637TIP3    H223327   5.853   4.841   0.217  1.0647  0.7765  1.2841
  638TIP3   OH223328   1.922   3.307   0.924 -0.0769 -0.4068 -0.2882
  638TIP3    H123329   1.932   3.374   0.856 -2.6457 -0.1303 -0.5039
  638TIP3    H223330   1.949   3.226   0.882 -0.4118 -0.0406 -1.2423
  639TIP3   OH223331   1.593   3.176   1.058 -0.3130 -0.0547  0.3653
  639TIP3    H123332   1.518   3.163   1.116 -0.5094 -2.6347 -0.3738
  639TIP3    H223333   1.611   3.089   1.022  1.0258  1.1132 -1.9616
  640TIP3   OH223334   1.284   6.606   5.736  0.0753  0.3523  0.0030
  640TIP3    H123335   1.249   6.686   5.775 -0.6547  0.0152  0.0552
  640TIP3    H223336   1.215   6.575   5.677  0.2821 -0.3190  0.0950
  641TIP3   OH223337   4.617   4.706   5.217  0.2563 -0.2867 -0.3274
  641TIP3    H123338   4.701   4.743   5.188 -0.1383  0.9469  0.0742
  641TIP3    H223339   4.599   4.637   5.153  0.7146  0.6159 -1.4707
  642TIP3   OH223340   5.701   4.439  15.363  0.4460  0.0389 -0.1575
  642TIP3    H123341   5.791   4.446  15.332  1.1453  0.1970  1.7792
  642TIP3    H223342   5.655   4.513  15.323  1.0221 -0.3309 -1.5623
  643TIP3   OH223343   5.140   5.280   1.142  0.7083  0.5595 -0.7715
  643TIP3    H123344   5.228   5.314   1.161  0.8248  0.5338 -1.2591
  643TIP3    H223345   5.090   5.297   1.222  1.7613 -1.5109  0.4062
  644TIP3   OH223346   2.761   5.554  13.450  0.4705  0.4294  0.0741
  644TIP3    H123347   2.808   5.611  13.511 -1.6087  0.9945  1.2465
  644TIP3    H223348   2.804   5.469  13.459  3.3109  1.5945 -1.3340
  645TIP3   OH223349   1.182   2.944   6.003 -0.2514 -0.1437  0.6444
  645TIP3    H123350   1.187   2.948   6.098 -2.3340 -0.0727  0.7920
  645TIP3    H223351   1.168   3.035   5.976 -1.2201 -0.3510  0.4118
  646TIP3   OH223352   3.240   5.257   6.123  0.5963 -0.1524 -0.2230
  646TIP3    H123353   3.235   5.255   6.219 -0.3777  1.7723 -0.1926
  646TIP3    H223354   3.177   5.324   6.097  1.0103 -0.4830 -2.2113
  647TIP3   OH223355   4.221   5.574   3.710 -0.1127 -0.1508  0.1130
  647TIP3    H123356   4.163   5.505   3.743  0.9410 -0.8737  0.4984
  647TIP3    H223357   4.179   5.603   3.628 -1.6792  0.2575  1.0192
  648TIP3   OH223358   3.609   3.530   0.083 -0.4236 -0.5711  0.0385
  648TIP3    H123359   3.609   3.435   0.071 -1.0335 -0.8406  1.8854
  648TIP3    H223360   3.666   3.545   0.158  1.7268  0.8141 -1.7268
  649TIP3   OH223361   3.309   0.975   4.294  0.1950 -0.5338 -0.2205
  649TIP3    H123362   3.220   0.967   4.330 -0.4031 -0.2508 -1.5363
  649TIP3    H223363   3.338   1.062   4.320 -0.3516 -0.2122 -0.6469
  650TIP3   OH223364   5.366   6.458   2.630 -0.6069  0.1756  0.3831
  650TIP3    H123365   5.426   6.499   2.692 -0.5548 -1.1628  1.2752
  650TIP3    H223366   5.420   6.395   2.582 -1.3522 -1.5460  1.6667
  651TIP3   OH223367   1.300   0.558   3.512  0.2107 -0.1625  0.1416
  651TIP3    H123368   1.251   0.505   3.574  0.8197 -0.6419  0.2186
  651TIP3    H223369   1.234   0.615   3.472 -0.5811 -1.4908 -0.4930
  652TIP3   OH223370   0.059   4.726  13.278  0.1314  0.0465 -0.1883
  652TIP3    H123371   0.075   4.648  13.225  1.9488  0.3686 -0.1773
  652TIP3    H223372   0.040   4.692  13.366 -1.6867 -0.4387 -0.7305
  653TIP3   OH223373   0.632   1.013  11.061 -0.1671 -0.3889  0.0186
  653TIP3    H123374   0.629   1.030  10.967 -0.8656 -0.0037  0.1016
  653TIP3    H223375   0.721   0.982  11.077  0.0241 -0.2522 -0.7325
  654TIP3   OH223376   3.388   2.845  15.257  0.2930  0.2185 -0.3950
  654TIP3    H123377   3.405   2.877  15.345  1.1330 -1.1819 -0.0250
  654TIP3    H223378   3.413   2.753  15.259  0.6631  0.2341 -2.1746
  655TIP3   OH223379   5.279   5.428  11.782  0.3700 -0.2985 -0.1542
  655TIP3    H123380   5.244   5.504  11.736 -2.4758 -1.2973  0.1835
  655TIP3    H223381   5.275   5.452  11.875 -3.1792 -1.6972  0.1956
  656TIP3   OH223382   0.106   3.771  15.246 -0.6277  0.1592  0.2253
  656TIP3    H123383   0.088   3.700  15.184 -1.3987  0.4041  0.1598
  656TIP3    H223384   0.201   3.776  15.249 -0.5128 -1.5934  1.0381
  657TIP3   OH223385   0.641   1.450  12.967 -0.1662 -0.0677  0.0445
  657TIP3    H123386   0.568   1.395  12.996  0.5965 -1.3754 -0.4426
  657TIP3    H223387   0.610   1.489  12.885 -1.1208  1.1452  0.9333
  658TIP3   OH223388   5.338   0.744   1.100  0.6799 -0.1141 -0.4042
  658TIP3    H123389   5.415   0.795   1.125 -0.5336  0.6733  2.0197
  658TIP3    H223390   5.268   0.809   1.092  0.0151 -0.9311 -1.5075
  659TIP3   OH223391   1.731   3.935  16.924 -0.1959  0.2093 -0.3987
  659TIP3    H123392   1.683   3.867  16.877  0.0625  0.4695 -1.0456
  659TIP3    H223393   1.822   3.924  16.896 -0.2877  1.4098 -1.2505
  660TIP3   OH223394   3.644   4.211   5.489  0.3152  0.2004 -0.0028
  660TIP3    H123395   3.560   4.164   5.489 -0.4448  1.5083  0.4756
  660TIP3    H223396   3.708   4.145   5.465 -0.5610 -1.3446  1.6886
  661TIP3   OH223397   1.847   1.502   3.035 -0.0243  0.1324 -0.4443
  661TIP3    H123398   1.930   1.542   3.060 -0.2537  0.9693 -0.9794
  661TIP3    H223399   1.787   1.525   3.107  0.5400 -1.7386  0.7005
  662TIP3   OH223400   3.183   0.498  16.712 -0.5678  0.3255 -0.2334
  662TIP3    H123401   3.108   0.505  16.653 -0.6845  0.4622 -0.0700
  662TIP3    H223402   3.247   0.561  16.678 -0.9878  1.0543  0.3061
  663TIP3   OH223403   3.468   2.076   2.619 -0.7136  0.2430  0.1732
  663TIP3    H123404   3.499   2.165   2.638  1.3270 -0.3290 -0.1711
  663TIP3    H223405   3.445   2.041   2.705  2.2939 -0.1607  0.9384
  664TIP3   OH223406   4.655   6.568   6.038  0.0580 -0.1681  0.3940
  664TIP3    H123407   4.641   6.554   6.131 -0.8213  0.3926  0.3624
  664TIP3    H223408   4.682   6.483   6.004 -1.2902 -0.8113  0.8634
  665TIP3   OH223409   1.310   5.282   0.726 -0.0946  0.2555 -0.4048
  665TIP3    H123410   1.219   5.267   0.700 -0.0322  0.4363 -0.7471
  665TIP3    H223411   1.334   5.205   0.777 -0.9841  0.9940  1.1889
  666TIP3   OH223412   5.691   1.273   2.182  0.5796 -0.2258 -0.0454
  666TIP3    H123413   5.732   1.260   2.096  1.4676 -1.5725  0.5723
  666TIP3    H223414   5.623   1.339   2.165  1.2722  0.1348 -1.6124
  667TIP3   OH223415   0.933   1.092   4.538 -0.0820  0.0112  0.0965
  667TIP3    H123416   0.939   1.084   4.443 -0.3873 -0.7649  0.1379
  667TIP3    H223417   0.841   1.076   4.558  0.3139 -1.7447  0.6878
  668TIP3   OH223418   1.793   1.653  12.111  0.0838 -0.0635 -0.1122
  668TIP3    H123419   1.860   1.694  12.054  0.1074  0.0645  0.0075
  668TIP3    H223420   1.828   1.664  12.199 -0.2773  0.3471 -0.0172
  669TIP3   OH223421   5.140   6.324   2.731 -0.0093 -0.0150  0.0781
  669TIP3    H123422   5.157   6.236   2.699 -0.3970 -0.2260  0.4467
  669TIP3    H223423   5.226   6.365   2.735  0.1021 -0.1685 -0.6927
  670TIP3   OH223424   3.936   5.904  11.416 -0.2104 -0.6682 -0.0885
  670TIP3    H123425   3.939   5.843  11.490 -0.5826  0.2816  0.7467
  670TIP3    H223426   3.884   5.858  11.349 -0.0883 -1.4431  0.3352
  671TIP3   OH223427   4.074   6.520  12.980 -0.5141  0.3638 -0.0934
  671TIP3    H123428   4.117   6.458  12.920  0.5695 -0.2752  1.2556
  671TIP3    H223429   3.991   6.540  12.939  0.8614  1.2898 -2.6352
  672TIP3   OH223430   6.656   2.573  13.877  0.3769 -0.3072  0.4236
  672TIP3    H123431   6.622   2.651  13.833  0.3578  0.6994  2.1533
  672TIP3    H223432   6.586   2.545  13.935  1.1776 -0.3201  1.4099
  673TIP3   OH223433   6.033   4.987  16.223  0.3298  0.0612 -0.0438
  673TIP3    H123434   6.087   5.019  16.295  1.6786  0.1919 -1.0603
  673TIP3    H223435   6.062   4.897  16.210  0.5749  0.2419 -0.8216
  674TIP3   OH223436   3.654   1.074   5.464 -0.3094  0.0121  0.5773
  674TIP3    H123437   3.587   1.031   5.412  0.7911 -1.5639  0.3746
  674TIP3    H223438   3.727   1.012   5.466  1.0990  1.5773  0.9087
  675TIP3   OH223439   0.604   2.399   4.988 -0.2192  0.4326 -0.1117
  675TIP3    H123440   0.614   2.433   4.899  3.0238 -0.0721 -0.0736
  675TIP3    H223441   0.529   2.340   4.983  0.3228 -0.1682 -2.7162
  676TIP3   OH223442   1.574   2.240   2.551 -0.6598  0.2284  0.9370
  676TIP3    H123443   1.541   2.260   2.463 -1.4631  0.2415  1.2347
  676TIP3    H223444   1.583   2.145   2.553  2.8751  0.3533 -0.3771
  677TIP3   OH223445   2.873   1.995  13.056 -0.0736 -0.0162  0.1857
  677TIP3    H123446   2.941   1.941  13.096  1.3970 -0.0521 -2.1717
  677TIP3    H223447   2.919   2.044  12.987 -2.0822  1.4181 -0.2037
  678TIP3   OH223448   5.452   2.099  10.648 -0.5669 -0.8140  0.2367
  678TIP3    H123449   5.473   2.094  10.741 -3.0206  0.7991  0.9597
  678TIP3    H223450   5.376   2.042  10.637 -0.8193 -0.3333 -0.5920
  679TIP3   OH223451   4.803   2.583  12.414 -0.7534 -0.1335 -0.4052
  679TIP3    H123452   4.787   2.617  12.326 -1.2380  0.9200  0.0716
  679TIP3    H223453   4.719   2.546  12.442 -0.9941  0.7701  0.1222
  680TIP3   OH223454   0.383   3.614   5.569  0.0623  0.2530 -0.2583
  680TIP3    H123455   0.326   3.593   5.643  2.2924  0.9712  1.7945
  680TIP3    H223456   0.341   3.571   5.494 -1.0432 -2.6625  1.8188
  681TIP3   OH223457   2.576   5.871  14.260  0.8759  0.6352  0.5787
  681TIP3    H123458   2.492   5.870  14.213  0.3989  0.0075  1.4110
  681TIP3    H223459   2.630   5.933  14.211 -0.5017  2.0411  0.7399
  682TIP3   OH223460   4.050   2.079  10.909  0.4115  0.0683  0.2551
  682TIP3    H123461   4.098   2.135  10.848  0.5716 -0.3717 -0.0211
  682TIP3    H223462   3.958   2.098  10.891  0.4606  0.0743  0.0024
  683TIP3   OH223463   6.721   6.169  10.687 -0.8851  0.2041  0.1122
  683TIP3    H123464   6.732   6.086  10.733 -0.4914  0.7220  0.9672
  683TIP3    H223465   6.795   6.172  10.626 -1.2580 -0.3552 -0.3889
  684TIP3   OH223466   1.166   3.192   0.552  0.5733 -0.4772 -0.5162
  684TIP3    H123467   1.078   3.219   0.525 -0.1973 -0.2277  1.9422
  684TIP3    H223468   1.213   3.274   0.565  0.3649 -0.5072  0.5101
  685TIP3   OH223469   3.048   4.322  11.720 -0.1425  0.3459 -0.3193
  685TIP3    H123470   3.082   4.336  11.808 -1.2684  2.6479 -0.1907
  685TIP3    H223471   2.955   4.303  11.733 -0.1692 -0.0387 -0.9951
  686TIP3   OH223472   4.588   4.317  15.123 -0.2725 -0.2443  0.0123
  686TIP3    H123473   4.675   4.302  15.161  0.6430 -1.4852 -2.3586
  686TIP3    H223474   4.538   4.240  15.149  0.2081 -0.8631 -0.8368
  687TIP3   OH223475   4.302   1.942   6.527 -0.3772  0.0099  0.3024
  687TIP3    H123476   4.335   2.007   6.589  1.3001  0.2000 -0.7280
  687TIP3    H223477   4.362   1.868   6.536 -0.7180 -0.3595 -0.3835
  688TIP3   OH223478   0.229   2.321  11.513 -0.6504  0.3647 -0.7746
  688TIP3    H123479   0.175   2.400  11.499  0.1174  0.8190 -1.2197
  688TIP3    H223480   0.300   2.329  11.450  0.6849  0.4356  0.6891
  689TIP3   OH223481   5.949   3.522   1.516  0.3543  0.8118  0.0243
  689TIP3    H123482   5.878   3.586   1.508 -0.6400 -0.2742 -0.0633
  689TIP3    H223483   5.927   3.471   1.594  1.0717  0.4913  0.0319
  690TIP3   OH223484   5.086   2.019   4.328  0.5452  0.1034  0.3711
  690TIP3    H123485   5.137   1.940   4.314  0.5090  0.0689  0.4363
  690TIP3    H223486   5.072   2.023   4.423  1.6037  0.8389  0.5214
  691TIP3   OH223487   4.332   4.910   2.745  0.2208  0.3493 -0.2143
  691TIP3    H123488   4.292   4.942   2.826 -0.1622 -0.7743  0.0630
  691TIP3    H223489   4.335   4.815   2.755 -0.4349  0.1265 -1.7965
  692TIP3   OH223490   6.228   3.443   1.020 -0.4055  0.6024 -0.4558
  692TIP3    H123491   6.306   3.490   1.050 -1.9264  1.7974  1.8914
  692TIP3    H223492   6.237   3.355   1.056  0.2155  0.4801 -0.8925
  693TIP3   OH223493   1.440   3.681   4.254  0.3409 -0.1108  0.2357
  693TIP3    H123494   1.348   3.659   4.270  0.7181 -1.1397  1.1176
  693TIP3    H223495   1.478   3.691   4.341  1.1958 -0.2887 -0.1079
  694TIP3   OH223496   2.939   6.740   2.983  0.2680  0.1974  0.3747
  694TIP3    H123497   2.963   6.728   3.075 -0.5105  1.5768  0.7955
  694TIP3    H223498   2.844   6.728   2.981  0.4179 -1.0351 -0.4928
  695TIP3   OH223499   1.106   1.537  11.165  0.3310 -0.1372 -0.2015
  695TIP3    H123500   1.201   1.551  11.163  0.9045 -1.8993  3.9580
  695TIP3    H223501   1.095   1.448  11.133  0.0368  0.1374 -0.8731
  696TIP3   OH223502   3.942   3.104  14.215 -0.4295 -0.4026 -0.2422
  696TIP3    H123503   3.975   3.191  14.234  1.5160 -1.1100 -0.0874
  696TIP3    H223504   3.987   3.047  14.278 -1.3425 -1.5594 -0.6011
  697TIP3   OH223505   0.824   3.906  15.219  0.3870  0.2816 -0.1238
  697TIP3    H123506   0.880   3.829  15.237 -1.5378 -2.0098 -3.0624
  697TIP3    H223507   0.864   3.947  15.142  0.4171  1.2752  0.4037
  698TIP3   OH223508   0.975   1.351  15.999  1.1255 -0.0503  0.5735
  698TIP3    H123509   1.000   1.431  16.046  1.9285  0.1587 -0.1761
  698TIP3    H223510   0.959   1.286  16.068  0.9225  0.6254  1.1755
  699TIP3   OH223511   2.162   1.259   3.206 -0.3928  0.2544 -0.4452
  699TIP3    H123512   2.139   1.171   3.174  0.3868 -0.1449  0.0789
  699TIP3    H223513   2.197   1.244   3.293  0.2258  1.0409 -0.5558
  700TIP3   OH223514   6.407   4.199   4.493 -0.5044  0.3756 -0.4592
  700TIP3    H123515   6.479   4.137   4.480 -0.8936 -0.0404 -0.6843
  700TIP3    H223516   6.414   4.260   4.419 -0.2587  0.4627 -0.3652
  701TIP3   OH223517   6.413   2.585   2.664  0.4782  0.3229 -0.4001
  701TIP3    H123518   6.480   2.525   2.633  0.0741 -0.2131 -0.2382
  701TIP3    H223519   6.416   2.658   2.602  1.1083  0.2368 -0.4774
  702TIP3   OH223520   1.859   4.329  12.173  0.7994 -0.0074  0.0220
  702TIP3    H123521   1.837   4.251  12.122  0.1851  0.7702 -0.9100
  702TIP3    H223522   1.776   4.359  12.208  1.0323  0.2597  0.3499
  703TIP3   OH223523   4.809   0.093  13.079 -0.0807 -0.0474  0.1760
  703TIP3    H123524   4.868   0.085  13.155 -1.2495  1.4825  1.3261
  703TIP3    H223525   4.736   0.036  13.100 -0.5161  0.5586  0.3354
  704TIP3   OH223526   4.536   0.023  14.125  0.1240  0.0236 -0.6870
  704TIP3    H123527   4.604  -0.003  14.187 -0.8652 -0.0908  0.3805
  704TIP3    H223528   4.499   0.103  14.162 -1.2175 -0.6446 -0.5305
  705TIP3   OH223529   6.725   1.175  12.353  0.2659 -0.1052 -0.0618
  705TIP3    H123530   6.663   1.235  12.312  1.3581 -0.1744 -1.8890
  705TIP3    H223531   6.672   1.099  12.379 -0.5232  0.1233 -0.9773
  706TIP3   OH223532   3.605   3.103   4.647 -0.5459  0.1722  0.6016
  706TIP3    H123533   3.634   3.141   4.565 -0.8418 -0.1377  0.3494
  706TIP3    H223534   3.684   3.098   4.701 -0.6227  1.8374  0.9321
  707TIP3   OH223535   2.886   4.143  12.546 -0.2725  0.1467  0.3716
  707TIP3    H123536   2.856   4.233  12.535  1.1007  0.5776 -0.0435
  707TIP3    H223537   2.832   4.092  12.486 -2.1619  0.4212  1.7641
  708TIP3   OH223538   1.692   6.070  15.932  0.6359 -0.0542  0.5555
  708TIP3    H123539   1.662   6.021  15.855 -0.1730  1.0087  0.1778
  708TIP3    H223540   1.753   6.135  15.896 -2.0684  2.5331  0.2992
  709TIP3   OH223541   2.841   1.710  13.738 -0.4063  0.6039  0.5007
  709TIP3    H123542   2.756   1.709  13.694 -0.0438 -0.1257 -0.2041
  709TIP3    H223543   2.832   1.778  13.805 -1.8547 -0.0837  1.0726
  710TIP3   OH223544   6.777   5.407  15.200 -0.1454 -0.0187  0.2885
  710TIP3    H123545   6.689   5.378  15.174 -0.0069 -0.8773  0.7303
  710TIP3    H223546   6.823   5.420  15.117 -0.6773  0.4070  0.0542
  711TIP3   OH223547   0.080   3.225  13.930 -0.2543 -0.2107  0.1674
  711TIP3    H123548   0.166   3.264  13.916 -0.5600  0.1353 -0.8461
  711TIP3    H223549   0.019   3.299  13.930 -0.4517 -0.3200  2.0836
  712TIP3   OH223550   4.257   1.386  15.792 -0.0119  0.1305  0.4511
  712TIP3    H123551   4.164   1.369  15.779 -0.1321  1.2311 -0.2375
  712TIP3    H223552   4.260   1.458  15.855  0.3881 -0.2372  0.8585
  713TIP3   OH223553   2.296   3.897  16.644  0.1287  0.6522 -0.2573
  713TIP3    H123554   2.378   3.934  16.676 -0.5908  0.6336  1.7607
  713TIP3    H223555   2.296   3.807  16.676 -0.5275  0.5493 -0.5272
  714TIP3   OH223556   0.618   6.137  16.498 -0.4808  0.2241 -0.0444
  714TIP3    H123557   0.588   6.208  16.554  1.1879  1.2595 -0.3659
  714TIP3    H223558   0.569   6.060  16.527 -0.7285  1.0320  1.8367
  715TIP3   OH223559   3.788   5.177   2.503  0.1220 -0.1339  0.3317
  715TIP3    H123560   3.716   5.126   2.540 -1.0097  1.4958  0.4910
  715TIP3    H223561   3.864   5.119   2.510 -1.3895 -2.5042 -1.2107
  716TIP3   OH223562   5.957   5.011   3.077 -0.3940 -0.1493  0.0755
  716TIP3    H123563   5.927   5.007   2.986 -0.4457  0.3015  0.0727
  716TIP3    H223564   5.882   4.980   3.128  0.1853 -2.0450 -0.1327
  717TIP3   OH223565   3.339   5.095  16.485  0.4254 -0.0292 -0.4327
  717TIP3    H123566   3.279   5.106  16.558 -0.2729  2.5859 -1.2817
  717TIP3    H223567   3.302   5.024  16.433 -1.4567  0.8904 -0.4297
  718TIP3   OH223568   1.721   1.855   1.636  0.1877 -0.3395 -0.7274
  718TIP3    H123569   1.668   1.776   1.650  0.3417 -0.6310 -1.7450
  718TIP3    H223570   1.805   1.834   1.677  0.2217 -0.6983 -0.9747
  719TIP3   OH223571   4.414   1.506   4.955 -0.0300 -0.0022 -0.5053
  719TIP3    H123572   4.443   1.426   4.999  0.3594  0.0177 -0.7277
  719TIP3    H223573   4.463   1.508   4.873  0.4733  0.8256 -0.1936
  720TIP3   OH223574   2.169   4.005  13.193  0.2981  0.3422  0.1206
  720TIP3    H123575   2.256   4.013  13.154 -0.3248 -0.9499 -1.6338
  720TIP3    H223576   2.129   4.092  13.180  0.5760  0.3203 -1.0066
  721TIP3   OH223577   4.261   6.369  14.822 -0.1490 -0.3906 -0.1263
  721TIP3    H123578   4.341   6.379  14.874  0.3565  1.2518 -1.1404
  721TIP3    H223579   4.190   6.375  14.886  0.5034  0.0946  0.5667
  722TIP3   OH223580   3.842   0.861  14.203  0.5602 -0.8828  0.4552
  722TIP3    H123581   3.851   0.916  14.280  2.2389 -0.6241  0.0994
  722TIP3    H223582   3.909   0.793  14.213  0.1139 -1.4619 -0.2821
  723TIP3   OH223583   1.571   0.074   3.001  0.3237 -0.1599 -0.5745
  723TIP3    H123584   1.494   0.126   2.981 -0.9316 -1.2693  1.0899
  723TIP3    H223585   1.575   0.072   3.096  0.3861 -2.9106 -0.5459
  724TIP3   OH223586   5.536   0.699  13.665 -0.0836 -0.2672 -0.3024
  724TIP3    H123587   5.606   0.686  13.729  2.4111 -1.3988 -2.9732
  724TIP3    H223588   5.526   0.794  13.659 -0.2616 -0.1435  1.5750
  725TIP3   OH223589   4.439   6.325  14.583 -0.4446 -0.1036 -0.2169
  725TIP3    H123590   4.398   6.255  14.532 -0.4745 -1.2292  1.3053
  725TIP3    H223591   4.383   6.335  14.660  0.2499  0.7389  0.1912
  726TIP3   OH223592   3.611   4.382   5.860  0.0523 -0.3101 -0.2488
  726TIP3    H123593   3.570   4.403   5.776 -1.7858 -0.6765  0.5143
  726TIP3    H223594   3.699   4.419   5.853 -0.2604  0.1929 -2.0992
  727TIP3   OH223595   2.154   3.537  13.576  0.3225  0.2410 -0.0778
  727TIP3    H123596   2.064   3.540  13.543  0.2794 -4.0937 -1.0310
  727TIP3    H223597   2.145   3.509  13.667  0.5553 -2.5011 -0.7914
  728TIP3   OH223598   1.613   2.632  11.105  0.0311 -0.0961  0.6066
  728TIP3    H123599   1.646   2.633  11.015 -0.7754  1.3029  0.2984
  728TIP3    H223600   1.691   2.643  11.159  0.2534  1.8375 -0.0464
  729TIP3   OH223601   5.331   0.029   1.366  1.3002 -1.0002 -0.2722
  729TIP3    H123602   5.319   0.123   1.382  0.2464 -0.7348 -2.3292
  729TIP3    H223603   5.374  -0.003   1.446 -0.4717  0.7713  1.5190
  730TIP3   OH223604   6.688   5.860  12.795 -0.0596  0.1172 -0.4606
  730TIP3    H123605   6.613   5.801  12.782 -0.5905  0.6356  0.1718
  730TIP3    H223606   6.751   5.833  12.729  0.3462 -2.1925  0.7597
  731TIP3   OH223607   4.928   3.468   4.563  0.5332 -0.0454  0.1334
  731TIP3    H123608   4.918   3.429   4.476  2.4536 -1.1711  0.3797
  731TIP3    H223609   4.841   3.502   4.583  0.1224  0.6212 -2.3849
  732TIP3   OH223610   3.438   0.622  16.766  0.6199 -0.3450 -0.0428
  732TIP3    H123611   3.428   0.547  16.825 -1.5973 -1.1699 -1.3320
  732TIP3    H223612   3.499   0.591  16.698  0.6351 -0.5619  0.0713
  733TIP3   OH223613   1.313   4.921  13.612  0.2516 -0.1823  0.2125
  733TIP3    H123614   1.329   4.992  13.550 -0.8943 -0.1747 -0.1103
  733TIP3    H223615   1.355   4.949  13.693  0.3843  0.5539 -0.1015
  734TIP3   OH223616   6.585   5.910  14.304 -0.5118 -0.0142  0.1776
  734TIP3    H123617   6.513   5.910  14.242 -0.5331 -0.0192  0.2023
  734TIP3    H223618   6.657   5.953  14.258  0.5550 -2.9179 -1.0756
  735TIP3   OH223619   0.736   1.898   0.854  0.3707 -0.3912 -0.1703
  735TIP3    H123620   0.687   1.976   0.881 -0.7902 -0.7182 -1.2610
  735TIP3    H223621   0.763   1.857   0.936  0.5053  0.8361  0.4257
  736TIP3   OH223622   5.368   0.103   1.082  0.4522  0.3968 -0.0273
  736TIP3    H123623   5.280   0.140   1.085  0.1848 -0.2829  0.9906
  736TIP3    H223624   5.374   0.050   1.161  0.9952 -1.3398 -1.1850
  737TIP3   OH223625   3.682   2.789   0.472  0.2437  0.0226 -0.1635
  737TIP3    H123626   3.607   2.737   0.501  0.2279  1.3071  2.3811
  737TIP3    H223627   3.758   2.737   0.495  0.1855  0.1061  0.2199
  738TIP3   OH223628   4.636   0.683  16.968  0.6376 -0.3215 -0.2364
  738TIP3    H123629   4.551   0.713  17.000  0.2288  0.6758 -2.1003
  738TIP3    H223630   4.696   0.755  16.988  0.6375 -0.2163 -0.6105
  739TIP3   OH223631   3.054   1.999   1.857 -0.0221  0.2044 -0.3663
  739TIP3    H123632   3.011   2.048   1.927  0.4679  0.8356 -0.5031
  739TIP3    H223633   3.146   2.024   1.862  0.2938 -0.8980 -0.2751
  740TIP3   OH223634   6.541   0.409   1.245 -0.5073 -0.1921  0.0581
  740TIP3    H123635   6.543   0.496   1.284 -0.5764 -0.5239  0.8285
  740TIP3    H223636   6.579   0.421   1.158  0.3539  0.4426  0.4978
  741TIP3   OH223637   1.682   4.304   1.582 -0.2094 -0.2045  0.0040
  741TIP3    H123638   1.713   4.262   1.502  2.4914  0.0237  0.8403
  741TIP3    H223639   1.630   4.379   1.551  0.9175 -0.0173 -1.5385
  742TIP3   OH223640   5.386   1.082  16.851 -0.4351  0.8208  0.4414
  742TIP3    H123641   5.395   1.169  16.890  0.1297  0.6066  0.7967
  742TIP3    H223642   5.451   1.028  16.896 -1.3767 -0.0081  0.8403
  743TIP3   OH223643   6.061   4.525  11.602  0.3020  0.4552  0.2301
  743TIP3    H123644   6.125   4.574  11.655  0.1809  0.2441  0.5718
  743TIP3    H223645   5.989   4.586  11.588 -0.4287 -0.0219  1.7344
  744TIP3   OH223646   4.115   3.403   1.270  0.0099 -0.3972  0.3569
  744TIP3    H123647   4.182   3.420   1.204 -0.2896  1.3557  0.4480
  744TIP3    H223648   4.142   3.322   1.312  2.0463  0.2218  0.3437
  745TIP3   OH223649   1.915   4.139  14.887 -0.0356 -0.3354  0.0478
  745TIP3    H123650   1.992   4.086  14.871  0.2512 -0.1490  0.7732
  745TIP3    H223651   1.887   4.168  14.800 -0.6567 -2.2721 -0.4589
  746TIP3   OH223652   2.437   5.218  15.913  0.3239 -0.0434 -0.2055
  746TIP3    H123653   2.484   5.272  15.850  0.3803  0.1596  0.0089
  746TIP3    H223654   2.451   5.129  15.883  0.1512  0.0656 -0.6182
  747TIP3   OH223655   2.938   2.072  15.347  0.2732  0.0187  0.0012
  747TIP3    H123656   3.034   2.075  15.347  0.4590 -2.9140  0.3026
  747TIP3    H223657   2.914   2.063  15.439 -0.2959  0.7172 -0.0757
  748TIP3   OH223658   6.512   0.331  11.317  0.4169 -0.5181 -0.3059
  748TIP3    H123659   6.485   0.396  11.252 -1.7367  0.4418  1.4106
  748TIP3    H223660   6.607   0.342  11.326  0.3278  1.2377 -1.2653
  749TIP3   OH223661   5.558   5.281   1.440  0.0453 -0.6205  0.3193
  749TIP3    H123662   5.644   5.246   1.419 -0.0926 -0.4532 -0.5691
  749TIP3    H223663   5.524   5.222   1.507  1.3713  0.0852  1.6735
  750TIP3   OH223664   5.752   2.737  12.998 -0.2493 -0.0638  0.3919
  750TIP3    H123665   5.666   2.751  13.038 -0.5927 -0.4980 -0.1794
  750TIP3    H223666   5.766   2.643  13.004 -0.8681 -0.3453 -1.5699
  751TIP3   OH223667   0.264   0.568   6.077 -0.1291  0.1202  0.4901
  751TIP3    H123668   0.294   0.639   6.134 -0.7088  1.8066 -1.2024
  751TIP3    H223669   0.333   0.561   6.011  0.4534 -1.7010  1.2170
  752TIP3   OH223670   3.115   1.607  14.987  0.2625  0.0923  0.4902
  752TIP3    H123671   3.105   1.622  14.893 -1.6448 -0.3953  0.5584
  752TIP3    H223672   3.026   1.617  15.022  0.5174 -2.0238  1.8951
  753TIP3   OH223673   0.423   0.831   6.176  0.2836  0.6450 -0.1814
  753TIP3    H123674   0.352   0.866   6.230  0.1838  0.1965 -0.0138
  753TIP3    H223675   0.414   0.877   6.092  1.0627  2.0648  0.5019
  754TIP3   OH223676   1.719   5.995  16.998 -0.0392  0.2058 -0.5492
  754TIP3    H123677   1.649   5.957  17.052  0.1438 -1.4250 -1.4004
  754TIP3    H223678   1.763   5.920  16.959  0.4555  1.2862 -2.2058
  755TIP3   OH223679   5.710   3.566   1.740 -0.1681 -0.4380  0.1681
  755TIP3    H123680   5.759   3.643   1.771 -2.2799  0.6023  1.1401
  755TIP3    H223681   5.765   3.492   1.765 -0.0955  0.5461  3.4290
  756TIP3   OH223682   0.532   6.037  11.798  0.2493 -0.1872  0.3735
  756TIP3    H123683   0.595   6.096  11.838  1.3258 -0.9377 -0.1917
  756TIP3    H223684   0.552   5.952  11.836  0.7210 -0.7510 -1.0929
  757TIP3   OH223685   5.101   5.183  12.619 -0.3481 -0.1039  0.2138
  757TIP3    H123686   5.106   5.268  12.574 -1.5928 -0.3548 -0.4463
  757TIP3    H223687   5.172   5.131  12.581 -0.1602  0.3319 -0.0370
  758TIP3   OH223688   6.674   0.345   2.716 -0.2764 -0.1777  0.4233
  758TIP3    H123689   6.649   0.296   2.638  0.4129  1.0661 -0.6324
  758TIP3    H223690   6.769   0.354   2.708 -0.3802  1.2965  0.5723
  759TIP3   OH223691   1.324   2.813   1.152 -0.4188  0.2427 -0.3502
  759TIP3    H123692   1.240   2.845   1.119 -1.0833 -0.0241  0.9708
  759TIP3    H223693   1.334   2.856   1.237  0.4701 -0.2229 -0.2084
  760TIP3   OH223694   2.153   5.265  16.451 -0.0847 -0.3133 -0.0555
  760TIP3    H123695   2.207   5.342  16.468 -1.1672  0.5812 -0.5827
  760TIP3    H223696   2.098   5.257  16.529 -0.5859 -0.0079 -0.3683
  761TIP3   OH223697   2.184   5.483   0.855 -0.0978 -0.5941  0.2621
  761TIP3    H123698   2.137   5.560   0.824 -0.1648 -0.0685  1.5999
  761TIP3    H223699   2.277   5.508   0.848 -0.1466  0.0602  1.7666
  762TIP3   OH223700   6.344   2.277   2.178 -0.1478  0.1877  0.2820
  762TIP3    H123701   6.301   2.214   2.236  1.3484 -0.6292  0.5594
  762TIP3    H223702   6.396   2.332   2.237 -1.4521  1.7476  0.0454
  763TIP3   OH223703   2.156   4.899   3.054 -0.2723 -0.2213 -0.1588
  763TIP3    H123704   2.181   4.984   3.091  1.0570 -0.0948 -1.2469
  763TIP3    H223705   2.094   4.863   3.117  0.8947  0.5392  1.5162
  764TIP3   OH223706   3.642   2.122  13.865  0.3913  0.6873 -0.8194
  764TIP3    H123707   3.567   2.164  13.906  1.0168  0.3280  0.7605
  764TIP3    H223708   3.704   2.193  13.849  0.9141  0.5957  0.6489
  765TIP3   OH223709   0.587   4.718   4.708 -0.1186  0.1206 -0.2774
  765TIP3    H123710   0.601   4.794   4.652 -1.6711 -0.2746 -1.2854
  765TIP3    H223711   0.539   4.656   4.652  1.4208 -1.7652  0.3978
  766TIP3   OH223712   5.399   1.621  17.220  0.3787  0.3820 -0.3883
  766TIP3    H123713   5.340   1.618  17.145 -2.0403 -0.6085  1.4452
  766TIP3    H223714   5.365   1.555  17.280  0.6373  2.8618  2.7118
  767TIP3   OH223715   5.566   4.309  10.802  0.3968 -0.0256  0.0494
  767TIP3    H123716   5.556   4.315  10.707 -1.4210 -1.1847  0.1091
  767TIP3    H223717   5.601   4.221  10.817  1.4445  0.4416  0.4314
  768TIP3   OH223718   3.712   1.786  14.874  0.3965 -0.2298  0.3447
  768TIP3    H123719   3.719   1.692  14.887 -0.6634 -0.8838 -3.0528
  768TIP3    H223720   3.774   1.806  14.804  0.0634  1.5011  0.4885
  769TIP3   OH223721   4.726   1.917   4.683  0.5982 -0.1647  0.2602
  769TIP3    H123722   4.778   1.855   4.734  0.7490 -0.4337 -0.2114
  769TIP3    H223723   4.672   1.862   4.626  1.0379  0.1337 -0.4606
  770TIP3   OH223724   2.114   1.444  14.654 -0.2848  0.0365  0.2472
  770TIP3    H123725   2.198   1.461  14.697 -0.9316 -0.0033  1.5822
  770TIP3    H223726   2.122   1.488  14.569  0.3875  1.6884  1.1096
  771TIP3   OH223727   3.382   1.352  12.667 -0.1682 -0.0316  0.9251
  771TIP3    H123728   3.362   1.350  12.574 -1.1898  0.0831  1.1294
  771TIP3    H223729   3.351   1.267  12.700  0.1575 -0.0586  1.1676
  772TIP3   OH223730   4.251   0.436  13.091  0.6866  0.0777 -0.6947
  772TIP3    H123731   4.207   0.462  13.172  0.2076  0.7723 -1.1616
  772TIP3    H223732   4.184   0.390  13.041  0.4131  1.2776 -1.4748
  773TIP3   OH223733   5.416   6.181  11.906 -0.3729  0.2921  0.2996
  773TIP3    H123734   5.469   6.102  11.904  0.3570  0.7679  0.5407
  773TIP3    H223735   5.438   6.223  11.990 -1.4776  0.2578  0.6229
  774TIP3   OH223736   2.957   6.261  16.769 -0.7795 -0.0593 -0.1248
  774TIP3    H123737   2.921   6.233  16.685 -2.0863  2.9473 -0.6963
  774TIP3    H223738   2.883   6.299  16.817  0.4741  0.9447  1.1486
  775TIP3   OH223739   1.371   5.773  13.734 -0.1678 -0.0533 -0.1773
  775TIP3    H123740   1.330   5.858  13.751 -1.2793 -0.3635 -1.2105
  775TIP3    H223741   1.383   5.735  13.821  2.3492  2.0002  0.5144
  776TIP3   OH223742   4.774   2.888   5.607  0.4692  0.6153 -0.4063
  776TIP3    H123743   4.708   2.901   5.675 -0.4456  0.5658 -1.2758
  776TIP3    H223744   4.787   2.975   5.569 -0.3044  0.3400 -1.3293
  777TIP3   OH223745   0.942   3.101   2.712  0.3418  0.1560  0.0513
  777TIP3    H123746   0.887   3.111   2.634 -0.2041 -0.7065  0.3092
  777TIP3    H223747   0.956   3.190   2.743 -1.1507  0.3845  0.1328
  778TIP3   OH223748   2.372   6.115   4.658  0.3805 -0.5785  0.6351
  778TIP3    H123749   2.312   6.173   4.612  1.0095  0.8407  1.5440
  778TIP3    H223750   2.430   6.174   4.706  0.7927 -1.9757  1.9157
  779TIP3   OH223751   3.505   6.172  10.868 -0.3801 -0.0436 -0.2254
  779TIP3    H123752   3.464   6.223  10.938 -1.9836 -0.5660 -0.7303
  779TIP3    H223753   3.514   6.084  10.904  2.8427  0.5948  0.8230
  780TIP3   OH223754   3.564   5.326   3.514  0.5805  0.0399 -0.1778
  780TIP3    H123755   3.600   5.360   3.432  0.1306 -0.7098 -0.6928
  780TIP3    H223756   3.474   5.358   3.516  0.7689  0.5493  0.3166
  781TIP3   OH223757   0.862   3.100  16.850  0.4603  0.2826 -0.4376
  781TIP3    H123758   0.812   3.061  16.921  2.0878  0.7259  0.9967
  781TIP3    H223759   0.828   3.190  16.843 -0.0206  0.0979 -0.5767
  782TIP3   OH223760   5.803   3.494   4.013  0.1142 -0.2836 -0.1877
  782TIP3    H123761   5.762   3.421   3.965 -0.7391 -0.5743  0.9444
  782TIP3    H223762   5.853   3.541   3.946 -0.8033 -0.8432 -1.3117
  783TIP3   OH223763   0.418   1.597  15.001 -0.5588 -0.2068  0.4522
  783TIP3    H123764   0.453   1.636  15.081  1.5712 -0.4571 -0.2956
  783TIP3    H223765   0.361   1.665  14.965 -0.6819  0.3337  1.6086
  784TIP3   OH223766   3.270   0.774  13.726  0.1885 -0.5473  0.2718
  784TIP3    H123767   3.274   0.684  13.696  2.2507 -0.6748  0.7965
  784TIP3    H223768   3.236   0.769  13.815  4.0209 -1.3441  1.8812
  785TIP3   OH223769   5.053   3.485   6.053  0.4131 -0.0828  0.4002
  785TIP3    H123770   5.028   3.460   6.142 -0.7947 -2.6484 -0.5339
  785TIP3    H223771   4.971   3.479   6.003  0.4141  4.1960 -0.4534
  786TIP3   OH223772   5.709   3.099  16.961 -0.0499 -0.0586  0.6264
  786TIP3    H123773   5.723   3.192  16.943  1.2604 -0.2047  0.7510
  786TIP3    H223774   5.730   3.089  17.053 -1.6974 -0.2276  1.0138
  787TIP3   OH223775   1.383   6.217  15.305 -0.9673 -0.1105 -0.0884
  787TIP3    H123776   1.333   6.156  15.360  0.0252  0.2773  1.2959
  787TIP3    H223777   1.467   6.225  15.349 -0.8818  1.8506 -0.5419
  788TIP3   OH223778   0.264   5.598  11.000  0.4333  0.2004  0.3214
  788TIP3    H123779   0.271   5.660  10.928 -0.2365 -0.2231 -0.1200
  788TIP3    H223780   0.353   5.564  11.012  0.2862 -0.8538 -1.3329
  789TIP3   OH223781   4.258   5.495   3.031 -0.1910 -0.4345  0.3230
  789TIP3    H123782   4.196   5.562   3.060  0.2491  0.3294 -0.5044
  789TIP3    H223783   4.260   5.432   3.104 -0.2220  0.6966  1.3236
  790TIP3   OH223784   6.310   1.069  14.603 -0.7114 -0.2012 -0.0321
  790TIP3    H123785   6.399   1.034  14.612 -1.2106 -1.3689  0.6592
  790TIP3    H223786   6.268   1.048  14.687 -2.0778 -1.0097 -0.8703
  791TIP3   OH223787   0.986   0.289  17.217 -0.2670 -0.1390 -0.5258
  791TIP3    H123788   1.027   0.360  17.168 -0.2907  0.2091 -0.0471
  791TIP3    H223789   0.984   0.215  17.156  0.3133  0.0885 -0.8195
  792TIP3   OH223790   6.244   6.725   2.290  0.6298  0.3118  0.3288
  792TIP3    H123791   6.324   6.677   2.268 -1.2978 -2.4637 -1.2396
  792TIP3    H223792   6.229   6.783   2.215 -0.2798 -1.3337 -0.8377
  793TIP3   OH223793   5.214   4.784   5.664  0.0033 -0.0371 -0.0994
  793TIP3    H123794   5.168   4.865   5.686 -2.0388 -1.4436  1.0161
  793TIP3    H223795   5.212   4.781   5.568  0.5460  1.4364 -0.1885
  794TIP3   OH223796   0.165   4.843   5.604 -0.4944 -0.0574  0.4429
  794TIP3    H123797   0.119   4.926   5.620  0.3111  0.2368  1.3867
  794TIP3    H223798   0.228   4.864   5.535 -0.3476  0.1000  0.6225
  795TIP3   OH223799   3.767   3.049   2.920 -0.1232  0.2359  0.3056
  795TIP3    H123800   3.838   3.002   2.963  0.9143  2.0971  0.7283
  795TIP3    H223801   3.695   3.048   2.983 -0.9183 -2.4882 -0.4935
  796TIP3   OH223802   4.265   3.219   0.489  0.3627  0.2166 -0.2520
  796TIP3    H123803   4.355   3.202   0.460  0.4970  0.9757 -0.2985
  796TIP3    H223804   4.263   3.190   0.580  1.6328  3.1988  0.8599
  797TIP3   OH223805   1.310   4.806  12.050  0.1389 -0.8900 -0.2449
  797TIP3    H123806   1.339   4.819  12.140 -1.9166 -1.1795  0.5070
  797TIP3    H223807   1.390   4.782  12.003  1.1535 -1.4513  1.6328
  798TIP3   OH223808   4.969   3.187   2.558  0.1074 -0.0327  0.0622
  798TIP3    H123809   4.912   3.123   2.600  0.2463 -0.8821 -0.9951
  798TIP3    H223810   4.919   3.268   2.558 -1.6773 -1.0288 -1.9535
  799TIP3   OH223811   0.695   3.084  13.224 -0.3162 -0.0937  0.2494
  799TIP3    H123812   0.784   3.077  13.258  0.8552  0.2833 -2.5093
  799TIP3    H223813   0.688   3.012  13.161 -1.9731 -0.0814  0.3742
  800TIP3   OH223814   0.685   3.196   2.791  0.7101  0.0497 -0.2395
  800TIP3    H123815   0.611   3.135   2.797  0.5413  0.2070 -0.6623
  800TIP3    H223816   0.746   3.166   2.858  0.5588 -0.4901 -0.3373
  801TIP3   OH223817   2.353   3.935  11.305  0.2305 -0.0025  0.1481
  801TIP3    H123818   2.370   3.874  11.233 -0.2016 -1.0930  0.9421
  801TIP3    H223819   2.408   4.011  11.285  1.2967 -0.9185 -0.5271
  802TIP3   OH223820   6.628   6.450  14.907 -0.1971 -0.1959 -0.4537
  802TIP3    H123821   6.539   6.465  14.938 -0.5213 -0.4692 -1.2362
  802TIP3    H223822   6.639   6.509  14.833  1.6205  2.7302  1.9049
  803TIP3   OH223823   6.032   2.304  12.784  0.8542  0.7466 -0.1886
  803TIP3    H123824   6.047   2.361  12.860  2.1412 -0.7358  0.7327
  803TIP3    H223825   6.094   2.233  12.795 -1.2523 -1.3091 -0.8243
  804TIP3   OH223826   0.418   0.462   4.624 -0.2717 -0.4917 -0.1334
  804TIP3    H123827   0.324   0.446   4.621 -0.3291 -0.0959 -0.6687
  804TIP3    H223828   0.430   0.519   4.700 -0.5178 -0.2497 -0.2713
  805TIP3   OH223829   0.179   5.428   5.348 -0.1566 -0.6108  0.4836
  805TIP3    H123830   0.127   5.356   5.384  1.5761 -0.3653  3.8556
  805TIP3    H223831   0.139   5.507   5.385 -0.3306 -0.0052 -0.9248
  806TIP3   OH223832   5.557   2.254  13.783 -0.3874  0.4041  0.2741
  806TIP3    H123833   5.553   2.210  13.868 -2.6867 -1.2136 -0.5736
  806TIP3    H223834   5.529   2.188  13.720 -2.5097  2.5860 -1.2761
  807TIP3   OH223835   0.454   1.310  12.769  0.7339  0.3662  0.7217
  807TIP3    H123836   0.496   1.381  12.719  0.1697  0.2898  0.1289
  807TIP3    H223837   0.459   1.234  12.711  0.5510  0.1367  1.0058
  808TIP3   OH223838   0.426   2.480  14.000 -0.4288 -0.2608  0.1219
  808TIP3    H123839   0.335   2.510  14.007 -0.9208 -2.0609  2.3810
  808TIP3    H223840   0.421   2.403  13.942 -0.4968 -0.8569  0.9095
  809TIP3   OH223841   5.101   3.010   0.412  0.3038 -0.4181  0.7059
  809TIP3    H123842   5.132   2.920   0.402  1.9361 -0.0052  1.8031
  809TIP3    H223843   5.162   3.062   0.360 -1.2588  0.0028 -0.8155
  810TIP3   OH223844   5.470   1.318  14.417 -0.1832  0.3300 -0.0121
  810TIP3    H123845   5.432   1.384  14.475 -1.0592 -0.7239  0.6601
  810TIP3    H223846   5.424   1.237  14.439 -0.1592 -0.2306 -1.8193
  811TIP3   OH223847   2.218   4.249  15.213 -0.3033  0.2107  0.1376
  811TIP3    H123848   2.250   4.197  15.287 -0.1730 -0.5618 -0.4487
  811TIP3    H223849   2.140   4.293  15.247 -2.2204 -2.6862 -0.1525
  812TIP3   OH223850   2.235   4.210  12.086  0.3432  0.3113  0.0414
  812TIP3    H123851   2.157   4.168  12.050  1.3771 -0.1960 -1.7372
  812TIP3    H223852   2.211   4.302  12.094 -0.3060  0.2318 -0.8932
  813TIP3   OH223853   1.414   6.669   3.465  0.3908  0.0435  0.0546
  813TIP3    H123854   1.319   6.670   3.452  0.6578  1.3542 -2.2039
  813TIP3    H223855   1.448   6.618   3.392  1.3953 -1.4555  1.5077
  814TIP3   OH223856   5.851   4.758   4.370 -0.3539  0.1904 -0.5811
  814TIP3    H123857   5.758   4.763   4.350 -0.1841  1.3121 -1.1481
  814TIP3    H223858   5.878   4.671   4.338 -1.6242 -1.0866  1.5550
  815TIP3   OH223859   1.943   5.430  13.696  0.1525  0.1664 -0.2078
  815TIP3    H123860   1.924   5.517  13.731  2.5953  0.5858  0.2566
  815TIP3    H223861   1.950   5.374  13.773  0.2298 -0.0577 -0.3766
  816TIP3   OH223862   5.963   4.755   6.001 -0.0550 -0.5223  0.0988
  816TIP3    H123863   5.876   4.745   6.039 -0.6596  1.3937 -0.6187
  816TIP3    H223864   6.004   4.824   6.053 -0.0782  0.5927 -1.3004
  817TIP3   OH223865   3.017   1.239  10.835  1.3022  0.3555  0.0578
  817TIP3    H123866   2.981   1.161  10.794 -0.4809  1.4225 -0.5131
  817TIP3    H223867   3.108   1.241  10.806  0.9705 -0.6738 -1.1764
  818TIP3   OH223868   3.674   0.496  16.210  0.6581 -0.2400 -0.3027
  818TIP3    H123869   3.628   0.559  16.265 -1.2555 -0.0173 -2.0325
  818TIP3    H223870   3.607   0.463  16.150  1.8421 -3.1246 -0.1940
  819TIP3   OH223871   4.290   1.275  15.033  0.1084  0.4090 -0.3515
  819TIP3    H123872   4.325   1.224  15.105 -0.4558 -0.9366 -0.9816
  819TIP3    H223873   4.341   1.356  15.033 -0.0287  0.5420  1.6643
  820TIP3   OH223874   4.641   6.281  13.317 -0.4461  0.1117  0.1206
  820TIP3    H123875   4.676   6.192  13.308  1.3551  0.8331 -0.4783
  820TIP3    H223876   4.625   6.291  13.411  1.7993 -0.0030  0.5707
  821TIP3   OH223877   0.753   3.639  15.950  0.2055 -0.1557  0.1081
  821TIP3    H123878   0.752   3.707  15.882 -0.9345 -0.1541  0.1066
  821TIP3    H223879   0.836   3.652  15.996  1.0465 -0.2285 -1.3507
  822TIP3   OH223880   4.078   3.569   3.077 -0.1130 -0.3776 -0.4323
  822TIP3    H123881   4.122   3.484   3.087  2.4674  0.9086 -0.0474
  822TIP3    H223882   4.101   3.598   2.989 -0.2563  0.2923 -0.2524
  823TIP3   OH223883   5.715   5.471   1.033  0.0746 -0.3012 -0.3816
  823TIP3    H123884   5.679   5.386   1.060  1.5581 -0.3534  1.6724
  823TIP3    H223885   5.677   5.487   0.947 -4.4941 -0.5440  1.2947
  824TIP3   OH223886   6.508   5.720  13.399 -0.2638  0.3611 -0.4024
  824TIP3    H123887   6.462   5.766  13.469 -0.1031  0.0790 -0.1075
  824TIP3    H223888   6.448   5.722  13.324 -1.2334 -0.9518  0.3015
  825TIP3   OH223889   3.464   1.080   6.590 -0.1552 -0.0624 -0.2063
  825TIP3    H123890   3.478   1.166   6.629  0.5252 -0.1391 -0.2681
  825TIP3    H223891   3.550   1.038   6.592 -0.3051 -0.4271 -0.9321
  826TIP3   OH223892   5.099   6.479   2.149 -0.4388 -0.2427  0.3337
  826TIP3    H123893   5.173   6.490   2.090 -0.3718 -0.4582  0.3762
  826TIP3    H223894   5.132   6.421   2.219 -0.5406 -0.0571  0.5368
  827TIP3   OH223895   3.325   1.008   1.138 -0.2408  0.1358  0.8318
  827TIP3    H123896   3.410   0.969   1.158 -0.0318  1.4348  2.7560
  827TIP3    H223897   3.347   1.094   1.102 -0.7278  0.2289  0.7550
  828TIP3   OH223898   0.292   0.681  10.618  0.5175  0.7172  0.3146
  828TIP3    H123899   0.326   0.592  10.625  0.4291  0.6548 -0.0004
  828TIP3    H223900   0.225   0.687  10.686  2.4402  1.4530  2.2584
  829TIP3   OH223901   6.159   1.299  16.010 -0.4616 -0.2676 -0.1429
  829TIP3    H123902   6.198   1.306  15.922 -0.1879  1.1138  0.0545
  829TIP3    H223903   6.067   1.321  15.996 -0.3190  0.4281 -0.0255
  830TIP3   OH223904   0.616   6.149  15.137 -0.0163  0.0598 -0.8285
  830TIP3    H123905   0.545   6.115  15.191 -0.1495 -1.1841 -1.7347
  830TIP3    H223906   0.692   6.098  15.162  0.0942 -0.0001 -1.2695
  831TIP3   OH223907   6.138   4.957  14.313 -0.4775 -0.3496  0.4050
  831TIP3    H123908   6.115   4.990  14.226 -0.1719 -0.8749  0.1185
  831TIP3    H223909   6.221   5.001  14.333  0.4114 -1.5884 -0.3738
  832TIP3   OH223910   5.911   3.020   0.640  0.4943  0.0829 -0.3634
  832TIP3    H123911   5.836   3.043   0.696 -0.3543  0.6595 -1.6811
  832TIP3    H223912   5.978   2.988   0.701  0.0921  1.8978  1.1349
  833TIP3   OH223913   1.694   4.075  17.154  0.1479  0.4633  0.3487
  833TIP3    H123914   1.670   4.154  17.106  3.3195  1.4342  0.1410
  833TIP3    H223915   1.697   4.006  17.088 -0.6827  0.6093  0.1551
  834TIP3   OH223916   3.795   6.150   0.515 -0.9452 -0.1074  0.7490
  834TIP3    H123917   3.858   6.222   0.521 -0.3811 -0.2953 -1.7848
  834TIP3    H223918   3.828   6.083   0.575  2.0893 -0.7125 -1.3916
  835TIP3   OH223919   4.623   0.187  16.481 -0.5804 -0.3514  0.2020
  835TIP3    H123920   4.707   0.164  16.522 -1.2256 -2.3799  0.5026
  835TIP3    H223921   4.600   0.271  16.521  1.6161  0.6139 -0.4152
  836TIP3   OH223922   5.888   1.742   1.359  0.5848 -0.0437  0.4184
  836TIP3    H123923   5.826   1.770   1.426  0.5456 -1.0431  0.8122
  836TIP3    H223924   5.951   1.688   1.406 -0.7348 -2.7166 -0.6758
  837TIP3   OH223925   6.789   4.080  15.493  0.2634 -0.0254 -1.0819
  837TIP3    H123926   6.791   4.079  15.397  1.5881  1.0316 -1.1024
  837TIP3    H223927   6.822   4.167  15.516 -2.5900  0.7863  0.3380
  838TIP3   OH223928   6.429   3.194   5.162 -0.1472  0.2501  0.1508
  838TIP3    H123929   6.338   3.193   5.134 -1.4317  3.6268  3.3929
  838TIP3    H223930   6.470   3.262   5.108  0.5301 -1.1992 -1.2379
  839TIP3   OH223931   0.864   6.685  11.750  0.0078 -0.2805 -0.1847
  839TIP3    H123932   0.883   6.698  11.843  1.1799 -2.3739 -0.0690
  839TIP3    H223933   0.863   6.774  11.713  0.6277  0.5197  1.6180
  840TIP3   OH223934   6.530   1.384  13.774 -0.3497  0.3529 -1.0147
  840TIP3    H123935   6.553   1.453  13.712  0.1396 -1.0137 -2.4177
  840TIP3    H223936   6.454   1.341  13.735 -1.8094  1.1949  0.7487
  841TIP3   OH223937   2.489   5.032  13.488  0.0349 -0.1924 -0.5727
  841TIP3    H123938   2.567   5.086  13.494  0.8586 -1.3598 -0.3395
  841TIP3    H223939   2.416   5.094  13.482  0.9710  0.9118 -0.7392
  842TIP3   OH223940   0.540   5.924   4.670  0.4089 -0.5960 -0.1101
  842TIP3    H123941   0.512   5.984   4.600  0.9688  0.1905  0.3188
  842TIP3    H223942   0.500   5.841   4.647  0.2971 -0.2705 -1.1934
  843TIP3   OH223943   4.150   3.792  12.479 -0.0177 -0.0948 -0.3127
  843TIP3    H123944   4.235   3.764  12.446 -0.4541 -1.5616 -0.2558
  843TIP3    H223945   4.165   3.813  12.571  0.4794  0.6192 -0.5529
  844TIP3   OH223946   6.145   6.019  12.350 -0.6354  0.0274  0.0419
  844TIP3    H123947   6.174   6.040  12.439 -0.0369 -0.6052  0.0081
  844TIP3    H223948   6.225   5.997  12.304 -1.1024 -1.1881 -0.2232
  845TIP3   OH223949   1.384   6.643   2.251  0.2171 -0.4455  0.2283
  845TIP3    H123950   1.303   6.631   2.300 -0.5364  1.1508 -0.5760
  845TIP3    H223951   1.453   6.620   2.313 -0.6970  1.5086  2.0763
  846TIP3   OH223952   4.444   1.403  13.090 -0.2189  0.0239  0.0311
  846TIP3    H123953   4.533   1.372  13.107 -0.5531 -1.0254 -0.1040
  846TIP3    H223954   4.397   1.387  13.172  0.0124  1.7705  0.5573
  847TIP3   OH223955   3.021   1.911  11.594 -0.3929 -0.3556  0.6511
  847TIP3    H123956   3.049   1.827  11.559 -1.3572 -0.2732 -0.3587
  847TIP3    H223957   2.997   1.893  11.685 -1.2985 -1.3276  0.2295
  848TIP3   OH223958   4.531   4.436  11.347  0.1999  0.0961  0.3529
  848TIP3    H123959   4.467   4.503  11.322  0.4569 -0.0372 -0.7518
  848TIP3    H223960   4.479   4.367  11.389  0.2044  1.9591  3.7464
  849TIP3   OH223961   5.768   0.348   2.465 -0.5362 -0.1288  0.5010
  849TIP3    H123962   5.707   0.393   2.523  1.2261  1.5433  1.1700
  849TIP3    H223963   5.781   0.409   2.392 -1.5489 -1.5506 -0.9283
  850TIP3   OH223964   0.506   2.687  10.740  0.8399  0.1785 -0.1129
  850TIP3    H123965   0.441   2.734  10.689  1.4511  0.5619 -0.5605
  850TIP3    H223966   0.457   2.646  10.810 -0.2142 -1.3770 -1.6919
  851TIP3   OH223967   3.566   0.075  16.759  0.0590 -0.3793  1.0700
  851TIP3    H123968   3.659   0.059  16.778  0.1763  0.3825  1.1691
  851TIP3    H223969   3.551   0.034  16.674  0.6274  0.0033  0.7858
  852TIP3   OH223970   3.685   4.855   0.283  0.1322  0.2769 -0.3751
  852TIP3    H123971   3.604   4.806   0.272 -1.2948  2.1849  0.9692
  852TIP3    H223972   3.731   4.845   0.200 -1.6773 -0.5071 -1.3251
  853TIP3   OH223973   0.269   4.890   1.854  0.3890  0.0331  0.6229
  853TIP3    H123974   0.280   4.868   1.946  2.4704  0.2201  0.4747
  853TIP3    H223975   0.314   4.974   1.844 -0.5324  0.4249 -0.4083
  854TIP3   OH223976   6.304   2.429  13.752 -0.2975  0.1882 -0.2973
  854TIP3    H123977   6.324   2.381  13.832  0.8597 -0.6550 -1.0598
  854TIP3    H223978   6.269   2.513  13.782  1.9757  0.7204  1.1422
  855TIP3   OH223979   2.519   4.609   5.668 -0.2730  0.6549 -0.0396
  855TIP3    H123980   2.568   4.691   5.668 -0.1924  0.6314  1.1641
  855TIP3    H223981   2.531   4.574   5.757 -0.2635 -0.6806 -0.5348
  856TIP3   OH223982   4.038   5.705  11.917 -0.2700 -0.2320  0.1641
  856TIP3    H123983   3.962   5.687  11.861  0.0970 -1.8300  0.1248
  856TIP3    H223984   4.036   5.636  11.983  1.5213 -0.7418 -0.2508
  857TIP3   OH223985   4.160   3.299   0.931 -0.2895  0.4124  0.0331
  857TIP3    H123986   4.128   3.357   0.861  0.8389  0.0359 -0.8286
  857TIP3    H223987   4.201   3.358   0.994 -2.4324  0.8906  1.0802
  858TIP3   OH223988   3.389   1.581   5.361 -0.2870  0.0515  0.2823
  858TIP3    H123989   3.442   1.509   5.396  0.2644 -0.1124 -0.8538
  858TIP3    H223990   3.317   1.590   5.424  0.4465 -0.4996  1.2270
  859TIP3   OH223991   0.455   0.312  12.681  0.0961  0.2966 -0.5280
  859TIP3    H123992   0.459   0.405  12.657 -0.0161  0.1912 -0.9686
  859TIP3    H223993   0.366   0.299  12.711  0.5610  0.7048  1.1421
  860TIP3   OH223994   4.035   0.733   0.302 -0.0787 -0.2783  0.0838
  860TIP3    H123995   4.003   0.651   0.264  1.7398 -1.8036  1.5788
  860TIP3    H223996   4.126   0.740   0.271 -0.2656  1.3258 -0.2056
  861TIP3   OH223997   2.396   0.899  15.675  0.3706  0.1039 -0.3904
  861TIP3    H123998   2.328   0.956  15.638  2.2846  3.6615  1.0527
  861TIP3    H223999   2.391   0.914  15.769  1.4756 -1.6160 -0.0226
  862TIP3   OH224000   0.117   1.361  15.379 -0.1964 -0.0890  0.3800
  862TIP3    H124001   0.160   1.434  15.335 -0.1886  0.9009  1.9250
  862TIP3    H224002   0.038   1.345  15.328  1.2277 -0.9679 -1.6600
  863TIP3   OH224003   6.525   3.241  15.527 -0.1327 -0.0023  1.1016
  863TIP3    H124004   6.592   3.236  15.595  1.4613  2.1566 -0.1686
  863TIP3    H224005   6.444   3.263  15.574  0.6561  0.1444  2.4291
  864TIP3   OH224006   3.364   2.913   3.815  0.0057 -0.3024 -0.0861
  864TIP3    H124007   3.292   2.880   3.869  0.2685 -0.3917  0.2142
  864TIP3    H224008   3.426   2.841   3.811 -0.0156 -0.3001 -0.5210
  865TIP3   OH224009   4.124   6.141  11.628 -0.4174  0.2197  0.3089
  865TIP3    H124010   4.071   6.082  11.680 -0.4581  0.2586  0.3120
  865TIP3    H224011   4.098   6.229  11.657  0.9473  0.2240  1.6125
  866TIP3   OH224012   1.707   2.744  12.740 -0.1719  0.4043  0.0433
  866TIP3    H124013   1.667   2.723  12.825  1.1683  1.3333  0.9413
  866TIP3    H224014   1.747   2.661  12.712 -1.4932 -0.1710 -0.1933
  867TIP3   OH224015   2.656   3.021  14.126 -0.0480 -0.3669  0.3096
  867TIP3    H124016   2.670   3.077  14.202 -1.0105 -1.2274  1.1361
  867TIP3    H224017   2.653   2.932  14.161  0.3184 -0.8568 -0.8478
  868TIP3   OH224018   1.657   2.300   0.213 -0.4634  0.0787 -0.5739
  868TIP3    H124019   1.684   2.345   0.292  0.3729  0.9326 -1.3282
  868TIP3    H224020   1.645   2.209   0.240  0.6036  0.2008  0.3553
  869TIP3   OH224021   2.909   3.769   5.984  0.2538  0.1893 -0.3343
  869TIP3    H124022   2.989   3.780   6.034 -0.5807 -0.3415  1.1983
  869TIP3    H224023   2.906   3.675   5.963  0.4621  0.3606 -1.1787
  870TIP3   OH224024   1.689   0.861  12.100 -0.5300  0.1246  0.0382
  870TIP3    H124025   1.606   0.816  12.084  0.7941 -2.5861  0.3004
  870TIP3    H224026   1.739   0.850  12.020  0.1994  0.2528  0.4630
  871TIP3   OH224027   0.089   3.158   3.946  0.4901  0.0231  0.0897
  871TIP3    H124028   0.043   3.241   3.936  1.4482  0.7037  1.0801
  871TIP3    H224029   0.182   3.182   3.952  0.6236 -0.8378  2.8572
  872TIP3   OH224030   0.539   6.751  16.561  0.3414 -0.0841  0.1931
  872TIP3    H124031   0.486   6.827  16.583  0.2429 -0.0635 -0.1072
  872TIP3    H224032   0.630   6.780  16.572  0.2978 -0.4614  1.8618
  873TIP3   OH224033   1.146   2.565   0.204  0.1290  0.0052 -0.7997
  873TIP3    H124034   1.112   2.615   0.129  1.6290  0.4675 -1.2072
  873TIP3    H224035   1.070   2.519   0.238 -1.0588  1.5790 -1.1940
  874TIP3   OH224036   2.713   3.009   2.146  0.0368  0.8032 -0.2983
  874TIP3    H124037   2.806   3.012   2.124 -0.1964  2.7941 -1.2952
  874TIP3    H224038   2.698   3.092   2.192 -1.0055 -0.0781  1.0293
  875TIP3   OH224039   1.552   2.048   0.650 -0.9347  0.1086 -0.2562
  875TIP3    H124040   1.554   1.980   0.583 -2.6503 -0.3660  0.1172
  875TIP3    H224041   1.577   2.002   0.731  0.7321  0.5885 -0.4745
  876TIP3   OH224042   4.386   2.175   2.905 -0.4678  0.0078 -0.2718
  876TIP3    H124043   4.323   2.228   2.856  0.7201 -0.5831 -2.5961
  876TIP3    H224044   4.447   2.143   2.839  0.4597 -2.0130  1.4339
  877TIP3   OH224045   5.192   5.885   0.001  0.0294 -0.2692 -0.1952
  877TIP3    H124046   5.177   5.851   0.090  0.5988  0.1887  0.0860
  877TIP3    H224047   5.106   5.880  -0.041 -0.7179  1.2963  1.0244
  878TIP3   OH224048   0.808   1.976  13.372  0.3840 -0.7320  0.4811
  878TIP3    H124049   0.884   2.007  13.323 -1.7740  0.6767 -2.3358
  878TIP3    H224050   0.761   1.921  13.310 -2.3855  0.9123  0.9322
  879TIP3   OH224051   5.732   5.692  13.264  0.0287  0.4350 -0.0271
  879TIP3    H124052   5.801   5.628  13.282  0.3515  0.4423 -1.1298
  879TIP3    H224053   5.714   5.682  13.170 -0.7964  1.0936  0.0523
  880TIP3   OH224054   3.376   3.250   2.480  0.1411 -0.3433  0.5555
  880TIP3    H124055   3.307   3.318   2.480 -0.6656 -1.1295 -0.1343
  880TIP3    H224056   3.328   3.168   2.488  0.9356 -0.9623 -0.6771
  881TIP3   OH224057   6.724   0.255  11.842 -0.0439 -0.1612  0.3334
  881TIP3    H124058   6.690   0.203  11.916  3.5223 -2.0300  0.8992
  881TIP3    H224059   6.690   0.343  11.857 -1.8585 -1.1364  2.5409
  882TIP3   OH224060   1.119   5.292   1.360  0.2636 -0.2751  0.4613
  882TIP3    H124061   1.172   5.303   1.439  1.2312  0.5509 -0.2730
  882TIP3    H224062   1.065   5.370   1.356  0.3932 -0.2007  0.1738
  883TIP3   OH224063   1.324   5.297   2.360  0.6891  0.1881  0.0981
  883TIP3    H124064   1.413   5.327   2.379  0.5221  0.4792  0.4339
  883TIP3    H224065   1.298   5.345   2.282  2.0455 -2.3253 -2.0214
  884TIP3   OH224066   4.350   3.737  11.859  0.7394 -0.7777 -0.3275
  884TIP3    H124067   4.322   3.703  11.775 -1.4011 -0.0827  0.0447
  884TIP3    H224068   4.342   3.832  11.851  4.4093 -0.3262 -0.5926
  885TIP3   OH224069   0.277   4.927   2.956 -0.2632  0.1635 -0.2396
  885TIP3    H124070   0.337   4.918   3.030 -0.1348  0.3481 -0.3199
  885TIP3    H224071   0.254   5.020   2.955 -0.3456  0.1421 -0.3687
  886TIP3   OH224072   2.939   3.688  11.862 -0.2963  0.1610 -0.1755
  886TIP3    H124073   2.922   3.637  11.941  0.6190  2.0777  1.3373
  886TIP3    H224074   2.931   3.779  11.890  2.0395  0.9544 -1.7636
  887TIP3   OH224075   2.429   5.986   0.372  0.2924 -0.0749  0.0431
  887TIP3    H124076   2.395   5.995   0.283 -1.8900  3.6986  1.0311
  887TIP3    H224077   2.409   5.896   0.396 -1.9404 -0.3218 -2.2681
  888TIP3   OH224078   0.359   1.144  15.712 -0.3496  0.2787  0.1532
  888TIP3    H124079   0.289   1.079  15.726 -0.1945 -0.6603 -2.7878
  888TIP3    H224080   0.356   1.163  15.618  1.4667  2.4564  0.4553
  889TIP3   OH224081   6.578   3.842   5.171 -0.3271  0.1499 -0.6901
  889TIP3    H124082   6.505   3.794   5.131 -0.5021 -1.5902  1.5127
  889TIP3    H224083   6.536   3.913   5.221 -0.5712 -0.7763  0.4757
  890TIP3   OH224084   2.828   0.510  16.773 -0.4931  0.0296  0.7183
  890TIP3    H124085   2.848   0.580  16.710  0.6268 -0.3789  0.5943
  890TIP3    H224086   2.777   0.553  16.841 -1.6517  0.5059 -0.4084
  891TIP3   OH224087   5.549   2.841  17.188 -0.1769 -0.0014 -0.3297
  891TIP3    H124088   5.584   2.886  17.265 -1.7298  1.9028 -0.6624
  891TIP3    H224089   5.457   2.824  17.210 -0.0187 -1.6577 -0.8376
  892TIP3   OH224090   2.256   2.888   2.597  0.1890 -0.0053  0.5412
  892TIP3    H124091   2.223   2.940   2.671  0.0888  0.2006  0.3529
  892TIP3    H224092   2.200   2.914   2.524 -0.1363 -0.6838  0.5388
  893TIP3   OH224093   1.761   6.721   4.384 -0.2885 -0.1198 -0.8567
  893TIP3    H124094   1.823   6.793   4.375 -0.6406  0.3017 -0.0224
  893TIP3    H224095   1.763   6.699   4.477 -1.0416 -0.4100 -0.9041
  894TIP3   OH224096   5.396   0.827  12.495  0.1826 -0.2808 -0.6217
  894TIP3    H124097   5.481   0.866  12.473  1.5730 -2.1773  0.9991
  894TIP3    H224098   5.362   0.882  12.565  0.6402 -0.1897 -0.4693
  895TIP3   OH224099   4.971   5.287  10.612  0.7704  0.1750  0.3222
  895TIP3    H124100   4.889   5.301  10.659 -0.4778 -2.1344 -0.9665
  895TIP3    H224101   5.039   5.293  10.679 -0.5223  1.1886  1.6015
  896TIP3   OH224102   2.187   0.734  14.058 -0.0621  0.1764  0.0734
  896TIP3    H124103   2.180   0.771  14.146 -0.4869 -0.8246  0.4815
  896TIP3    H224104   2.197   0.809  14.001 -1.6651  0.9901  0.7940
  897TIP3   OH224105   3.090   3.535   5.285  0.0043 -0.2854 -0.7130
  897TIP3    H124106   3.137   3.616   5.266 -0.6419  0.4288  0.6414
  897TIP3    H224107   3.010   3.563   5.328  0.4128 -1.6869  1.0802
  898TIP3   OH224108   2.323   6.732   5.304 -0.3650  0.0032  0.4973
  898TIP3    H124109   2.398   6.747   5.246  0.3792  1.6297  1.7836
  898TIP3    H224110   2.325   6.806   5.365 -1.4078 -1.3583  2.2787
  899TIP3   OH224111   6.355   6.384   0.023  0.8419 -0.2262 -0.4743
  899TIP3    H124112   6.381   6.443   0.093  2.5935 -2.1604  0.6028
  899TIP3    H224113   6.432   6.378  -0.034 -0.0110  0.0740 -1.7255
  900TIP3   OH224114   5.870   4.141   5.009 -0.4048 -0.0394  0.1185
  900TIP3    H124115   5.925   4.064   4.990 -0.3649  0.3138 -1.3276
  900TIP3    H224116   5.781   4.105   5.016 -0.0769 -0.5815  2.2587
  901TIP3   OH224117   1.906   6.493   0.754 -0.0578  0.4845  0.3073
  901TIP3    H124118   1.978   6.444   0.715 -0.3686  1.3819 -1.4993
  901TIP3    H224119   1.901   6.574   0.703 -2.7929  0.1426 -0.1130
  902TIP3   OH224120   5.642   6.678  13.902  0.5569  0.2895  0.4404
  902TIP3    H124121   5.569   6.706  13.847  0.0116 -2.1138 -0.1695
  902TIP3    H224122   5.602   6.650  13.984  0.5116 -2.2870 -0.3585
  903TIP3   OH224123   3.363   6.231  16.971  0.5387  0.7156 -0.2386
  903TIP3    H124124   3.453   6.256  16.947  0.2731 -0.3296 -2.4971
  903TIP3    H224125   3.375   6.168  17.042  1.3686  3.5952  2.3974
  904TIP3   OH224126   4.157   0.100  13.996 -1.1327 -0.2273 -0.0882
  904TIP3    H124127   4.161   0.130  14.086 -2.7904  0.6669 -0.2894
  904TIP3    H224128   4.229   0.037  13.989  1.8410  2.8012  0.6554
  905TIP3   OH224129   4.792   2.577   5.164 -0.2448  0.8183  0.3235
  905TIP3    H124130   4.854   2.528   5.111 -0.5984  0.0002  0.6585
  905TIP3    H224131   4.847   2.633   5.220  0.1308  1.5050 -0.7058
  906TIP3   OH224132   3.883   3.589   0.566  0.4895  0.7405 -0.9139
  906TIP3    H124133   3.923   3.666   0.526  2.3750  0.0541 -0.4728
  906TIP3    H224134   3.938   3.571   0.643  0.1455 -1.0739 -1.0514
  907TIP3   OH224135   2.218   3.513  16.908 -0.4809  0.0189 -0.3677
  907TIP3    H124136   2.213   3.419  16.888 -1.3057 -0.3390  1.2671
  907TIP3    H224137   2.136   3.531  16.955  1.2086  0.6523  2.6377
  908TIP3   OH224138   0.364   6.562  16.998  0.0448  0.1639 -0.1204
  908TIP3    H124139   0.390   6.602  17.082 -0.0843  0.3831 -0.1850
  908TIP3    H224140   0.447   6.553  16.950  0.2938 -1.0444  0.4889
  909TIP3   OH224141   5.670   4.535  11.518  0.1649 -0.0599  0.1436
  909TIP3    H124142   5.683   4.572  11.605 -0.4433  0.4840  0.0150
  909TIP3    H224143   5.757   4.529  11.480  0.3361  0.6410  0.4176
  910TIP3   OH224144   3.715   5.383   3.288 -0.6839 -0.1706  0.5913
  910TIP3    H124145   3.785   5.435   3.326  0.6209  1.4721 -3.5013
  910TIP3    H224146   3.759   5.304   3.256 -1.1308 -0.1982  0.0225
  911TIP3   OH224147   0.648   5.786  11.914  0.1974  0.6621 -0.1222
  911TIP3    H124148   0.708   5.737  11.970 -1.4212  0.3818  1.4649
  911TIP3    H224149   0.561   5.757  11.942 -0.7896  3.3826 -0.1119
  912TIP3   OH224150   2.674   6.689   1.032  0.6128 -0.4638  0.3436
  912TIP3    H124151   2.635   6.742   1.102 -1.3370 -1.1319 -0.1658
  912TIP3    H224152   2.693   6.751   0.962  4.2887  0.5364  1.9996
  913TIP3   OH224153   3.825   2.330   4.140  0.0661  0.2343 -0.2616
  913TIP3    H124154   3.733   2.330   4.111 -0.3073 -1.9909  0.7682
  913TIP3    H224155   3.826   2.393   4.212 -0.7193  0.1185 -0.1321
  914TIP3   OH224156   4.472   1.719  12.251  0.3420 -0.4376 -0.1240
  914TIP3    H124157   4.509   1.671  12.177  0.1016  1.8238 -1.8235
  914TIP3    H224158   4.436   1.799  12.212 -1.4958 -0.0275  2.2001
  915TIP3   OH224159   4.686   4.417   2.694 -0.3937  0.1123  0.3315
  915TIP3    H124160   4.736   4.496   2.676 -0.4097 -0.0592 -0.4667
  915TIP3    H224161   4.749   4.345   2.689 -0.3704  0.0652  1.0941
  916TIP3   OH224162   1.840   6.317   1.675 -0.2859  0.4177 -0.3851
  916TIP3    H124163   1.889   6.388   1.633 -1.1048  0.9375 -0.5019
  916TIP3    H224164   1.879   6.237   1.641 -0.7915  0.8178 -1.9869
  917TIP3   OH224165   3.274   5.788   4.946  0.8190 -0.5577 -0.7135
  917TIP3    H124166   3.334   5.717   4.921 -0.5369 -2.0175 -0.0380
  917TIP3    H224167   3.276   5.848   4.871  0.5906 -2.2973 -2.1990
  918TIP3   OH224168   4.827   0.233  15.932 -0.5326  0.1037  0.0965
  918TIP3    H124169   4.873   0.212  16.013 -1.3320  0.7054  0.7179
  918TIP3    H224170   4.734   0.231  15.956 -0.8414 -0.9309 -1.0904
  919TIP3   OH224171   4.481   0.693  15.090  0.1653  0.4406  0.1035
  919TIP3    H124172   4.450   0.610  15.124 -1.6759  1.2277  0.4291
  919TIP3    H224173   4.474   0.754  15.163  1.2286  0.9635 -0.2045
  920TIP3   OH224174   2.824   3.478  15.278  0.0901  0.4027  0.5495
  920TIP3    H124175   2.799   3.571  15.280 -0.4567  0.2995 -0.7259
  920TIP3    H224176   2.748   3.432  15.312 -0.9909  0.2030 -1.9403
  921TIP3   OH224177   2.169   2.435  13.463  0.8486 -0.4736 -0.0970
  921TIP3    H124178   2.235   2.468  13.524  0.7981  0.8534 -0.7126
  921TIP3    H224179   2.086   2.446  13.508  0.9776 -1.4706  0.3990
  922TIP3   OH224180   3.856   3.052  16.469  0.1442  0.5110 -0.0511
  922TIP3    H124181   3.826   3.060  16.379 -1.6801 -0.5394  0.3993
  922TIP3    H224182   3.890   2.962  16.475  1.2261  0.9099  0.0736
  923TIP3   OH224183   6.475   5.055   2.608  0.0888 -0.7489  0.8266
  923TIP3    H124184   6.544   5.064   2.673  0.1851 -1.1692  0.7872
  923TIP3    H224185   6.394   5.078   2.654  0.2718 -0.0928  0.8267
  924TIP3   OH224186   3.929   6.198  12.510 -0.0032  0.3390  0.4845
  924TIP3    H124187   3.915   6.283  12.468 -0.2980 -0.1639 -0.4469
  924TIP3    H224188   3.848   6.150  12.495  0.1075 -0.0604  1.1402
  925TIP3   OH224189   4.432   6.625  16.169  0.5325 -0.1620  0.0257
  925TIP3    H124190   4.520   6.588  16.159  0.2191 -1.3407  1.4321
  925TIP3    H224191   4.426   6.650  16.261  0.3430  2.5419 -0.6191
  926TIP3   OH224192   0.881   4.303   4.560  0.0627 -0.2714 -0.5420
  926TIP3    H124193   0.934   4.330   4.485 -0.1269  0.0410 -0.5688
  926TIP3    H224194   0.813   4.247   4.523  0.7131 -1.1539 -0.4290
  927TIP3   OH224195   6.671   1.068  15.766  0.2996 -0.4948 -0.0465
  927TIP3    H124196   6.580   1.084  15.792  0.1427 -0.9342 -0.3134
  927TIP3    H224197   6.671   1.078  15.671  0.8529  0.9952  0.0784
  928TIP3   OH224198   1.212   6.558  14.170 -0.3355  0.4712  0.2071
  928TIP3    H124199   1.277   6.498  14.206  0.8069  0.6900 -1.3729
  928TIP3    H224200   1.219   6.636  14.224 -0.3324 -0.0397  0.9595
  929TIP3   OH224201   3.271   4.896  10.884 -0.0870 -0.3171 -0.9517
  929TIP3    H124202   3.325   4.926  10.811  1.6494  0.5767  0.5958
  929TIP3    H224203   3.267   4.801  10.875  0.8118 -0.2899 -1.7114
  930TIP3   OH224204   0.029   1.387   5.888 -0.0872 -0.1619  0.5689
  930TIP3    H124205   0.001   1.431   5.969  1.7068  2.4458 -0.0832
  930TIP3    H224206  -0.001   1.445   5.818  0.7781 -0.9519 -0.4840
  931TIP3   OH224207   2.076   3.092   0.810 -0.1876 -0.1603 -0.2353
  931TIP3    H124208   2.052   3.018   0.867 -2.3907  1.7640  1.5435
  931TIP3    H224209   2.049   3.064   0.722 -1.7940 -1.1731  0.5386
  932TIP3   OH224210   4.188   2.691   0.905 -0.4837 -0.0642  0.4118
  932TIP3    H124211   4.182   2.613   0.961 -1.2341 -1.4158 -1.4257
  932TIP3    H224212   4.271   2.732   0.930 -0.2151 -1.2831  1.6718
  933TIP3   OH224213   2.624   1.592  15.564  0.1228 -0.4235 -0.1719
  933TIP3    H124214   2.591   1.505  15.587  0.3396 -0.5635 -0.3827
  933TIP3    H224215   2.699   1.575  15.506  0.4303 -0.1070  0.1263
  934TIP3   OH224216   3.886   2.919  13.278  0.3539  0.1027  0.0771
  934TIP3    H124217   3.907   2.887  13.190  0.7376 -0.1228  0.2474
  934TIP3    H224218   3.885   2.841  13.332 -2.8218 -0.2117 -0.2270
  935TIP3   OH224219   3.544   6.671   0.832  0.3861  0.4010 -0.0269
  935TIP3    H124220   3.454   6.695   0.809  0.4469 -0.3179 -1.1139
  935TIP3    H224221   3.552   6.693   0.924 -1.0326  0.1330  0.1831
  936TIP3   OH224222   5.105   1.567  11.447  0.0806  0.2406  0.0437
  936TIP3    H124223   5.023   1.610  11.473 -0.9568 -0.4639 -1.8639
  936TIP3    H224224   5.168   1.639  11.441 -1.7284  1.8102 -3.5896
  937TIP3   OH224225   0.831   3.440  11.468 -0.3036 -0.5019 -0.1826
  937TIP3    H124226   0.888   3.459  11.542  0.0161 -0.4895 -0.4262
  937TIP3    H224227   0.889   3.400  11.403 -0.3803  0.3189 -0.7751
  938TIP3   OH224228   1.293   0.072  12.169  0.5492  0.8557  0.4769
  938TIP3    H124229   1.280   0.118  12.086  1.0980  1.3568  0.6544
  938TIP3    H224230   1.207   0.036  12.191 -0.1607  2.6343  0.8158
  939TIP3   OH224231   1.733   3.009   4.035  0.1733 -0.3876 -0.3762
  939TIP3    H124232   1.754   2.929   3.988 -1.3552 -0.1699 -1.4876
  939TIP3    H224233   1.795   3.074   4.001  1.1410 -0.9634  0.2324
  940TIP3   OH224234   6.068   2.291  13.645  0.1508 -0.3842  0.0710
  940TIP3    H124235   6.140   2.328  13.696  0.2352 -1.1894  0.5454
  940TIP3    H224236   6.108   2.266  13.562  0.5974 -1.5675  0.6330
  941TIP3   OH224237   1.539   4.457  12.332 -0.0296  0.3426  0.4805
  941TIP3    H124238   1.538   4.393  12.261 -1.4687  1.0615 -0.1921
  941TIP3    H224239   1.447   4.482  12.343  0.2761  0.9029  2.0145
  942TIP3   OH224240   0.951   3.932  14.300  0.3984  0.4513  0.0778
  942TIP3    H124241   0.946   3.976  14.385 -0.4065  1.2670 -0.3625
  942TIP3    H224242   0.980   4.001  14.239  0.8696 -0.0943 -0.3255
  943TIP3   OH224243   3.765   1.271  11.303 -0.2634 -0.4090 -0.4576
  943TIP3    H124244   3.681   1.238  11.273 -0.5262 -0.4667  0.3248
  943TIP3    H224245   3.759   1.366  11.294 -0.8584 -0.3251  0.7099
  944TIP3   OH224246   3.426   1.424  11.726 -0.3947  0.3051  0.4222
  944TIP3    H124247   3.363   1.381  11.785  0.5040 -0.6119  0.7468
  944TIP3    H224248   3.451   1.356  11.664 -1.7286  1.3937 -1.4263
  945TIP3   OH224249   2.244   2.021  16.379 -0.4389  0.2066  0.5664
  945TIP3    H124250   2.204   2.075  16.447 -0.5409  0.6815  0.1325
  945TIP3    H224251   2.199   2.046  16.299 -1.3935 -1.4536  0.5474
  946TIP3   OH224252   5.521   3.060   4.370  0.5507 -0.1818 -0.7564
  946TIP3    H124253   5.428   3.084   4.366  0.6024  0.0812 -0.4132
  946TIP3    H224254   5.541   3.058   4.464  0.7106 -0.9340 -0.7937
  947TIP3   OH224255   6.303   2.505   0.318 -0.3086  0.2260 -0.6460
  947TIP3    H124256   6.283   2.413   0.336 -1.6202  0.8477  1.3839
  947TIP3    H224257   6.223   2.539   0.278  0.2794  0.4625 -1.6724
  948TIP3   OH224258   3.178   2.166  13.357 -0.5366  0.5113 -0.2701
  948TIP3    H124259   3.118   2.206  13.294 -0.1780 -0.5478 -1.3117
  948TIP3    H224260   3.222   2.097  13.308 -0.8260 -0.8950  1.3473
  949TIP3   OH224261   4.717   3.234   1.092 -0.2302  0.2044  0.3126
  949TIP3    H124262   4.684   3.253   1.180  0.3254  2.1199  0.1509
  949TIP3    H224263   4.788   3.297   1.079 -0.0756 -0.2708 -1.3790
  950TIP3   OH224264   6.533   0.108   2.907  0.4046  0.2536  0.0118
  950TIP3    H124265   6.571   0.152   2.831  0.9992  0.1309  0.2298
  950TIP3    H224266   6.494   0.029   2.872  0.0572  0.5438 -0.2644
  951TIP3   OH224267   2.191   4.517  13.352 -0.1019 -0.2726  0.3405
  951TIP3    H124268   2.282   4.507  13.382 -0.1890  0.6937  0.9407
  951TIP3    H224269   2.196   4.586  13.286 -0.5367  0.4036  1.0101
  952TIP3   OH224270   0.626   6.627  15.668 -0.2347  0.3637  0.1061
  952TIP3    H124271   0.613   6.661  15.757 -2.4258  1.0390 -0.4088
  952TIP3    H224272   0.693   6.684  15.630  0.4778  0.2796  1.2076
  953TIP3   OH224273   1.859   2.526  12.776 -0.5428 -0.5111 -0.3969
  953TIP3    H124274   1.928   2.530  12.710 -0.2124  0.4844 -0.0163
  953TIP3    H224275   1.892   2.581  12.848 -0.6082 -2.0396  0.8642
  954TIP3   OH224276   1.700   0.344   4.295  0.0457  0.5823  0.6670
  954TIP3    H124277   1.628   0.341   4.358  0.2346 -0.4523  0.8419
  954TIP3    H224278   1.689   0.265   4.242  0.9433  0.5034  0.5819
  955TIP3   OH224279   4.048   3.350  14.264  0.5645 -0.0795 -0.5324
  955TIP3    H124280   3.988   3.425  14.272 -0.9804 -0.9355 -2.9337
  955TIP3    H224281   4.122   3.383  14.213  1.5776  0.6278  1.3027
  956TIP3   OH224282   0.087   3.737   0.557  0.1474  0.3078 -0.3047
  956TIP3    H124283   0.044   3.768   0.637  1.2836  1.7511 -0.2220
  956TIP3    H224284   0.180   3.738   0.578  0.3396 -1.5694 -0.8944
  957TIP3   OH224285   6.093   2.734  15.417 -0.2489  0.3580 -0.1423
  957TIP3    H124286   6.052   2.818  15.440 -1.0181  0.3713 -1.4417
  957TIP3    H224287   6.019   2.673  15.410  0.3593 -0.6112  1.4098
  958TIP3   OH224288   4.637   6.005  12.786 -0.6356 -0.6000  0.4441
  958TIP3    H124289   4.705   5.982  12.723 -0.3392  0.9137  0.1806
  958TIP3    H224290   4.595   6.082  12.750 -1.5055 -0.6191  1.3492
  959TIP3   OH224291   5.010   5.582  10.552  0.4121 -0.1540 -0.0340
  959TIP3    H124292   5.041   5.500  10.516 -0.4028 -0.7756  0.6417
  959TIP3    H224293   4.935   5.606  10.498  1.3215  0.7575 -0.9474
  960TIP3   OH224294   5.559   5.418  12.421 -0.0721 -0.7177  0.2303
  960TIP3    H124295   5.572   5.473  12.499 -1.5821  0.7434 -0.4751
  960TIP3    H224296   5.539   5.331  12.456  0.0060 -0.2679  1.4581
  961TIP3   OH224297   2.923   6.293   5.840  0.5579 -0.2538 -0.0976
  961TIP3    H124298   2.860   6.231   5.805  2.0202 -1.4659 -0.6996
  961TIP3    H224299   2.927   6.275   5.934 -0.1728  0.0165 -0.0118
  962TIP3   OH224300   2.331   4.688   6.038  0.3816  0.0997  0.1864
  962TIP3    H124301   2.327   4.771   5.991 -2.5976 -0.8034 -1.4610
  962TIP3    H224302   2.311   4.710   6.129 -0.0948  1.2375 -0.1837
  963TIP3   OH224303   0.872   5.621   4.123  0.1551 -0.0736  0.0718
  963TIP3    H124304   0.867   5.681   4.048  1.2155  0.8572  0.7225
  963TIP3    H224305   0.938   5.558   4.098  1.0039  0.6347  0.4745
  964TIP3   OH224306   2.818   2.573   5.677  0.5046  0.0181 -0.2283
  964TIP3    H124307   2.773   2.560   5.593  0.2086 -1.0173  0.0794
  964TIP3    H224308   2.849   2.664   5.673 -0.0599  0.1895 -1.1914
  965TIP3   OH224309   3.213   0.819  16.638  0.3435  0.0827 -0.2812
  965TIP3    H124310   3.305   0.837  16.620  0.9138 -1.5021  0.7644
  965TIP3    H224311   3.181   0.896  16.684  1.5895  0.0237  0.7154
  966TIP3   OH224312   2.849   6.196   1.796  0.1818  0.5761 -0.0994
  966TIP3    H124313   2.840   6.291   1.800  1.4984  0.7164 -0.0644
  966TIP3    H224314   2.903   6.174   1.872 -0.8614 -0.3139  0.4220
  967TIP3   OH224315   3.903   0.422   3.212 -0.2530 -0.0919  0.1349
  967TIP3    H124316   3.877   0.331   3.228 -2.3712  0.0766 -1.8223
  967TIP3    H224317   3.868   0.470   3.288  0.5671 -0.8237  1.0038
  968TIP3   OH224318   6.070   1.570  12.904 -0.2710  0.8636 -0.2153
  968TIP3    H124319   6.131   1.515  12.855  0.0321  1.1468 -0.1608
  968TIP3    H224320   6.125   1.638  12.943 -0.6921  1.4321 -0.6012
  969TIP3   OH224321   1.000   3.535   3.416 -0.7729  0.4120  0.2296
  969TIP3    H124322   0.910   3.546   3.385 -0.3582  1.4331 -0.6726
  969TIP3    H224323   1.050   3.602   3.370  0.7528 -1.1320 -0.4625
  970TIP3   OH224324   0.568   5.786   5.150 -0.1692  0.1409  0.6932
  970TIP3    H124325   0.498   5.805   5.088  0.4343 -0.0791 -0.0781
  970TIP3    H224326   0.580   5.867   5.199  1.3348  1.3589 -1.5007
  971TIP3   OH224327   4.345   0.713   1.391  0.4274 -0.0714 -0.3236
  971TIP3    H124328   4.337   0.799   1.431  0.2656 -0.2170 -0.0435
  971TIP3    H224329   4.380   0.731   1.303 -0.5689  0.3734 -0.6452
  972TIP3   OH224330   3.375   6.185   3.659 -0.0361 -0.2218 -0.1781
  972TIP3    H124331   3.355   6.248   3.728  0.8270 -0.2986  0.1491
  972TIP3    H224332   3.422   6.115   3.703  0.8311 -0.1084 -0.9014
  973TIP3   OH224333   5.736   0.567  14.450  0.2747 -0.5075 -0.2967
  973TIP3    H124334   5.744   0.474  14.427 -0.2133 -0.2981 -1.4070
  973TIP3    H224335   5.647   0.590  14.424  0.8986  0.6571 -1.5880
  974TIP3   OH224336   1.147   4.053  10.689 -0.5696  0.3028 -0.4417
  974TIP3    H124337   1.089   4.075  10.763  0.2326  1.9459 -0.2562
  974TIP3    H224338   1.235   4.066  10.724 -0.1639  4.2066 -2.4758
  975TIP3   OH224339   5.730   1.712  14.119  0.1835 -0.1702 -0.2643
  975TIP3    H124340   5.782   1.766  14.178 -0.4455 -1.0140  1.1106
  975TIP3    H224341   5.656   1.768  14.094 -0.8307 -0.5523  1.6911
  976TIP3   OH224342   0.634   1.485  14.870  0.7587  0.0745 -0.2972
  976TIP3    H124343   0.580   1.425  14.817  2.8031 -2.2117  0.0064
  976TIP3    H224344   0.574   1.521  14.935 -0.9149 -0.3538 -1.5449
  977TIP3   OH224345   0.106   2.654  14.603 -0.2216  0.1004 -0.0711
  977TIP3    H124346   0.110   2.740  14.560 -0.0196 -0.2854 -0.8470
  977TIP3    H224347   0.017   2.650  14.639 -1.1687 -0.3688 -2.2515
  978TIP3   OH224348   2.532   6.241   3.299 -0.1468  0.1287 -0.0607
  978TIP3    H124349   2.595   6.289   3.353 -0.3404 -0.9087  1.1566
  978TIP3    H224350   2.499   6.172   3.357 -0.4862 -0.9516 -1.4831
  979TIP3   OH224351   0.377   1.415  13.599 -0.0626  0.1980  1.0377
  979TIP3    H124352   0.380   1.490  13.539  0.3036 -1.1005 -0.6554
  979TIP3    H224353   0.467   1.381  13.599 -0.3744 -0.6399  1.2565
  980TIP3   OH224354   4.101   1.747   4.588  0.4070 -1.1200  0.7778
  980TIP3    H124355   4.195   1.751   4.601  0.5425  0.3016 -0.4652
  980TIP3    H224356   4.065   1.810   4.651  0.2068 -2.1347  1.7114
  981TIP3   OH224357   6.001   6.133  15.516 -1.0426  0.8918 -0.1116
  981TIP3    H124358   6.059   6.183  15.574 -1.8043  1.6953 -0.0212
  981TIP3    H224359   6.033   6.153  15.428 -1.0472  1.1638 -0.0527
  982TIP3   OH224360   5.075   5.948  15.981 -0.1710  0.3347  0.1025
  982TIP3    H124361   5.010   5.970  16.047 -0.6784 -0.4599 -0.1200
  982TIP3    H224362   5.025   5.922  15.904  0.4079  0.3198 -0.2795
  983TIP3   OH224363   3.007   3.086   5.227  0.9189 -0.4920  0.4104
  983TIP3    H124364   3.089   3.062   5.183  0.0097  1.1656 -2.4559
  983TIP3    H224365   2.994   3.178   5.204 -0.6474 -0.0613  2.7086
  984TIP3   OH224366   3.740   4.643   5.628 -0.1781 -0.3422  0.2819
  984TIP3    H124367   3.769   4.635   5.538 -2.1896 -0.5642 -0.3846
  984TIP3    H224368   3.813   4.608   5.680  0.8865 -0.4780 -1.2342
  985TIP3   OH224369   5.734   2.612   6.310  0.3378 -0.1405 -0.0629
  985TIP3    H124370   5.726   2.633   6.217  1.1036  1.4502  0.1907
  985TIP3    H224371   5.749   2.517   6.312  0.0292 -0.2469 -1.5311
  986TIP3   OH224372   5.757   2.187  14.241  0.1632 -0.0827  1.0335
  986TIP3    H124373   5.730   2.276  14.266 -1.3449 -0.2249  0.0007
  986TIP3    H224374   5.812   2.200  14.164 -0.1617 -0.0473  0.8060
  987TIP3   OH224375   2.030   0.808  17.054  0.1718 -0.1290  0.2723
  987TIP3    H124376   2.119   0.778  17.034 -0.3066 -0.6522 -1.1992
  987TIP3    H224377   1.974   0.738  17.022 -0.8627  1.1868 -0.8952
  988TIP3   OH224378   6.681   5.860  16.534 -0.5861 -0.2373  0.6834
  988TIP3    H124379   6.588   5.865  16.560 -0.8417  2.4428 -0.4523
  988TIP3    H224380   6.679   5.847  16.439  0.2546 -1.0783  0.7619
  989TIP3   OH224381   6.243   6.110  16.544  0.7000  0.0143  0.1944
  989TIP3    H124382   6.153   6.119  16.577  0.9364 -0.2248  0.9149
  989TIP3    H224383   6.294   6.082  16.620  1.5155  0.8354 -0.0330
  990TIP3   OH224384   0.588   4.823  12.185 -0.3341 -0.0274  0.0466
  990TIP3    H124385   0.558   4.757  12.248  0.3152  0.2466  0.6634
  990TIP3    H224386   0.681   4.834  12.205  0.0159 -0.3237 -1.3335
  991TIP3   OH224387   3.762   1.365   3.333  0.1336 -0.1710  0.3088
  991TIP3    H124388   3.847   1.389   3.294 -0.4173  0.9742 -0.2492
  991TIP3    H224389   3.784   1.301   3.401  1.7137  1.6206  1.6012
  992TIP3   OH224390   5.212   4.717   0.845 -0.3872 -0.8906  0.0708
  992TIP3    H124391   5.278   4.756   0.901 -1.0664  0.5467 -0.0690
  992TIP3    H224392   5.143   4.688   0.905 -1.0837  0.5863  0.0389
  993TIP3   OH224393   5.515   6.390   5.047 -0.0376 -0.6789 -0.1982
  993TIP3    H124394   5.489   6.410   4.957 -0.2608 -1.3074 -0.2827
  993TIP3    H224395   5.467   6.453   5.100  0.0625 -0.3284 -0.5177
  994TIP3   OH224396   0.331   2.846  11.005 -0.2250 -0.5741 -0.2733
  994TIP3    H124397   0.373   2.932  10.994 -4.0010  1.8794  2.1142
  994TIP3    H224398   0.268   2.840  10.933 -0.8072 -0.7442  0.2397
  995TIP3   OH224399   6.222   4.200   5.997  0.2393  0.3463  0.1365
  995TIP3    H124400   6.268   4.143   5.936  0.6214  0.5633  0.2222
  995TIP3    H224401   6.157   4.144   6.039  1.8076 -0.4899  1.5559
  996TIP3   OH224402   2.533   6.644   5.808 -0.3215  0.1490 -0.0118
  996TIP3    H124403   2.510   6.675   5.896  0.7685 -1.1145  0.7654
  996TIP3    H224404   2.622   6.678   5.794  0.1738 -1.0305  0.1083
  997TIP3   OH224405   5.140   3.301   4.624 -0.0201  0.0305  0.3148
  997TIP3    H124406   5.127   3.256   4.707  1.0787 -0.2770  0.3276
  997TIP3    H224407   5.056   3.344   4.608 -0.7664 -1.1906  0.7908
  998TIP3   OH224408   0.891   0.769  15.931  0.1007 -0.0028 -0.5382
  998TIP3    H124409   0.937   0.698  15.887 -1.8653 -0.5045 -1.9284
  998TIP3    H224410   0.826   0.799  15.867 -1.5983  0.5420  1.3340
  999TIP3   OH224411   6.733   3.466  13.931  0.0658  0.1638 -0.3025
  999TIP3    H124412   6.761   3.557  13.921  0.6533 -0.0399 -0.5581
  999TIP3    H224413   6.638   3.471  13.935  0.0737  0.7593 -0.6390
 1000TIP3   OH224414   3.641   5.929  13.007 -0.5835  0.1765  0.5484
 1000TIP3    H124415   3.591   5.992  13.058 -0.3837  1.3088 -0.6150
 1000TIP3    H224416   3.689   5.878  13.072 -0.2817  1.6285  1.4888
 1001TIP3   OH224417   5.961   1.978   5.968  0.1442  0.0075 -0.6316
 1001TIP3    H124418   6.019   1.926   6.024 -0.0508 -0.3755 -0.7835
 1001TIP3    H224419   5.906   1.914   5.923  1.1001  0.2329 -2.1908
 1002TIP3   OH224420   3.361   3.395   4.548  0.5845  0.0520 -0.1627
 1002TIP3    H124421   3.290   3.394   4.484  1.7522 -1.0760 -1.4979
 1002TIP3    H224422   3.414   3.319   4.526  1.8974  0.5451  1.1681
 1003TIP3   OH224423   2.093   6.744  15.496 -0.3414 -0.1682  0.1114
 1003TIP3    H124424   2.101   6.686  15.571  0.9162  0.5804  0.5819
 1003TIP3    H224425   2.126   6.828  15.527 -3.0242  1.1333 -0.2382
 1004TIP3   OH224426   2.656   5.370   3.108  0.2144 -0.1282 -0.2091
 1004TIP3    H124427   2.611   5.285   3.102 -0.1508  0.0212  0.3400
 1004TIP3    H224428   2.748   5.347   3.120  0.0553 -0.4643  0.4357
 1005TIP3   OH224429   3.792   4.532  17.016 -0.4120 -0.3309  0.7834
 1005TIP3    H124430   3.869   4.515  17.071 -0.4494 -0.5852  0.7564
 1005TIP3    H224431   3.820   4.508  16.928  0.2289  1.6726  0.3695
 1006TIP3   OH224432   2.470   5.563   3.773  0.3634  0.2376  0.0620
 1006TIP3    H124433   2.541   5.612   3.814  0.6936  0.3187 -0.5893
 1006TIP3    H224434   2.475   5.587   3.681  0.0770 -0.4737 -0.1449
 1007TIP3   OH224435   0.094   6.616  11.911  0.7213  0.0634 -0.4654
 1007TIP3    H124436   0.119   6.593  11.822 -1.9352  0.7048 -1.4683
 1007TIP3    H224437   0.148   6.692  11.932  0.8246  0.3958 -1.8388
 1008TIP3   OH224438   6.046   2.703   2.671  0.2882 -0.6090 -0.0493
 1008TIP3    H124439   5.959   2.735   2.693  0.3447 -1.0844  0.8993
 1008TIP3    H224440   6.094   2.703   2.754  0.8826 -1.2837 -0.3807
 1009TIP3   OH224441   3.937   1.463   6.117 -0.1390  0.7661  0.2923
 1009TIP3    H124442   4.017   1.480   6.067 -0.0757  0.2400  0.2132
 1009TIP3    H224443   3.946   1.517   6.195 -0.3680  1.8218 -0.3899
 1010TIP3   OH224444   4.848   1.745   4.834 -0.0160 -0.1300  0.2022
 1010TIP3    H124445   4.794   1.684   4.884 -0.1736 -0.5296 -0.4353
 1010TIP3    H224446   4.936   1.706   4.834  0.0717  0.0682  0.4956
 1011TIP3   OH224447   4.084   6.698  15.582  0.0950  0.0525  0.5050
 1011TIP3    H124448   4.170   6.730  15.611  0.8234 -1.7410  0.4668
 1011TIP3    H224449   4.089   6.699  15.486 -0.4324  1.1605  0.4710
 1012TIP3   OH224450   3.577   3.024   6.276 -0.1167 -0.2083  0.3850
 1012TIP3    H124451   3.487   3.016   6.307  0.2015 -4.2664  0.8992
 1012TIP3    H224452   3.631   3.005   6.353  1.0524 -0.3037 -0.4241
 1013TIP3   OH224453   1.377   1.726  17.234  0.6459 -0.7079  0.2633
 1013TIP3    H124454   1.377   1.750  17.327 -0.6972  0.0760  0.0850
 1013TIP3    H224455   1.320   1.649  17.230 -1.2377  0.6540 -0.2038
 1014TIP3   OH224456   5.439   6.298  12.165  0.1690 -0.1182 -0.8324
 1014TIP3    H124457   5.359   6.347  12.145  0.1841  0.3711  0.2521
 1014TIP3    H224458   5.508   6.364  12.166  0.2136 -0.1692  0.4885
 1015TIP3   OH224459   4.690   2.896  15.703 -0.2500  0.0386 -0.8469
 1015TIP3    H124460   4.731   2.810  15.704 -0.5473 -0.1066 -0.8923
 1015TIP3    H224461   4.741   2.947  15.640  0.4449  0.1577 -0.2056
 1016TIP3   OH224462   0.921   2.223  15.005 -0.4227 -0.1329 -0.3468
 1016TIP3    H124463   0.998   2.273  15.031  0.2524 -1.6854  0.7671
 1016TIP3    H224464   0.903   2.252  14.916 -0.2627  2.2924  0.3466
 1017TIP3   OH224465   3.818   2.701  14.786  0.0854  0.4006 -0.4945
 1017TIP3    H124466   3.792   2.608  14.786 -0.4636  0.5443 -1.5228
 1017TIP3    H224467   3.769   2.740  14.714 -0.2596  1.6655  0.3847
 1018TIP3   OH224468   6.790   3.562  10.536  0.8563 -0.2020 -0.1400
 1018TIP3    H124469   6.766   3.574  10.444  0.4120 -0.3535 -0.0460
 1018TIP3    H224470   6.750   3.479  10.561  1.8042 -0.6624 -0.0810
 1019TIP3   OH224471   3.379   3.555   4.139  0.4031  0.8774  0.0048
 1019TIP3    H124472   3.466   3.524   4.115 -0.5973 -1.7320 -0.5239
 1019TIP3    H224473   3.326   3.543   4.060 -0.5599  2.0894  0.4207
 1020TIP3   OH224474   1.857   2.762   0.585 -0.4355 -0.0550  0.3022
 1020TIP3    H124475   1.786   2.736   0.525  0.3493  0.2048 -0.7691
 1020TIP3    H224476   1.865   2.856   0.572  1.9197 -0.4102 -1.7217
 1021TIP3   OH224477   1.123   1.981  13.525 -0.4608  0.1863 -0.3468
 1021TIP3    H124478   1.201   1.949  13.478 -0.4949  0.1504 -0.3791
 1021TIP3    H224479   1.061   2.002  13.455 -1.0045 -1.1185 -0.2952
 1022TIP3   OH224480   0.384   6.715  13.740  0.5829  0.7233  0.7756
 1022TIP3    H124481   0.458   6.654  13.734  0.6801  0.9237 -0.4552
 1022TIP3    H224482   0.314   6.665  13.781  0.1147 -0.8263 -1.6844
 1023TIP3   OH224483   2.675   3.533  14.123 -0.3821  0.8300  0.3973
 1023TIP3    H124484   2.770   3.529  14.111 -0.0266 -0.5382  3.0695
 1023TIP3    H224485   2.657   3.626  14.134  0.4961  1.1855 -0.8063
 1024TIP3   OH224486   4.866   6.075   0.110 -0.0316  0.3741 -0.5613
 1024TIP3    H124487   4.910   6.122   0.180  0.4082  0.1630 -0.6900
 1024TIP3    H224488   4.773   6.093   0.123  0.0679  0.5500 -0.0854
 1025TIP3   OH224489   0.946   2.350  14.388  0.3690 -0.4583  0.0979
 1025TIP3    H124490   0.856   2.316  14.394  0.2987 -0.2903  0.0062
 1025TIP3    H224491   0.943   2.432  14.436 -0.7258  1.9774 -3.7097
 1026TIP3   OH224492   0.961   6.654   1.723 -0.4199 -0.0070 -0.4420
 1026TIP3    H124493   0.931   6.593   1.790  0.7039 -0.9289 -0.7579
 1026TIP3    H224494   0.980   6.600   1.647  0.0087  0.8168 -0.9389
 1027TIP3   OH224495   0.572   5.389   2.040  0.6227  0.5629 -0.3234
 1027TIP3    H124496   0.559   5.482   2.058  1.4934  0.7961 -0.8359
 1027TIP3    H224497   0.503   5.367   1.977 -0.0939  0.6474  0.4102
 1028TIP3   OH224498   3.072   5.737  14.158 -0.6063 -0.0081  0.3021
 1028TIP3    H124499   3.106   5.775  14.076  2.1270 -0.8478  0.9333
 1028TIP3    H224500   2.994   5.789  14.178  0.4051  2.2647 -1.2103
 1029TIP3   OH224501   0.168   1.292   3.484 -0.0836  0.3091  0.3628
 1029TIP3    H124502   0.152   1.338   3.402  1.3797 -0.1664 -0.2162
 1029TIP3    H224503   0.132   1.204   3.470 -0.4223  0.4275  0.4774
 1030TIP3   OH224504   5.906   4.968   1.701 -0.0712 -0.2296 -0.4542
 1030TIP3    H124505   5.844   5.034   1.731 -1.4411 -1.4246 -0.5409
 1030TIP3    H224506   5.859   4.921   1.632 -0.0728 -2.8014  1.1645
 1031TIP3   OH224507   5.936   2.596  14.704 -0.0463 -0.2816  0.4284
 1031TIP3    H124508   5.999   2.571  14.772  0.6600 -2.1796 -0.8352
 1031TIP3    H224509   5.949   2.531  14.635 -0.0919  2.0700 -1.9339
 1032TIP3   OH224510   3.515   4.908   5.095 -0.1190 -0.4802  0.0706
 1032TIP3    H124511   3.592   4.868   5.052  0.3922  0.3855  0.1688
 1032TIP3    H224512   3.469   4.952   5.024  1.1560  1.6394  0.4771
 1033TIP3   OH224513   4.683   2.468  15.913  0.3004 -0.4097  0.7095
 1033TIP3    H124514   4.764   2.479  15.962 -0.2598 -0.3065  1.6257
 1033TIP3    H224515   4.614   2.495  15.973 -0.3890 -0.0411 -0.2143
 1034TIP3   OH224516   5.648   2.934  16.580 -0.2987  0.1697  0.0496
 1034TIP3    H124517   5.728   2.882  16.569 -0.3254  0.2668 -0.5969
 1034TIP3    H224518   5.586   2.873  16.620  0.6761  0.6146  2.4420
 1035TIP3   OH224519   4.036   5.040   5.660  0.7152 -0.0350 -0.1043
 1035TIP3    H124520   3.946   5.072   5.668  0.6268  0.0781 -1.3520
 1035TIP3    H224521   4.083   5.111   5.616  1.1609 -0.5200 -0.4196
 1036TIP3   OH224522   4.923   4.168  16.284  0.5087  0.3079 -0.1049
 1036TIP3    H124523   4.869   4.105  16.333 -0.0076  0.5928 -0.2949
 1036TIP3    H224524   4.864   4.242  16.269  1.5532  1.5245  1.4723
 1037TIP3   OH224525   6.381   5.275  13.175 -0.3694 -0.2319  0.3662
 1037TIP3    H124526   6.312   5.210  13.182  0.2932 -0.9553  0.3685
 1037TIP3    H224527   6.451   5.243  13.232 -0.2938  0.8371  0.8957
 1038TIP3   OH224528   6.421   5.853  16.518 -0.6872 -0.1328  0.8894
 1038TIP3    H124529   6.373   5.904  16.583 -2.1441  1.2820 -1.1496
 1038TIP3    H224530   6.378   5.875  16.435  2.0754 -0.5916 -0.7791
 1039TIP3   OH224531   3.327   0.184   5.934 -0.1066  0.0001 -0.5049
 1039TIP3    H124532   3.312   0.256   5.995  1.5598 -1.4237  1.7118
 1039TIP3    H224533   3.395   0.216   5.875  2.0889 -0.2905  1.6865
 1040TIP3   OH224534   0.084   4.518  11.494 -0.3111 -0.3665 -0.4669
 1040TIP3    H124535   0.175   4.542  11.481 -0.4716  2.0255  1.9475
 1040TIP3    H224536   0.043   4.531  11.409  0.9231  2.1972 -0.7539
 1041TIP3   OH224537   3.823   3.484   1.536  0.3261 -0.0471  0.4655
 1041TIP3    H124538   3.801   3.543   1.465 -0.8679 -1.5332 -0.4513
 1041TIP3    H224539   3.839   3.400   1.493 -0.2274 -0.9316  1.9241
 1042TIP3   OH224540   4.252   3.660  12.102 -0.3317 -0.2833 -0.1090
 1042TIP3    H124541   4.264   3.734  12.160  0.2141 -1.0315  0.7418
 1042TIP3    H224542   4.293   3.686  12.020  2.0976 -0.5795  0.9489
 1043TIP3   OH224543   1.868   1.377   3.330 -0.2610 -0.2260  0.1592
 1043TIP3    H124544   1.913   1.374   3.245  0.7641  2.2369  0.5321
 1043TIP3    H224545   1.926   1.328   3.388  0.3937  0.2933 -0.0338
 1044TIP3   OH224546   3.093   1.610  14.475 -0.5367  0.0767 -0.9529
 1044TIP3    H124547   3.178   1.651  14.459 -0.6357 -0.0499 -1.8317
 1044TIP3    H224548   3.055   1.599  14.388 -1.5209  0.2693 -0.5586
 1045TIP3   OH224549   4.126   0.644  11.576 -0.2344  0.5949  0.3483
 1045TIP3    H124550   4.061   0.658  11.507 -0.2334  1.9058  0.5877
 1045TIP3    H224551   4.078   0.659  11.658  0.4731  2.1640  0.5113
 1046TIP3   OH224552   1.816   1.835  11.739  0.2219  0.2181  0.2122
 1046TIP3    H124553   1.889   1.892  11.716 -1.2255  1.9632 -0.3384
 1046TIP3    H224554   1.849   1.778  11.808  2.8285 -0.7955 -1.6943
 1047TIP3   OH224555   1.123   4.714  14.429 -0.0171 -0.9296 -0.3806
 1047TIP3    H124556   1.060   4.723  14.501  0.6331 -0.8038  0.1822
 1047TIP3    H224557   1.106   4.789  14.372 -1.7173 -1.9531 -1.3118
 1048TIP3   OH224558   3.368   0.814  14.824  0.5990 -0.4593  0.5943
 1048TIP3    H124559   3.282   0.774  14.829  0.6676 -0.5534  1.1640
 1048TIP3    H224560   3.395   0.824  14.916  0.8592  0.2892  0.4405
 1049TIP3   OH224561   6.348   0.916   3.299  0.4319 -0.0977 -0.3506
 1049TIP3    H124562   6.419   0.958   3.251  0.3363  2.5201  1.6153
 1049TIP3    H224563   6.390   0.882   3.378 -0.2142  0.0329  0.0503
 1050TIP3   OH224564   6.357   1.338  11.014 -0.3290 -0.3398 -0.1026
 1050TIP3    H124565   6.296   1.317  10.943  0.0815  1.2463 -0.9821
 1050TIP3    H224566   6.439   1.359  10.968  0.0076  0.5040  0.8551
 1051TIP3   OH224567   3.707   2.585  16.376 -0.3215 -0.4042  0.1500
 1051TIP3    H124568   3.778   2.522  16.376  1.0224  0.9844  2.2907
 1051TIP3    H224569   3.730   2.649  16.309 -0.7919 -1.1871 -0.7848
 1052TIP3   OH224570   4.398   1.861   4.082 -0.0125  0.4057 -0.0580
 1052TIP3    H124571   4.389   1.766   4.088 -1.8361  0.4778 -0.8611
 1052TIP3    H224572   4.426   1.888   4.169 -1.7673 -0.6766  0.9161
 1053TIP3   OH224573   4.504   3.655   5.681 -0.3132 -0.0579  0.3596
 1053TIP3    H124574   4.477   3.594   5.612  1.3701  2.3919 -2.7153
 1053TIP3    H224575   4.431   3.716   5.687  0.4692  1.0968 -1.1069
 1054TIP3   OH224576   5.268   2.902  12.802 -0.1248 -0.9840  0.1435
 1054TIP3    H124577   5.202   2.940  12.744  0.9701  0.3510 -0.2805
 1054TIP3    H224578   5.262   2.953  12.883  0.8315 -0.3968 -0.1440
 1055TIP3   OH224579   6.000   5.225  14.943  0.2332 -0.0057 -0.6616
 1055TIP3    H124580   6.003   5.303  14.888 -1.3672  0.4240 -0.1935
 1055TIP3    H224581   5.926   5.240  15.002  1.1013 -1.0134  0.7544
 1056TIP3   OH224582   1.823   0.204   5.532 -0.5073  0.0697  0.1424
 1056TIP3    H124583   1.873   0.273   5.576 -1.3960  0.5992  0.3553
 1056TIP3    H224584   1.745   0.193   5.587  0.3634 -2.2650  1.0387
 1057TIP3   OH224585   0.316   0.763   5.046 -0.3196  0.1136  0.1016
 1057TIP3    H124586   0.263   0.825   5.095  0.4649  2.2501 -1.5699
 1057TIP3    H224587   0.397   0.811   5.026  0.1998 -1.3223 -1.5454
 1058TIP3   OH224588   5.572   4.225  17.142  0.1298 -0.3922 -0.0769
 1058TIP3    H124589   5.564   4.164  17.070  0.1472 -0.9627  0.3950
 1058TIP3    H224590   5.623   4.298  17.107  0.3779 -0.7934 -0.5511
 1059TIP3   OH224591   1.840   6.117  14.035  0.2857 -0.5237 -0.5859
 1059TIP3    H124592   1.802   6.200  14.007  0.7297 -0.4535 -0.9965
 1059TIP3    H224593   1.842   6.123  14.130 -1.7725 -1.0053 -0.4669
 1060TIP3   OH224594   1.691   0.116  14.781 -0.4071 -0.4701 -0.1787
 1060TIP3    H124595   1.647   0.057  14.843  0.7699  0.0485  1.1983
 1060TIP3    H224596   1.777   0.076  14.768 -0.6865 -0.6491 -1.6330
 1061TIP3   OH224597   0.528   5.681   1.973 -0.1047  0.0522  0.1225
 1061TIP3    H124598   0.593   5.676   1.903 -1.4426  0.8079 -1.2414
 1061TIP3    H224599   0.533   5.770   2.005  0.6425 -0.3483  1.1625
 1062TIP3   OH224600   0.701   5.873   5.466 -0.2871 -0.4008  0.3757
 1062TIP3    H124601   0.746   5.955   5.445 -0.9611 -0.0707  0.1854
 1062TIP3    H224602   0.618   5.901   5.505 -0.0616 -1.0028  1.3163
 1063TIP3   OH224603   4.611   4.475  14.658 -0.4345  0.3883 -0.0387
 1063TIP3    H124604   4.616   4.417  14.734  2.2403  0.4672 -0.0810
 1063TIP3    H224605   4.519   4.503  14.656 -0.8109 -0.3892  2.5451
 1064TIP3   OH224606   6.322   4.732   5.384 -0.8175  0.2328 -0.5417
 1064TIP3    H124607   6.314   4.638   5.366 -0.6813  0.5111 -2.2059
 1064TIP3    H224608   6.412   4.753   5.359  0.3253  0.2082  3.0189
 1065TIP3   OH224609   1.426   3.280   1.519 -0.5330 -0.1721  0.0038
 1065TIP3    H124610   1.487   3.317   1.583  0.4328  1.5230 -1.7994
 1065TIP3    H224611   1.342   3.322   1.539 -0.8987 -1.6030  1.7237
 1066TIP3   OH224612   5.168   3.313  16.031  0.0486 -0.6792 -0.0561
 1066TIP3    H124613   5.080   3.310  16.070 -1.2355 -0.3939 -2.6749
 1066TIP3    H224614   5.199   3.402  16.048 -0.8055 -0.3190 -0.3343
 1067TIP3   OH224615   5.897   6.104  16.763 -0.3569  0.4351  0.6814
 1067TIP3    H124616   5.934   6.191  16.748 -3.7460  2.1003  1.1712
 1067TIP3    H224617   5.823   6.119  16.822 -0.1010 -3.0541  2.1100
 1068TIP3   OH224618   6.239   3.381  17.203  0.0423  0.5411 -0.8859
 1068TIP3    H124619   6.285   3.368  17.285 -0.7008  0.8295 -0.4133
 1068TIP3    H224620   6.297   3.344  17.137  0.6134  0.2375 -0.2269
 1069TIP3   OH224621   2.307   0.727   3.027  0.0476  0.2781  0.0756
 1069TIP3    H124622   2.376   0.678   3.071 -0.0697 -0.0660 -0.1223
 1069TIP3    H224623   2.329   0.721   2.934 -0.6229 -0.4163 -0.0436
 1070TIP3   OH224624   0.539   6.099   0.260  0.6850  1.0002 -0.0524
 1070TIP3    H124625   0.562   6.074   0.350  0.0175  2.7063  0.6373
 1070TIP3    H224626   0.559   6.021   0.208  1.5202  0.1177  1.4954
 1071TIP3   OH224627   2.993   4.873   0.359  0.1829 -0.2758  0.0764
 1071TIP3    H124628   2.994   4.793   0.305  0.8323  0.4997 -1.0952
 1071TIP3    H224629   3.034   4.939   0.304 -0.7370  0.9887  0.8691
 1072TIP3   OH224630   2.741   3.792   0.900  0.2587 -0.0895 -0.6257
 1072TIP3    H124631   2.738   3.697   0.909  1.0525 -0.0483  0.1998
 1072TIP3    H224632   2.834   3.814   0.908  0.2154  0.6638 -1.9528
 1073TIP3   OH224633   3.832   3.840   3.889  0.2982  0.3494 -0.0175
 1073TIP3    H124634   3.903   3.888   3.847 -0.5977  1.2986 -0.4857
 1073TIP3    H224635   3.770   3.822   3.819 -0.4329  0.4690  0.5857
 1074TIP3   OH224636   4.811   1.652  11.303 -0.2510  0.4584  0.4228
 1074TIP3    H124637   4.871   1.724  11.319 -0.5603  0.9596 -0.5713
 1074TIP3    H224638   4.772   1.633  11.388  2.2282 -0.7541  1.3853
 1075TIP3   OH224639   4.437   5.990   4.326 -0.1754  0.0826 -0.1877
 1075TIP3    H124640   4.411   6.045   4.399  0.7836 -0.4624  0.5880
 1075TIP3    H224641   4.452   5.904   4.364 -0.0070 -0.3029 -1.0871
 1076TIP3   OH224642   1.941   0.268   6.391  0.2592 -0.3766  0.0425
 1076TIP3    H124643   1.905   0.337   6.447  0.1289  0.5964 -1.2186
 1076TIP3    H224644   1.938   0.190   6.446 -1.9480  0.0723  0.6503
 1077TIP3   OH224645   3.428   3.816  17.101  0.0798 -0.3954 -0.3942
 1077TIP3    H124646   3.405   3.909  17.105 -1.2631 -0.7245  0.3980
 1077TIP3    H224647   3.358   3.773  17.150  1.0102 -1.7717 -0.2278
 1078TIP3   OH224648   5.839   4.418   6.086 -0.1999 -0.1067 -0.0919
 1078TIP3    H124649   5.912   4.384   6.138 -0.2698 -1.3123 -0.7365
 1078TIP3    H224650   5.767   4.358   6.105 -0.2162 -0.5991 -1.5800
 1079TIP3   OH224651   3.105   3.106   3.616 -0.3466  0.1861  1.0023
 1079TIP3    H124652   3.106   3.058   3.698  0.8646 -1.9392 -0.1487
 1079TIP3    H224653   3.139   3.043   3.551 -1.1792  1.7729 -1.1073
 1080TIP3   OH224654   2.632   5.786   4.140 -0.0511  0.5173 -0.0568
 1080TIP3    H124655   2.690   5.721   4.180 -0.8596  0.2362  0.6831
 1080TIP3    H224656   2.644   5.774   4.046 -0.6977 -1.1939  0.0521
 1081TIP3   OH224657   1.288   5.798   2.944  0.1024  0.0031 -0.1213
 1081TIP3    H124658   1.367   5.794   2.998  0.4747 -0.8255 -0.7107
 1081TIP3    H224659   1.217   5.778   3.005  0.0634  2.8713  0.9036
 1082TIP3   OH224660   2.733   1.964  13.573 -0.4381  0.2467 -0.7231
 1082TIP3    H124661   2.824   1.988  13.595  0.0441 -1.8600 -0.1943
 1082TIP3    H224662   2.709   2.025  13.503  1.2611  1.0927 -0.6339
 1083TIP3   OH224663   6.252   1.648  12.414 -0.3846 -0.1825 -0.4462
 1083TIP3    H124664   6.201   1.727  12.427  0.9054  0.4689  1.0496
 1083TIP3    H224665   6.188   1.577  12.409 -1.4884  0.8138 -0.6152
 1084TIP3   OH224666   0.408   0.226   0.113  0.5797  0.0409  0.2375
 1084TIP3    H124667   0.324   0.240   0.158 -0.4874 -2.1332 -0.9319
 1084TIP3    H224668   0.397   0.268   0.028  0.8908  0.2348  0.2930
 1085TIP3   OH224669   3.944   0.115   2.567  0.0249 -0.3340  0.4253
 1085TIP3    H124670   3.911   0.071   2.645  0.6915 -1.5231  0.0634
 1085TIP3    H224671   3.887   0.083   2.497 -0.4514  0.5805  0.3786
 1086TIP3   OH224672   0.325   0.913   0.703  0.0815 -0.1994 -0.0242
 1086TIP3    H124673   0.302   0.895   0.612  3.5481 -2.4356 -0.6394
 1086TIP3    H224674   0.368   0.999   0.701  1.2255 -0.7700 -0.7700
 1087TIP3   OH224675   4.146   2.814  12.190 -0.3970  0.2094 -0.3753
 1087TIP3    H124676   4.059   2.852  12.178 -0.3848  0.2948 -0.1975
 1087TIP3    H224677   4.196   2.882  12.236 -0.7220 -0.4850  1.0194
 1088TIP3   OH224678   4.363   6.413   1.356  0.0255 -0.1275 -0.3283
 1088TIP3    H124679   4.380   6.461   1.275  0.5379 -1.7629 -1.2358
 1088TIP3    H224680   4.313   6.473   1.410 -0.4479  0.9526 -1.9202
 1089TIP3   OH224681   6.048   0.008  15.163  0.4448  0.0706 -0.0800
 1089TIP3    H124682   6.126   0.028  15.111  1.3703  0.1617  1.2725
 1089TIP3    H224683   6.067   0.046  15.249 -0.6630 -0.7860  0.5718
 1090TIP3   OH224684   0.809   2.669  16.710 -0.3544 -0.3020  0.1888
 1090TIP3    H124685   0.865   2.597  16.740 -2.2480 -1.3213  1.5491
 1090TIP3    H224686   0.757   2.630  16.639  0.5914  0.6093 -1.0264
 1091TIP3   OH224687   4.045   6.487   2.274 -0.2206  0.1415  0.0169
 1091TIP3    H124688   4.062   6.553   2.342 -2.0260  1.5473 -0.8255
 1091TIP3    H224689   3.955   6.457   2.291 -0.9587  0.9941 -2.0895
 1092TIP3   OH224690   2.277   4.797  11.715  0.1099  0.0058  0.3524
 1092TIP3    H124691   2.342   4.860  11.683 -1.5234  1.8798  0.4978
 1092TIP3    H224692   2.253   4.747  11.637  1.1783 -0.2101  0.1442
 1093TIP3   OH224693   0.532   0.564   1.826  0.1499 -0.6207 -0.2953
 1093TIP3    H124694   0.595   0.571   1.898  2.2243  0.7799 -2.1151
 1093TIP3    H224695   0.473   0.493   1.852  2.1426 -1.6398  1.7777
 1094TIP3   OH224696   5.888   5.196   4.512 -0.2831  0.6120 -0.3698
 1094TIP3    H124697   5.860   5.121   4.459  0.9967 -0.0859 -0.1086
 1094TIP3    H224698   5.851   5.272   4.467  0.9753  0.0840 -2.4890
 1095TIP3   OH224699   5.284   1.159   1.049  0.0171 -0.1947  0.3221
 1095TIP3    H124700   5.338   1.200   1.117 -0.6078  0.5011  0.4097
 1095TIP3    H224701   5.227   1.098   1.097 -1.1039  1.0083  0.5609
 1096TIP3   OH224702   5.914   5.198   1.483  0.0756  0.1714 -0.1355
 1096TIP3    H124703   5.850   5.171   1.418  0.0260 -0.7939  0.2925
 1096TIP3    H224704   5.983   5.132   1.478  0.9731  1.1157 -0.4884
 1097TIP3   OH224705   1.176   2.962  11.845 -0.2105  0.4645  0.3561
 1097TIP3    H124706   1.258   3.012  11.843 -1.0273  1.8244 -0.4990
 1097TIP3    H224707   1.152   2.951  11.753  0.3229 -2.2194  0.4607
 1098TIP3   OH224708   1.482   2.031   2.040 -0.4248  0.3457  0.0314
 1098TIP3    H124709   1.494   2.101   1.975  1.8248  0.4651  0.4925
 1098TIP3    H224710   1.525   1.955   2.000 -1.3862 -0.3327  0.2589
 1099TIP3   OH224711   2.968   5.841   0.548  0.0755 -0.3424  0.4963
 1099TIP3    H124712   2.930   5.928   0.550  0.0211 -0.3772  0.9426
 1099TIP3    H224713   3.045   5.847   0.604 -0.1432 -0.6837  0.8357
 1100TIP3   OH224714   0.874   2.487  11.706 -0.8587  0.0759 -0.1473
 1100TIP3    H124715   0.821   2.439  11.771  0.3433  0.6383  1.3114
 1100TIP3    H224716   0.906   2.563  11.754  1.0433 -0.1157 -1.0490
 1101TIP3   OH224717   6.780   0.046  10.512  0.2567  0.1961  0.3231
 1101TIP3    H124718   6.724   0.012  10.582 -1.9531  0.9966 -0.9478
 1101TIP3    H224719   6.789  -0.026  10.451  0.9384 -0.0424  0.6977
 1102TIP3   OH224720   0.798   2.726   0.227  0.0649 -0.0985 -0.0478
 1102TIP3    H124721   0.888   2.697   0.213 -0.7668 -2.3757 -1.1283
 1102TIP3    H224722   0.751   2.647   0.255 -1.8539  0.7309 -0.7400
 1103TIP3   OH224723   2.778   5.587   1.458  0.1762 -0.3757 -0.2035
 1103TIP3    H124724   2.733   5.521   1.510  0.4292 -1.5673 -1.4292
 1103TIP3    H224725   2.781   5.664   1.514 -1.0968 -1.0610  0.8638
 1104TIP3   OH224726   6.548   5.245  13.392 -0.0910  0.5588 -0.5127
 1104TIP3    H124727   6.568   5.152  13.387 -1.4705  0.2699 -1.5876
 1104TIP3    H224728   6.628   5.286  13.424  0.4297 -1.0264  0.2892
 1105TIP3   OH224729   0.465   0.109   3.744  0.3782  0.1909  0.2748
 1105TIP3    H124730   0.504   0.092   3.658  0.6438 -0.4272  0.5079
 1105TIP3    H224731   0.538   0.136   3.799  0.7686 -2.1534  1.0383
 1106TIP3   OH224732   0.888   1.549   4.364  0.0643 -0.4926  0.4736
 1106TIP3    H124733   0.812   1.516   4.317  0.8413  0.2152 -1.4072
 1106TIP3    H224734   0.853   1.612   4.426 -0.8188  1.2885 -1.6886
 1107TIP3   OH224735   1.928   1.582  14.812 -0.2649 -0.3139 -0.1134
 1107TIP3    H124736   1.971   1.519  14.754  0.2784 -1.4544  1.4485
 1107TIP3    H224737   1.978   1.663  14.801 -0.0607 -0.5577 -1.0827
 1108TIP3   OH224738   6.277   0.811  15.296  0.4837 -0.4081 -0.5088
 1108TIP3    H124739   6.195   0.795  15.249  0.0098 -0.9701  0.4817
 1108TIP3    H224740   6.342   0.758  15.251  0.2457 -0.1820 -1.1268
 1109TIP3   OH224741   3.913   0.941  11.583  0.0057 -0.3639 -0.1307
 1109TIP3    H124742   3.894   0.959  11.491 -1.7246 -0.8641  0.0929
 1109TIP3    H224743   3.885   0.851  11.597  0.4812 -0.3799  0.8338
 1110TIP3   OH224744   4.916   2.285  10.711 -0.3179 -0.0442  0.3040
 1110TIP3    H124745   4.916   2.380  10.721 -0.5289  0.1571 -1.2832
 1110TIP3    H224746   5.009   2.262  10.703 -0.2891  0.0978  0.2254
 1111TIP3   OH224747   0.049   4.125   1.875 -0.0760 -0.1886 -0.7789
 1111TIP3    H124748   0.142   4.121   1.857 -0.1946 -0.8599 -1.2647
 1111TIP3    H224749   0.041   4.099   1.967  0.3292  1.2002 -0.3227
 1112TIP3   OH224750   3.295   4.668  15.061 -0.1194 -0.5695 -0.5295
 1112TIP3    H124751   3.270   4.724  15.135  3.7641 -0.1451  0.7024
 1112TIP3    H224752   3.215   4.620  15.039 -1.9107  0.5751  2.7642
 1113TIP3   OH224753   5.074   0.087   0.137  0.2188  0.1418  0.2600
 1113TIP3    H124754   5.105   0.102   0.226 -0.0571  0.1751  0.3506
 1113TIP3    H224755   5.086  -0.007   0.123  0.9006  0.2537  0.0892
 1114TIP3   OH224756   4.443   4.105  12.817 -0.1080  0.4474 -0.0973
 1114TIP3    H124757   4.498   4.180  12.838  1.0321  0.1493 -1.8443
 1114TIP3    H224758   4.361   4.122  12.863  1.4733  0.7462  2.9002
 1115TIP3   OH224759   2.458   0.852   4.017  0.5385 -0.7057 -0.1806
 1115TIP3    H124760   2.481   0.768   4.057 -0.9772 -0.8396  0.4849
 1115TIP3    H224761   2.484   0.917   4.083  0.7712 -0.7249 -0.2542
 1116TIP3   OH224762   5.962   5.941   2.396  0.2955 -0.2376  0.3864
 1116TIP3    H124763   5.876   5.981   2.415 -0.1236 -2.1732  3.1746
 1116TIP3    H224764   6.025   6.011   2.413 -0.5936  0.3484  1.4048
 1117TIP3   OH224765   2.659   0.740  11.621 -0.8619 -0.5443  0.1436
 1117TIP3    H124766   2.646   0.741  11.527  0.0310 -0.0884  0.0142
 1117TIP3    H224767   2.712   0.662  11.638 -0.2238 -0.1258  0.1384
 1118TIP3   OH224768   4.762   3.476  11.221  0.5627 -0.5817  0.3356
 1118TIP3    H124769   4.727   3.387  11.228 -2.5867  0.6320  1.8992
 1118TIP3    H224770   4.837   3.476  11.281  1.8578 -2.6041 -1.1330
 1119TIP3   OH224771   4.817   2.911   1.009 -0.1326  0.2051 -0.0054
 1119TIP3    H124772   4.873   2.976   1.052 -0.5807  0.2224  0.5707
 1119TIP3    H224773   4.849   2.827   1.042 -1.0129  0.2574  1.0493
 1120TIP3   OH224774   3.476   5.234   5.626  0.2751 -0.2212  0.2080
 1120TIP3    H124775   3.485   5.156   5.679  2.1121  0.0664  0.3837
 1120TIP3    H224776   3.405   5.214   5.565  1.5872 -2.5667 -0.6583
 1121TIP3   OH224777   2.571   3.502   4.547  0.1223 -0.1212  0.1717
 1121TIP3    H124778   2.656   3.534   4.577  1.3085 -1.4766 -1.4993
 1121TIP3    H224779   2.574   3.514   4.452 -2.5615  2.0080  0.2385
 1122TIP3   OH224780   3.949   4.376  16.465  0.4093 -0.0001 -0.0159
 1122TIP3    H124781   4.040   4.395  16.442  0.8572 -1.4191  0.5189
 1122TIP3    H224782   3.954   4.322  16.543 -0.8280 -1.3310 -0.8081
 1123TIP3   OH224783   1.460   1.965   3.997  0.0368  0.2883  0.0058
 1123TIP3    H124784   1.492   1.943   4.085  2.3854  1.0577 -0.5823
 1123TIP3    H224785   1.515   1.914   3.938 -0.3965  1.0341 -1.0799
 1124TIP3   OH224786   5.433   4.594   5.618  0.3901  0.0804 -0.2821
 1124TIP3    H124787   5.349   4.587   5.572  0.9508  1.5950 -1.6342
 1124TIP3    H224788   5.419   4.546   5.699 -1.7623  0.1866 -0.5107
 1125TIP3   OH224789   2.149   1.661   0.069  0.1485  0.5502 -0.4685
 1125TIP3    H124790   2.172   1.628  -0.018  0.3423 -1.5033  0.3156
 1125TIP3    H224791   2.075   1.606   0.096 -1.8838  3.0646 -0.4681
 1126TIP3   OH224792   1.287   1.087  16.642  0.0525 -0.1725 -0.2560
 1126TIP3    H124793   1.228   1.115  16.712 -2.4944 -2.5498 -1.2867
 1126TIP3    H224794   1.334   1.013  16.678 -0.0775 -0.3833 -0.5117
 1127TIP3   OH224795   5.665   0.708  13.926 -0.2328  0.0081 -0.3399
 1127TIP3    H124796   5.742   0.681  13.876 -1.1660 -1.5104 -1.0098
 1127TIP3    H224797   5.697   0.780  13.981  1.5901 -0.4057 -0.7838
 1128TIP3   OH224798   1.661   1.750  11.435  0.6547  0.4718 -0.3352
 1128TIP3    H124799   1.600   1.705  11.377  1.2941 -0.3030 -0.4213
 1128TIP3    H224800   1.671   1.691  11.510  1.0779  0.7170 -0.1953
 1129TIP3   OH224801   3.384   6.494   4.439 -0.5369  0.3164 -0.4330
 1129TIP3    H124802   3.429   6.426   4.389  3.4026  1.6892  0.8492
 1129TIP3    H224803   3.330   6.540   4.375 -0.5149 -1.7591 -2.0438
 1130TIP3   OH224804   1.428   2.177   5.081 -0.1686  0.3872 -0.0931
 1130TIP3    H124805   1.484   2.141   5.150 -1.5873  0.5378  1.1938
 1130TIP3    H224806   1.339   2.159   5.111 -0.9788  4.1714  0.2975
 1131TIP3   OH224807   5.502   0.467  15.056 -0.6600 -0.0220 -0.1435
 1131TIP3    H124808   5.531   0.545  15.008  0.1629 -0.8662 -1.0802
 1131TIP3    H224809   5.426   0.437  15.007 -0.5455 -0.2078 -0.2069
 1132TIP3   OH224810   3.272   4.675  12.411 -0.1324 -0.1691 -0.1034
 1132TIP3    H124811   3.340   4.669  12.344  0.1494 -1.7933  0.2943
 1132TIP3    H224812   3.291   4.603  12.472 -1.9418 -0.3986  0.2554
 1133TIP3   OH224813   5.666   1.806   4.659  0.5034 -0.2718  1.0737
 1133TIP3    H124814   5.606   1.781   4.729 -1.4072  0.1943 -0.3196
 1133TIP3    H224815   5.638   1.754   4.583  1.1786  0.7187  0.1122
 1134TIP3   OH224816   3.458   1.369   6.254 -0.0173 -0.3212  0.1550
 1134TIP3    H124817   3.517   1.301   6.287 -0.0873 -0.1450  0.6626
 1134TIP3    H224818   3.436   1.420   6.332 -0.8047 -0.3559 -0.0389
 1135TIP3   OH224819   6.732   1.936  11.177  0.8514  0.0584  0.4986
 1135TIP3    H124820   6.746   1.957  11.085 -0.4224  2.4397  0.7734
 1135TIP3    H224821   6.758   2.015  11.224 -0.3427 -0.4182  2.0327
 1136TIP3   OH224822   5.198   3.422   2.770  0.9000 -0.2251 -0.3697
 1136TIP3    H124823   5.221   3.374   2.850  0.5750 -0.2033 -0.2603
 1136TIP3    H224824   5.109   3.454   2.787  1.6178  1.6228  0.1582
 1137TIP3   OH224825   5.555   5.793  14.925 -0.1842  0.0707 -0.6054
 1137TIP3    H124826   5.640   5.761  14.895  0.0451 -1.6447  1.6082
 1137TIP3    H224827   5.492   5.731  14.888 -0.0011 -1.3415  1.2749
 1138TIP3   OH224828   1.427   4.867   0.505  0.0034  0.5540  0.5957
 1138TIP3    H124829   1.391   4.799   0.563  0.1580  0.5512  0.6900
 1138TIP3    H224830   1.516   4.838   0.487  0.4295  1.2496  1.4764
 1139TIP3   OH224831   6.665   1.910   4.046 -0.9905 -0.2813  0.0154
 1139TIP3    H124832   6.754   1.887   4.021 -1.1040  0.0590 -0.7252
 1139TIP3    H224833   6.627   1.829   4.079 -1.0305 -0.8925 -1.4922
 1140TIP3   OH224834   1.118   0.218  16.462 -0.4410  0.4053  0.3392
 1140TIP3    H124835   1.046   0.155  16.456 -0.4161  0.4167 -0.1206
 1140TIP3    H224836   1.085   0.296  16.416 -0.7846  1.0286  1.5915
 1141TIP3   OH224837   1.969   3.087   3.759 -0.2962  0.1399  0.3224
 1141TIP3    H124838   1.908   3.151   3.795  0.8775  2.0170 -0.8584
 1141TIP3    H224839   1.917   3.038   3.695 -1.2668 -0.2874  1.4134
 1142TIP3   OH224840   1.179   3.157   0.136 -0.6916 -0.3032  0.4935
 1142TIP3    H124841   1.184   3.078   0.191 -0.6092  0.1783  1.1937
 1142TIP3    H224842   1.155   3.227   0.197  0.7653  0.5068  0.1693
 1143TIP3   OH224843   2.307   5.571   5.979 -0.1178 -0.3835 -0.1938
 1143TIP3    H124844   2.222   5.598   5.944 -0.0096 -0.7719 -0.7678
 1143TIP3    H224845   2.361   5.555   5.901  0.4849 -0.1331  0.1627
 1144TIP3   OH224846   3.031   6.357   4.254  0.0432 -0.5111  0.3621
 1144TIP3    H124847   3.010   6.439   4.208  0.9935  0.1818  1.1167
 1144TIP3    H224848   3.002   6.288   4.195 -2.9749  0.3328  0.6795
 1145TIP3   OH224849   3.796   2.080  10.841 -0.1705 -0.6795  0.7022
 1145TIP3    H124850   3.717   2.131  10.859  0.7544  2.3932 -2.7013
 1145TIP3    H224851   3.768   2.013  10.779 -0.2723  0.1905 -0.2304
 1146TIP3   OH224852   6.345   5.363   4.039 -0.2741 -0.1197 -0.6041
 1146TIP3    H124853   6.299   5.442   4.068  1.7445  1.2344 -0.8783
 1146TIP3    H224854   6.406   5.394   3.972  1.7137 -1.6291  0.4033
 1147TIP3   OH224855   1.223   6.219  11.390  0.4584  0.3217  0.4565
 1147TIP3    H124856   1.317   6.209  11.378  0.0898 -2.1813 -1.1420
 1147TIP3    H224857   1.198   6.144  11.445 -0.8936 -0.5885 -1.2962
 1148TIP3   OH224858   1.110   1.408   3.401 -0.2840  0.5289 -0.4608
 1148TIP3    H124859   1.144   1.319   3.403  1.5193  1.1502  2.3966
 1148TIP3    H224860   1.047   1.411   3.473  0.6896  1.8405  0.3945
 1149TIP3   OH224861   3.056   3.337   0.457  0.0120  0.3414  0.1124
 1149TIP3    H124862   3.051   3.243   0.442  0.1451  0.4182 -0.4367
 1149TIP3    H224863   3.106   3.346   0.537 -0.8399 -0.0901  0.7085
 1150TIP3   OH224864   4.756   2.031   4.064  0.1445  0.1582  0.8716
 1150TIP3    H124865   4.779   2.097   3.998  1.1009 -1.5469 -0.5921
 1150TIP3    H224866   4.764   2.077   4.147  1.6779  1.6831 -0.0442
 1151TIP3   OH224867   2.838   1.887   1.020  0.7818  0.0153 -0.4734
 1151TIP3    H124868   2.802   1.814   0.969 -2.4851 -1.3581  3.2351
 1151TIP3    H224869   2.792   1.964   0.986  0.0258 -0.5607 -0.7859
 1152TIP3   OH224870   0.708   3.802  11.195 -0.3624  0.5682 -0.2846
 1152TIP3    H124871   0.734   3.884  11.152  1.7347 -0.2172 -0.6504
 1152TIP3    H224872   0.739   3.733  11.136 -0.0013 -0.5083  1.1079
 1153TIP3   OH224873   6.526   1.515   4.583 -0.2933  0.0821  0.3216
 1153TIP3    H124874   6.499   1.489   4.671  0.0106 -3.5665 -0.4924
 1153TIP3    H224875   6.621   1.525   4.590 -0.0457 -1.8608  0.1214
 1154TIP3   OH224876   5.487   1.720   1.425 -0.4335 -0.5121 -0.5745
 1154TIP3    H124877   5.504   1.796   1.370  0.9599 -1.2713 -1.2650
 1154TIP3    H224878   5.457   1.653   1.364  0.0684 -1.0346 -0.2557
 1155TIP3   OH224879   2.093   0.538  11.176 -0.8158  0.0300 -0.0449
 1155TIP3    H124880   2.054   0.520  11.261 -0.5313  1.7756  0.4908
 1155TIP3    H224881   2.018   0.551  11.117 -1.0103 -0.4563  0.0866
 1156TIP3   OH224882   2.887   6.555   4.042 -0.3230 -0.1896 -0.1710
 1156TIP3    H124883   2.877   6.560   3.946  0.7095  0.7001 -0.2472
 1156TIP3    H224884   2.800   6.576   4.076 -0.8398 -1.0533 -0.9158
 1157TIP3   OH224885   3.878   4.889   4.810 -0.1641  0.7265  0.0391
 1157TIP3    H124886   3.843   4.956   4.750  0.7874  1.2400  0.0498
 1157TIP3    H224887   3.938   4.837   4.756  0.2553  0.8294  0.4031
 1158TIP3   OH224888   1.999   2.104  12.061 -0.4720 -0.3903  0.3220
 1158TIP3    H124889   1.985   2.121  12.154  1.2661 -1.5133  0.8275
 1158TIP3    H224890   1.944   2.028  12.042  0.6222 -1.3436  0.9148
 1159TIP3   OH224891   2.889   4.806   1.444 -0.3068  0.1723  0.4301
 1159TIP3    H124892   2.878   4.829   1.352 -1.2853  0.8930  0.7145
 1159TIP3    H224893   2.810   4.838   1.487  0.4891  0.5722  1.6653
 1160TIP3   OH224894   3.750   3.165   1.009  0.0451  0.2393  0.2426
 1160TIP3    H124895   3.749   3.077   1.045 -2.7650 -0.2402 -0.7646
 1160TIP3    H224896   3.787   3.155   0.921  1.5403  0.4390  0.8253
 1161TIP3   OH224897   0.943   4.392  15.314  0.2154 -0.0363  0.6445
 1161TIP3    H124898   0.989   4.475  15.325  0.7469 -0.1453 -0.6141
 1161TIP3    H224899   1.001   4.327  15.352 -1.0197  0.3257  3.3560
 1162TIP3   OH224900   5.990   3.861   0.198  0.2604  0.1359 -0.5440
 1162TIP3    H124901   6.007   3.860   0.292 -2.9303 -0.1859  0.1413
 1162TIP3    H224902   6.001   3.953   0.172  1.8676  0.1097 -0.0764
 1163TIP3   OH224903   5.108   4.596   6.295 -0.4038  0.0898  0.5154
 1163TIP3    H124904   5.047   4.533   6.333 -1.0449  0.5035  0.1937
 1163TIP3    H224905   5.090   4.593   6.201 -0.5839  0.8985  0.5195
 1164TIP3   OH224906   4.956   3.422  16.428  0.2076 -0.0300 -0.0899
 1164TIP3    H124907   5.010   3.459  16.498  1.3161 -0.7008 -0.5629
 1164TIP3    H224908   4.867   3.422  16.463  0.8997 -1.5673  1.8665
 1165TIP3   OH224909   6.218   6.473  15.321 -0.7935  0.0341  0.5585
 1165TIP3    H124910   6.279   6.449  15.251 -2.1231  0.4902 -0.7930
 1165TIP3    H224911   6.240   6.563  15.343 -1.8903  0.7191 -0.9768
 1166TIP3   OH224912   0.730   3.281  13.428 -0.6050  0.1597  0.2056
 1166TIP3    H124913   0.730   3.187  13.446 -0.5911  0.5103  2.3067
 1166TIP3    H224914   0.747   3.288  13.334 -3.4136 -1.9920 -0.5917
 1167TIP3   OH224915   4.634   0.457   3.207  0.3098 -0.2687  1.0743
 1167TIP3    H124916   4.633   0.376   3.156 -1.4804  0.5599 -0.2703
 1167TIP3    H224917   4.720   0.456   3.250  2.2816 -0.6525 -2.5096
 1168TIP3   OH224918   4.344   3.060   4.928 -0.0210 -0.0136 -0.2358
 1168TIP3    H124919   4.373   3.131   4.985 -1.9427 -0.7370  1.7930
 1168TIP3    H224920   4.393   3.073   4.847  1.0039  2.5516  0.6817
 1169TIP3   OH224921   2.525   5.814  14.936  0.2538  0.3432  0.3981
 1169TIP3    H124922   2.518   5.865  14.856 -1.8937  0.9775  0.9360
 1169TIP3    H224923   2.482   5.731  14.916  1.7036 -0.4051  0.2407
 1170TIP3   OH224924   1.425   2.768   2.793 -0.3002  0.1175  0.0573
 1170TIP3    H124925   1.462   2.692   2.837 -1.5072 -1.0719 -0.8857
 1170TIP3    H224926   1.330   2.761   2.808 -0.4472  1.3684 -0.1569
 1171TIP3   OH224927   2.791   5.785  14.053 -0.1146  0.0406  0.5094
 1171TIP3    H124928   2.823   5.863  14.008  0.1328 -0.2160  0.2384
 1171TIP3    H224929   2.698   5.781  14.032 -0.0677  0.1031  0.2922
 1172TIP3   OH224930   3.104   2.863  14.269 -0.3594 -0.2267 -0.0864
 1172TIP3    H124931   3.195   2.869  14.300 -0.7273  0.6198  0.9091
 1172TIP3    H224932   3.104   2.788  14.210  1.1058  0.0673 -0.5284
 1173TIP3   OH224933   6.541   3.268   3.182 -0.9679  0.1589 -0.8880
 1173TIP3    H124934   6.466   3.272   3.122 -0.5523  0.0552 -1.4258
 1173TIP3    H224935   6.507   3.302   3.264 -0.7864  3.1891 -1.9629
 1174TIP3   OH224936   0.219   0.207  13.360 -0.3963 -0.0533 -0.1806
 1174TIP3    H124937   0.144   0.260  13.334 -1.3269 -0.5844  1.3481
 1174TIP3    H224938   0.203   0.121  13.319 -1.4370 -0.6339  1.3681
 1175TIP3   OH224939   2.091   1.322   1.226  0.0868 -0.2128  0.4284
 1175TIP3    H124940   2.016   1.337   1.169  1.0068  0.0581 -0.7636
 1175TIP3    H224941   2.165   1.312   1.166  0.7496 -2.1329  1.4827
 1176TIP3   OH224942   5.175   4.012   4.649  0.3647 -0.4587 -0.0427
 1176TIP3    H124943   5.116   4.012   4.725  1.3977 -0.5790  0.7689
 1176TIP3    H224944   5.181   3.920   4.624  1.1810 -0.6042  0.6528
 1177TIP3   OH224945   3.634   4.433   6.188  0.4683 -0.6056 -0.2110
 1177TIP3    H124946   3.679   4.471   6.263 -3.0710  1.1979  1.2193
 1177TIP3    H224947   3.645   4.497   6.118  1.6687 -1.1084 -0.5090
 1178TIP3   OH224948   3.743   2.253   3.822 -0.0002  0.1977  0.2727
 1178TIP3    H124949   3.694   2.235   3.902 -4.7295 -0.8360 -2.4868
 1178TIP3    H224950   3.737   2.348   3.811 -0.8089  0.1535  0.3187
 1179TIP3   OH224951   2.672   0.312  16.632 -0.1059  0.4050 -0.0918
 1179TIP3    H124952   2.592   0.361  16.614  0.1924  0.5849 -0.9812
 1179TIP3    H224953   2.727   0.373  16.681 -1.1486 -0.2764  2.0405
 1180TIP3   OH224954   1.949   6.605  11.330 -0.2789  0.1008 -0.4692
 1180TIP3    H124955   1.953   6.700  11.334 -0.4264  0.1474 -1.2050
 1180TIP3    H224956   1.917   6.586  11.242  0.7238 -0.6603 -0.6880
 1181TIP3   OH224957   1.623   5.132  11.691 -0.0340  0.2256  0.3402
 1181TIP3    H124958   1.533   5.112  11.716  0.2058 -2.1517 -0.4572
 1181TIP3    H224959   1.662   5.047  11.671  1.3132  1.4574 -2.9369
 1182TIP3   OH224960   0.093   5.313  16.391 -0.1403  0.0959  0.0381
 1182TIP3    H124961   0.158   5.341  16.455  0.1035 -0.3069 -0.0295
 1182TIP3    H224962   0.023   5.273  16.444  0.5388 -1.1927  0.0054
 1183TIP3   OH224963   3.171   6.245  14.956  0.1166  0.5877 -0.6497
 1183TIP3    H124964   3.260   6.243  14.920 -0.5487  0.8437 -2.4332
 1183TIP3    H224965   3.131   6.165  14.924  0.5684 -1.1624  2.7439
 1184TIP3   OH224966   1.892   5.358   0.340  0.4936 -0.4915  0.1600
 1184TIP3    H124967   1.870   5.277   0.385 -1.2864 -0.9170 -1.3476
 1184TIP3    H224968   1.869   5.341   0.248  1.4362  1.2413 -0.4365
 1185TIP3   OH224969   0.854   5.121   0.345 -0.1748 -0.0315 -0.0465
 1185TIP3    H124970   0.861   5.032   0.312  0.7295 -0.1725  0.5151
 1185TIP3    H224971   0.934   5.164   0.317 -0.0504  0.2547  0.7125
 1186TIP3   OH224972   6.603   2.737  11.884  0.6262  0.0530 -0.8249
 1186TIP3    H124973   6.525   2.779  11.923 -0.3479 -1.8953 -0.5560
 1186TIP3    H224974   6.626   2.668  11.946  2.1195  0.0961 -1.2997
 1187TIP3   OH224975   5.517   0.240   4.396  0.0258  0.2801 -0.3926
 1187TIP3    H124976   5.580   0.168   4.403 -0.5356 -0.1405  0.4937
 1187TIP3    H224977   5.556   0.310   4.448 -0.0565  0.1460 -0.1463
 1188TIP3   OH224978   4.635   3.582   1.988  0.3423 -0.0410 -0.0494
 1188TIP3    H124979   4.668   3.650   2.046  1.3597 -0.5504 -0.0171
 1188TIP3    H224980   4.547   3.563   2.022  0.6385  0.1857  0.8659
 1189TIP3   OH224981   3.315   3.102   4.309 -0.3419 -0.2970  0.1140
 1189TIP3    H124982   3.228   3.099   4.269 -1.3940 -0.9341  2.3076
 1189TIP3    H224983   3.357   3.178   4.268 -1.9808  0.1200 -0.8813
 1190TIP3   OH224984   4.329   2.591   3.625 -0.3097  0.0797 -0.6043
 1190TIP3    H124985   4.304   2.615   3.536 -0.5098 -0.8022 -0.7928
 1190TIP3    H224986   4.355   2.500   3.619 -1.2751 -0.2948  0.4218
 1191TIP3   OH224987   2.986   4.638  12.205 -0.3144  0.1422 -0.2886
 1191TIP3    H124988   3.010   4.548  12.226 -1.1559 -0.4745 -1.8143
 1191TIP3    H224989   2.897   4.648  12.239  0.4004  0.9920  1.4260
 1192TIP3   OH224990   0.684   6.149   3.925  0.5773  0.1683 -0.4781
 1192TIP3    H124991   0.651   6.068   3.886 -0.3828 -0.3174  1.2688
 1192TIP3    H224992   0.606   6.202   3.939  0.4804 -0.6230  2.8587
 1193TIP3   OH224993   0.434   2.041   2.461  0.2153 -0.5282  0.2372
 1193TIP3    H124994   0.475   2.119   2.425  0.5964  0.0676  1.8716
 1193TIP3    H224995   0.505   1.993   2.503 -0.5087 -0.0511  2.1290
 1194TIP3   OH224996   0.029   1.039   5.577 -0.6634  0.2200 -0.1427
 1194TIP3    H124997  -0.002   1.100   5.644  0.6092  0.3347  0.3692
 1194TIP3    H224998  -0.051   1.002   5.540 -1.6020  3.1090 -1.3528
 1195TIP3   OH224999   2.334   1.946   3.508 -0.4738 -0.4607  0.7185
 1195TIP3    H125000   2.391   1.957   3.432  0.9686 -0.3694  1.7689
 1195TIP3    H225001   2.268   2.016   3.499 -0.6915 -0.8205 -0.7258
 1196TIP3   OH225002   6.223   0.650  15.025  0.5196  0.3059  0.3096
 1196TIP3    H125003   6.188   0.595  14.955 -0.3592  2.8359 -1.3663
 1196TIP3    H225004   6.316   0.625  15.031  0.4142 -0.5349 -1.2121
 1197TIP3   OH225005   0.032   6.077  15.576 -0.4279  0.4040 -0.4510
 1197TIP3    H125006   0.053   5.986  15.593 -0.0119  1.0975  3.8442
 1197TIP3    H225007   0.113   6.114  15.539  1.0661 -0.1087  2.0647
 1198TIP3   OH225008   5.967   5.047  15.168  0.1555 -0.2279 -0.3040
 1198TIP3    H125009   5.888   5.101  15.166 -0.4419 -1.0984 -1.1525
 1198TIP3    H225010   6.035   5.102  15.129 -0.1479  0.3428 -0.0348
 1199TIP3   OH225011   1.729   1.737  15.339  0.3870 -0.4018  0.1208
 1199TIP3    H125012   1.814   1.729  15.296  0.7853  1.3812  0.4887
 1199TIP3    H225013   1.666   1.711  15.272  1.1282  0.1840 -0.8315
 1200TIP3   OH225014   4.215   4.519  11.528 -0.2109  0.1558 -0.3012
 1200TIP3    H125015   4.129   4.494  11.561 -0.5116  0.9594 -0.4424
 1200TIP3    H225016   4.237   4.599  11.576  1.3954 -1.1476  1.2501
 1201TIP3   OH225017   6.153   5.077   1.189 -0.5530  0.2592  0.0765
 1201TIP3    H125018   6.235   5.122   1.207  0.0742 -0.8578  0.1095
 1201TIP3    H225019   6.144   5.013   1.261 -0.3023 -1.1479 -1.0911
 1202TIP3   OH225020   4.095   2.907  12.752 -0.5089  0.0375 -0.7290
 1202TIP3    H125021   4.038   2.830  12.754  0.7922 -0.9516  1.2365
 1202TIP3    H225022   4.056   2.963  12.685 -3.0348 -1.1328 -0.3595
 1203TIP3   OH225023   1.228   4.813   6.157 -0.7819 -0.0983 -0.3192
 1203TIP3    H125024   1.257   4.795   6.247 -0.8092 -2.2501 -0.6928
 1203TIP3    H225025   1.309   4.833   6.110 -0.5481 -0.7952 -0.2132
 1204TIP3   OH225026   0.314   4.408   3.601  0.2973  0.3363 -0.1530
 1204TIP3    H125027   0.366   4.344   3.553  2.1090  2.0292 -0.5890
 1204TIP3    H225028   0.351   4.407   3.689 -0.8557 -0.4345  0.3477
 1205TIP3   OH225029   1.255   6.552   1.297  0.0694 -0.6421  0.1115
 1205TIP3    H125030   1.292   6.464   1.306  0.8526 -0.2553  0.8771
 1205TIP3    H225031   1.325   6.610   1.328 -0.6330  0.2183  0.1176
 1206TIP3   OH225032   5.197   0.588   5.808  0.3738 -0.3855  0.5044
 1206TIP3    H125033   5.284   0.548   5.815 -0.1444 -1.3084  2.2256
 1206TIP3    H225034   5.152   0.562   5.888 -0.8791  1.5854  0.5164
 1207TIP3   OH225035   3.272   5.862   6.270 -0.0895 -0.1425  0.1591
 1207TIP3    H125036   3.298   5.853   6.178  0.0398 -1.6534  0.3222
 1207TIP3    H225037   3.224   5.945   6.273 -1.9805 -1.0787 -1.7265
 1208TIP3   OH225038   0.016   5.639  13.260  0.3225  0.8974  0.0956
 1208TIP3    H125039  -0.052   5.594  13.312 -0.7154  1.3202 -0.8532
 1208TIP3    H225040  -0.002   5.732  13.273 -1.0785  1.0558 -2.3288
 1209TIP3   OH225041   1.594   6.702  15.713  0.0578  0.0522  0.3961
 1209TIP3    H125042   1.522   6.766  15.710  2.1775  2.6340  1.1489
 1209TIP3    H225043   1.670   6.751  15.683  2.2101 -1.5471  2.8822
 1210TIP3   OH225044   3.066   5.017   4.930 -0.5889  0.2171 -0.0989
 1210TIP3    H125045   3.056   5.001   4.837 -0.0667 -1.5229  0.1202
 1210TIP3    H225046   3.147   5.068   4.938 -1.3390  1.5647 -0.6619
 1211TIP3   OH225047   0.734   2.605  10.639 -0.5636 -0.2336  0.4993
 1211TIP3    H125048   0.655   2.648  10.673  0.8972  1.8956  1.4323
 1211TIP3    H225049   0.784   2.676  10.599  0.6575 -1.6425 -0.5800
 1212TIP3   OH225050   1.092   4.945   2.016  0.1310 -0.9195 -0.2360
 1212TIP3    H125051   1.128   4.898   2.092 -1.4471 -0.6381  0.7250
 1212TIP3    H225052   1.075   5.033   2.048  0.2613 -0.5387 -1.1838
 1213TIP3   OH225053   5.474   1.984  11.663 -0.4596 -0.1645  0.1927
 1213TIP3    H125054   5.435   1.987  11.576 -0.7088 -0.2349  0.2996
 1213TIP3    H225055   5.563   1.952  11.649 -0.2093  0.6621 -0.1269
 1214TIP3   OH225056   4.629   0.544   3.921 -0.8005 -0.1797  0.0732
 1214TIP3    H125057   4.675   0.468   3.957  1.8073  0.2580 -2.0482
 1214TIP3    H225058   4.565   0.507   3.861 -0.5968 -0.7395  0.1926
 1215TIP3   OH225059   4.488   4.389  10.605  0.6213 -0.0749  0.0254
 1215TIP3    H125060   4.434   4.437  10.667  1.3108  0.7127  0.0498
 1215TIP3    H225061   4.485   4.443  10.525 -0.3865 -1.1548 -0.6896
 1216TIP3   OH225062   5.344   2.807   3.142  0.0901  0.2251  0.2112
 1216TIP3    H125063   5.304   2.777   3.224 -0.4377 -0.2896 -0.2190
 1216TIP3    H225064   5.416   2.746   3.127  0.3714  0.4997  0.4413
 1217TIP3   OH225065   3.962   1.182   3.701 -0.2806 -0.3910  0.1966
 1217TIP3    H125066   4.041   1.236   3.691 -0.2409 -0.4700  0.0808
 1217TIP3    H225067   3.891   1.238   3.670 -0.0986 -0.8170 -1.0490
 1218TIP3   OH225068   6.436   5.362   0.214  0.1880 -0.1951 -0.0158
 1218TIP3    H125069   6.526   5.329   0.206  0.6687  1.2557 -0.9528
 1218TIP3    H225070   6.410   5.383   0.124 -0.9124 -0.1400  0.3056
 1219TIP3   OH225071   2.522   0.992   4.234 -0.3308  0.2979 -0.0885
 1219TIP3    H125072   2.478   1.070   4.269  2.3790  1.4020  1.1627
 1219TIP3    H225073   2.545   0.941   4.312  2.7024  1.0235 -0.4105
 1220TIP3   OH225074   3.350   6.770  10.970 -0.5662 -0.0190 -0.2711
 1220TIP3    H125075   3.284   6.752  11.037 -2.1382 -0.0211 -1.7784
 1220TIP3    H225076   3.425   6.804  11.020 -0.7077 -2.3618  1.7406
 1221TIP3   OH225077   5.910   3.206  10.881  0.1281  0.4632  0.5291
 1221TIP3    H125078   5.983   3.222  10.822  0.5352  0.1699  0.9377
 1221TIP3    H225079   5.927   3.261  10.957  0.8341 -0.8434  1.3581
 1222TIP3   OH225080   4.573   2.012  14.561  0.6266  0.1712 -1.0561
 1222TIP3    H125081   4.600   2.077  14.625 -0.5093 -0.6314  0.3002
 1222TIP3    H225082   4.595   1.928  14.601 -1.2977 -0.4026 -1.0720
 1223TIP3   OH225083   0.499   3.122  16.302  0.4309  0.4444  0.5155
 1223TIP3    H125084   0.475   3.030  16.295  1.4920  0.2796 -1.6182
 1223TIP3    H225085   0.471   3.147  16.390 -1.3627 -1.4631  0.5671
 1224TIP3   OH225086   4.051   2.414  15.605 -0.4073  0.6169  0.3277
 1224TIP3    H125087   3.972   2.361  15.621  0.0265 -0.2292 -0.3047
 1224TIP3    H225088   4.075   2.395  15.515  0.3079  1.1676  0.3980
 1225TIP3   OH225089   6.622   5.872   3.223 -0.2140  0.5323 -0.2979
 1225TIP3    H125090   6.646   5.957   3.259  0.6048  0.3052 -0.2767
 1225TIP3    H225091   6.619   5.814   3.298  2.0474 -0.0664 -0.5893
 1226TIP3   OH225092   1.003   4.553  16.785  0.0468  0.6734 -0.0671
 1226TIP3    H125093   0.948   4.616  16.833  0.3632  0.8359  0.0863
 1226TIP3    H225094   0.959   4.542  16.701  0.2369  1.4726 -0.2824
 1227TIP3   OH225095   2.271   3.631  11.363 -0.3546 -0.1676  0.7246
 1227TIP3    H125096   2.358   3.612  11.399 -1.1272 -0.2002  2.6768
 1227TIP3    H225097   2.252   3.720  11.393 -1.0020 -0.1575  0.3030
 1228TIP3   OH225098   0.020   6.121  14.679 -0.7996  0.6039 -0.1326
 1228TIP3    H125099   0.001   6.198  14.733 -2.2993 -1.1165  1.9317
 1228TIP3    H225100   0.111   6.100  14.700 -1.0672  0.5291  1.0564
 1229TIP3   OH225101   4.338   5.385   2.105  0.2838  0.2244 -0.4386
 1229TIP3    H125102   4.327   5.352   2.016 -0.1326  0.2993 -0.4165
 1229TIP3    H225103   4.432   5.377   2.122  0.1484 -1.2777 -0.3019
 1230TIP3   OH225104   6.494   4.443   2.440 -0.0392 -0.0862  0.4467
 1230TIP3    H125105   6.425   4.498   2.477  2.2124  4.3576 -1.1475
 1230TIP3    H225106   6.570   4.458   2.495  1.0153 -0.6101 -0.8014
 1231TIP3   OH225107   5.989   2.503   4.108  0.5496  0.0654 -0.4897
 1231TIP3    H125108   6.026   2.590   4.091  0.5861 -0.2294 -2.0442
 1231TIP3    H225109   5.981   2.463   4.022  0.5295 -1.4910  0.2056
 1232TIP3   OH225110   2.532   0.360   1.203 -0.2933  0.2214  0.0984
 1232TIP3    H125111   2.526   0.283   1.146 -0.7709 -0.3611  0.9253
 1232TIP3    H225112   2.530   0.435   1.142 -1.3551 -0.3714 -0.6197
 1233TIP3   OH225113   3.285   2.692   0.936  0.2777 -0.4099  0.4801
 1233TIP3    H125114   3.246   2.706   1.022  0.2034  0.5887  0.2885
 1233TIP3    H225115   3.379   2.685   0.953  0.4506  1.5150  0.4692
 1234TIP3   OH225116   3.758   6.070  10.752 -0.1138 -0.3952 -0.1650
 1234TIP3    H125117   3.672   6.099  10.785 -0.3989 -1.2154 -0.1641
 1234TIP3    H225118   3.797   6.149  10.714  0.1824  0.5983  2.0211
 1235TIP3   OH225119   1.333   5.424   2.079  0.3739 -0.1253  0.4098
 1235TIP3    H125120   1.427   5.411   2.066  0.6255  0.0379  1.9075
 1235TIP3    H225121   1.299   5.442   1.991  1.1715 -3.5326 -0.7451
 1236TIP3   OH225122   2.546   1.397  12.332  0.7173 -0.3929  0.5715
 1236TIP3    H125123   2.514   1.357  12.413  0.2314  2.2525  1.7846
 1236TIP3    H225124   2.479   1.375  12.267 -2.2585  2.4407  2.3507
 1237TIP3   OH225125   3.413   4.809  16.190  0.1276  0.0174  0.1012
 1237TIP3    H125126   3.419   4.726  16.237  0.0211  0.6245  1.2183
 1237TIP3    H225127   3.349   4.860  16.239  1.1468  1.2490  0.2160
 1238TIP3   OH225128   4.329   4.686  15.996  0.1856 -0.3098  0.0895
 1238TIP3    H125129   4.330   4.600  15.953  0.4053  1.0276 -2.7997
 1238TIP3    H225130   4.237   4.712  15.995  0.4290  0.6237 -1.6385
 1239TIP3   OH225131   2.426   5.913  15.758 -0.0687  0.1889 -0.6925
 1239TIP3    H125132   2.518   5.894  15.777 -0.6611 -1.6313  0.6141
 1239TIP3    H225133   2.399   5.841  15.701 -0.3300  1.5271 -2.3258
 1240TIP3   OH225134   0.599   3.802  17.102  0.5353 -0.8815  0.1296
 1240TIP3    H125135   0.684   3.789  17.144  0.2856  2.8916  2.2103
 1240TIP3    H225136   0.619   3.842  17.018  0.8846 -0.0079  0.6135
 1241TIP3   OH225137   0.022   3.292   0.955  0.1206 -0.3207 -0.5864
 1241TIP3    H125138  -0.002   3.279   1.047 -1.5966  0.7638 -0.8232
 1241TIP3    H225139   0.067   3.212   0.930  1.4013 -0.2881  1.4245
 1242TIP3   OH225140   6.087   4.520   4.942  0.5315 -0.3915 -0.5783
 1242TIP3    H125141   6.181   4.519   4.959  0.7755  0.9015 -1.6570
 1242TIP3    H225142   6.049   4.557   5.021  0.9710 -0.5231 -0.2998
 1243TIP3   OH225143   6.478   3.916   4.213  0.0836 -0.1477  0.6431
 1243TIP3    H125144   6.476   3.922   4.118  0.9260 -3.3644  0.3322
 1243TIP3    H225145   6.406   3.858   4.235  1.0385 -0.9422  1.7866
 1244TIP3   OH225146   3.652   1.283  16.240  0.6356 -0.0829 -0.4707
 1244TIP3    H125147   3.602   1.202  16.227 -3.2572  1.6795  1.8980
 1244TIP3    H225148   3.622   1.341  16.170 -0.2572  0.8043  0.6179
 1245TIP3   OH225149   0.751   6.030  11.592  0.6300 -0.2175 -0.0596
 1245TIP3    H125150   0.706   6.058  11.671  0.6225 -0.4976  0.0342
 1245TIP3    H225151   0.755   6.109  11.538 -2.9562 -0.8617 -1.5459
 1246TIP3   OH225152   5.967   0.931  12.096 -0.3033  0.4991  0.2095
 1246TIP3    H125153   6.009   0.880  12.027 -0.3399 -0.5408  0.9307
 1246TIP3    H225154   5.914   0.996  12.049 -2.0560 -1.5564 -0.8318
 1247TIP3   OH225155   2.359   3.460   4.184 -0.0915  0.0528  0.2776
 1247TIP3    H125156   2.326   3.399   4.251  0.1805  0.3589  0.6957
 1247TIP3    H225157   2.443   3.490   4.219 -0.0748  0.4257 -0.0782
 1248TIP3   OH225158   6.314   0.407   0.925 -0.1654  0.0758  0.0984
 1248TIP3    H125159   6.332   0.313   0.916 -1.2000 -0.0898 -0.3375
 1248TIP3    H225160   6.400   0.446   0.943  0.2222 -0.9917  0.6329
 1249TIP3   OH225161   3.071   5.937  11.674 -0.1620  0.5812  0.2580
 1249TIP3    H125162   3.152   5.920  11.626 -0.1451  0.4091  0.3477
 1249TIP3    H225163   3.001   5.914  11.613 -0.1444 -0.6712  0.6727
 1250TIP3   OH225164   3.448   0.572   4.553  0.2573 -0.3560 -0.5600
 1250TIP3    H125165   3.447   0.662   4.520  0.5349 -0.7457 -1.6880
 1250TIP3    H225166   3.538   0.559   4.583  0.1274 -0.1486 -0.0801
 1251TIP3   OH225167   2.450   3.654  17.030  0.6270 -0.1519  0.0134
 1251TIP3    H125168   2.446   3.597  17.107 -1.9025  2.2780  1.8694
 1251TIP3    H225169   2.387   3.617  16.969 -0.5604  0.2430  0.9585
 1252TIP3   OH225170   6.268   2.562  14.298 -0.2595 -0.3851  0.4689
 1252TIP3    H125171   6.318   2.528  14.372 -2.2068 -0.3147  1.9148
 1252TIP3    H225172   6.299   2.652  14.287 -0.1319 -0.3064  1.4117
 1253TIP3   OH225173   6.357   6.391  15.091  0.4151  0.2082 -0.2008
 1253TIP3    H125174   6.428   6.417  15.150 -1.2394 -0.2868  2.1571
 1253TIP3    H225175   6.387   6.309  15.052  1.7409  0.7743 -0.4426
 1254TIP3   OH225176   3.737   4.371  13.228 -0.4109 -0.9136  0.1385
 1254TIP3    H125177   3.761   4.431  13.158 -0.9010 -0.5312  0.2905
 1254TIP3    H225178   3.647   4.346  13.208 -0.3040 -1.3717  0.2339
 1255TIP3   OH225179   2.524   4.557   2.012 -0.4431 -0.1917  0.4417
 1255TIP3    H125180   2.602   4.509   1.985 -0.4806  0.0178 -0.0425
 1255TIP3    H225181   2.545   4.591   2.099 -0.0260 -0.1992  0.3421
 1256TIP3   OH225182   2.377   5.425  16.378  0.4705 -0.4282  0.4997
 1256TIP3    H125183   2.447   5.455  16.320 -1.2340  0.7196 -1.0932
 1256TIP3    H225184   2.351   5.340  16.343  1.1047 -0.8952  1.1464
 1257TIP3   OH225185   2.631   4.718  16.483 -0.3184  0.1684 -0.8819
 1257TIP3    H125186   2.577   4.773  16.540 -1.1811  0.5504 -2.0473
 1257TIP3    H225187   2.707   4.697  16.537 -1.2598  0.2363  0.5402
 1258TIP3   OH225188   1.753   1.292   4.811 -0.1807  0.0943  0.1259
 1258TIP3    H125189   1.724   1.206   4.780 -2.8942  0.5674  1.0950
 1258TIP3    H225190   1.699   1.354   4.761  0.6363  1.1691  0.5494
 1259TIP3   OH225191   2.957   3.410  14.630 -0.3942  0.1021  0.1342
 1259TIP3    H125192   3.035   3.464  14.642  0.0810 -0.7637  1.1509
 1259TIP3    H225193   2.963   3.344  14.700 -2.8633  0.9670  1.2558
 1260TIP3   OH225194   5.259   0.244  11.614 -0.3885  0.1014  0.0604
 1260TIP3    H125195   5.353   0.237  11.598 -0.3303 -0.1927  0.5059
 1260TIP3    H225196   5.248   0.212  11.704 -0.8539  0.5829  0.1744
 1261TIP3   OH225197   0.295   1.779   4.080  0.1321  0.6053  0.7511
 1261TIP3    H125198   0.346   1.698   4.079  0.7095  0.9431  1.7756
 1261TIP3    H225199   0.260   1.786   3.991 -0.7469 -1.2645  0.9161
 1262TIP3   OH225200   5.143   4.159   2.702  0.1920  0.2917 -0.2706
 1262TIP3    H125201   5.193   4.094   2.752 -1.0163  1.2256  2.3786
 1262TIP3    H225202   5.209   4.224   2.676  1.0091 -0.6756 -0.6854
 1263TIP3   OH225203   5.766   2.124   5.351 -0.0062  0.2179 -0.1349
 1263TIP3    H125204   5.815   2.192   5.397  0.5372  0.4757 -1.0683
 1263TIP3    H225205   5.777   2.145   5.259 -1.9699  0.3294 -0.3727
 1264TIP3   OH225206   0.504   1.142  13.776  0.0157 -0.5876 -0.1612
 1264TIP3    H125207   0.502   1.114  13.685  1.3180 -0.9540 -0.0980
 1264TIP3    H225208   0.596   1.131  13.803 -0.0721  0.7679  0.7966
 1265TIP3   OH225209   5.012   1.768  14.377  0.6009  0.0503  0.6807
 1265TIP3    H125210   4.986   1.735  14.463  1.7995 -1.3256  0.5572
 1265TIP3    H225211   4.947   1.733  14.317  1.2963 -1.3294  0.6914
 1266TIP3   OH225212   5.725   1.962   4.043  0.0112 -0.5945 -0.1278
 1266TIP3    H125213   5.636   1.963   4.008 -0.5780 -3.3522  0.9834
 1266TIP3    H225214   5.778   1.923   3.974 -0.1596 -1.2456  0.0965
 1267TIP3   OH225215   5.288   4.037   5.368  0.1333  0.0343  0.5284
 1267TIP3    H125216   5.326   3.956   5.403 -0.6641 -0.1059  1.0805
 1267TIP3    H225217   5.281   4.021   5.274 -0.1178 -0.5752  0.6477
 1268TIP3   OH225218   5.225   4.352  16.940  0.2576  0.8911 -0.1231
 1268TIP3    H125219   5.173   4.380  17.016 -2.2932  0.4766 -1.6013
 1268TIP3    H225220   5.242   4.259  16.957 -0.3880  0.7730 -0.0769
 1269TIP3   OH225221   2.923   1.573   6.075 -0.0982 -0.1950  0.2291
 1269TIP3    H125222   2.873   1.645   6.115 -1.1764 -1.2226  0.8250
 1269TIP3    H225223   2.917   1.589   5.981  0.4997  1.0072  0.3793
 1270TIP3   OH225224   3.711   5.653   4.021 -0.3129 -0.4718  0.3645
 1270TIP3    H125225   3.678   5.571   3.985  0.1155 -0.6432  0.3607
 1270TIP3    H225226   3.801   5.633   4.049 -0.3867 -0.1470  0.8460
 1271TIP3   OH225227   3.067   2.428   3.711 -0.4221 -0.0765  0.1837
 1271TIP3    H125228   3.116   2.396   3.635 -0.4303 -0.8872  0.5166
 1271TIP3    H225229   2.975   2.425   3.684 -0.4033 -0.0810  0.1202
 1272TIP3   OH225230   4.577   5.023   3.618  0.0274 -0.5648 -0.0387
 1272TIP3    H125231   4.615   5.111   3.614  2.3148 -1.4999 -0.2725
 1272TIP3    H225232   4.556   5.001   3.527 -1.5771  0.1061  0.1316
 1273TIP3   OH225233   0.481   4.737   5.726  0.1983  0.3828 -0.0952
 1273TIP3    H125234   0.486   4.781   5.641 -0.8952  0.2375 -0.2507
 1273TIP3    H225235   0.561   4.686   5.732  0.4437  0.6727 -0.8891
 1274TIP3   OH225236   2.472   6.172   0.935  0.5735  0.3066  0.1319
 1274TIP3    H125237   2.381   6.151   0.956 -0.2619  2.6888 -0.7623
 1274TIP3    H225238   2.506   6.212   1.015  0.3150  0.8786 -0.0399
 1275TIP3   OH225239   3.926   1.986   2.179 -0.0398 -0.6382 -0.1697
 1275TIP3    H125240   3.907   2.062   2.234 -0.4142 -0.1993 -0.8992
 1275TIP3    H225241   3.979   2.021   2.107  0.6150 -1.2431  0.0067
 1276TIP3   OH225242   0.933   2.241  12.342  0.2982 -0.5083 -0.4899
 1276TIP3    H125243   0.853   2.260  12.293 -0.6192 -1.2500  0.6682
 1276TIP3    H225244   0.948   2.321  12.394 -0.2514 -0.7088 -0.0001
 1277TIP3   OH225245   5.391   1.305   2.495  0.4123  0.2793  0.0329
 1277TIP3    H125246   5.345   1.384   2.524  0.5230  0.6062 -0.6494
 1277TIP3    H225247   5.326   1.258   2.443  0.2220 -0.2879  0.7735
 1278TIP3   OH225248   6.151   0.426   0.703 -0.6376 -0.5786 -0.4042
 1278TIP3    H125249   6.185   0.483   0.635 -1.2359 -1.0006 -1.0694
 1278TIP3    H225250   6.212   0.436   0.776  0.1837 -0.3667 -1.1132
 1279TIP3   OH225251   4.684   0.031   4.684 -0.2708 -0.0313 -0.3621
 1279TIP3    H125252   4.730  -0.047   4.716 -1.0840 -0.7026 -0.7838
 1279TIP3    H225253   4.657   0.078   4.762  1.1406  0.4031 -0.0984
 1280TIP3   OH225254   0.286   4.676  11.416  0.2100 -0.8200 -0.2087
 1280TIP3    H125255   0.359   4.654  11.358  0.5080  0.3615 -0.2935
 1280TIP3    H225256   0.216   4.705  11.357  0.2643 -0.3171 -0.0304
 1281TIP3   OH225257   2.173   5.256   4.810 -0.0185 -0.1427  0.1671
 1281TIP3    H125258   2.172   5.175   4.862 -0.3317  0.3174  0.8966
 1281TIP3    H225259   2.099   5.246   4.750  0.3118 -0.6572 -0.1588
 1282TIP3   OH225260   1.577   6.766   4.964 -0.1606 -0.7340  0.1071
 1282TIP3    H125261   1.556   6.858   4.951 -0.7496 -0.9396 -0.4748
 1282TIP3    H225262   1.649   6.766   5.027  1.3455  0.2268 -1.5205
 1283TIP3   OH225263   2.155   6.391  12.998  0.0665 -0.3194 -0.0576
 1283TIP3    H125264   2.062   6.376  13.016  0.4272 -0.0969  2.2703
 1283TIP3    H225265   2.196   6.307  13.017  0.5561  0.0880  0.6955
 1284TIP3   OH225266   4.561   6.079  12.017  0.4741  0.3979 -0.0907
 1284TIP3    H125267   4.494   6.074  12.085  0.5406  1.2697  0.0515
 1284TIP3    H225268   4.635   6.028  12.052 -0.5363 -1.6554 -0.7932
 1285TIP3   OH225269   5.014   1.644   1.135  0.1446 -0.4108  0.3274
 1285TIP3    H125270   5.094   1.599   1.159  0.4238 -0.5494 -0.8015
 1285TIP3    H225271   5.043   1.730   1.104 -0.3095  0.2362  1.6137
 1286TIP3   OH225272   1.441   3.535  11.893  0.0015 -0.7678 -0.0183
 1286TIP3    H125273   1.350   3.532  11.921  0.3371 -0.8551  1.1152
 1286TIP3    H225274   1.438   3.516  11.799 -1.1794 -0.3052 -0.0877
 1287TIP3   OH225275   6.659   3.096  14.566 -0.4925 -0.5144  0.8617
 1287TIP3    H125276   6.619   3.131  14.487  2.0466 -1.2075 -0.8825
 1287TIP3    H225277   6.619   3.010  14.576 -1.6197  0.0135  0.9789
 1288TIP3   OH225278   6.259   2.902   4.945  0.0333  0.0503  0.1609
 1288TIP3    H125279   6.312   2.889   5.024  1.2472  0.4897 -0.5511
 1288TIP3    H225280   6.223   2.990   4.955 -1.1534 -0.4970  0.9594
 1289TIP3   OH225281   4.086   0.954  12.266  0.2695 -0.2277  0.5497
 1289TIP3    H125282   4.164   0.906  12.294  0.1098 -0.5097  0.5084
 1289TIP3    H225283   4.102   0.971  12.172  0.4278  0.0019  0.6152
 1290TIP3   OH225284   0.143   5.104   1.363 -0.2437  0.4788 -0.0981
 1290TIP3    H125285   0.080   5.167   1.327  0.9936  0.2296 -3.0133
 1290TIP3    H225286   0.148   5.126   1.456 -2.2805  2.5235 -0.3675
 1291TIP3   OH225287   1.757   4.759  16.311  0.1207  0.3511  0.5675
 1291TIP3    H125288   1.830   4.821  16.310  0.1270  0.3418 -0.1686
 1291TIP3    H225289   1.743   4.737  16.219  0.3229 -0.9801  0.8323
 1292TIP3   OH225290   4.075   0.181   1.683 -0.3001  0.6798  0.4966
 1292TIP3    H125291   4.124   0.130   1.747  0.3155  0.9391  0.2323
 1292TIP3    H225292   3.984   0.179   1.716 -0.6802 -2.1559 -0.4971
 1293TIP3   OH225293   0.273   6.432  17.249 -0.3246 -0.2953  0.8504
 1293TIP3    H125294   0.290   6.368  17.317  1.8681 -0.4575  0.2387
 1293TIP3    H225295   0.336   6.411  17.180 -1.1649  1.0535 -0.3944
 1294TIP3   OH225296   6.475   4.555   1.162 -0.4713 -0.2610  0.2405
 1294TIP3    H125297   6.484   4.460   1.164 -0.1878 -0.2276  0.6884
 1294TIP3    H225298   6.560   4.586   1.132 -0.6809 -0.1615 -0.2612
 1295TIP3   OH225299   0.930   1.346   0.413  0.0968 -0.2608 -0.6693
 1295TIP3    H125300   0.893   1.284   0.476  0.5207 -0.9826 -1.1268
 1295TIP3    H225301   0.869   1.420   0.416 -0.1300 -0.4635  0.2662
 1296TIP3   OH225302   6.371   3.221  10.884 -0.3619  0.3126 -0.8241
 1296TIP3    H125303   6.451   3.268  10.908  0.5742 -1.5382 -0.0063
 1296TIP3    H225304   6.397   3.165  10.811 -0.3489 -1.6132  0.5747
 1297TIP3   OH225305   0.727   6.689   5.622  0.8297 -0.2354  0.3352
 1297TIP3    H125306   0.710   6.697   5.716  0.1557  1.3929  0.1082
 1297TIP3    H225307   0.812   6.733   5.609 -0.6306  2.6594 -0.2369
 1298TIP3   OH225308   6.122   2.806  16.452 -0.6450 -0.0028 -0.2997
 1298TIP3    H125309   6.199   2.749  16.451  0.7601  1.7307 -2.3982
 1298TIP3    H225310   6.158   2.895  16.458 -2.5873  0.7997  0.3048
 1299TIP3   OH225311   1.663   0.172   4.668  0.1683  0.2910  0.1412
 1299TIP3    H125312   1.583   0.223   4.652 -0.0613 -0.2558 -0.5090
 1299TIP3    H225313   1.728   0.237   4.693  0.4695  1.2449 -2.7290
 1300TIP3   OH225314   5.222   0.946   0.716 -0.7164 -0.1889  0.1299
 1300TIP3    H125315   5.160   0.943   0.643 -0.4817  0.0726 -0.0834
 1300TIP3    H225316   5.223   1.037   0.743 -2.4417 -0.6349  1.9026
 1301TIP3   OH225317   6.506   6.648  16.664  0.4743  0.0426  0.4081
 1301TIP3    H125318   6.539   6.559  16.650 -1.6626 -1.0928  1.9685
 1301TIP3    H225319   6.565   6.685  16.729  3.2699  1.0390 -2.4339
 1302TIP3   OH225320   4.000   5.723  12.688 -0.0223  0.0177 -0.1358
 1302TIP3    H125321   3.920   5.689  12.729 -0.1175  1.5033  0.9752
 1302TIP3    H225322   4.064   5.724  12.759  1.5497 -2.6601 -1.3415
 1303TIP3   OH225323   2.704   2.372  16.161 -0.5675  0.5082  0.0908
 1303TIP3    H125324   2.666   2.460  16.168 -0.4119  0.5692  0.1663
 1303TIP3    H225325   2.791   2.380  16.200 -0.4432  0.3873 -0.1577
 1304TIP3   OH225326   1.032   0.604   4.802  0.1522 -0.3386  0.2721
 1304TIP3    H125327   1.008   0.658   4.727 -0.1876 -1.6002 -0.5628
 1304TIP3    H225328   1.097   0.656   4.850  0.8885  0.2033 -1.2660
 1305TIP3   OH225329   4.159   4.413  15.169  0.0971  0.4010 -0.1149
 1305TIP3    H125330   4.205   4.421  15.085 -0.4615  2.1721 -0.3005
 1305TIP3    H225331   4.067   4.415  15.145 -0.1433  3.3849  0.5971
 1306TIP3   OH225332   5.555   4.053  14.981 -0.0075  0.2258 -0.1563
 1306TIP3    H125333   5.578   4.131  15.033  0.0876  0.9648 -1.2722
 1306TIP3    H225334   5.639   4.010  14.964  0.4008  1.7456 -2.3886
 1307TIP3   OH225335   6.340   0.266  16.358 -0.0922  0.1107  0.4163
 1307TIP3    H125336   6.274   0.219  16.306  0.5082  0.3585 -0.6013
 1307TIP3    H225337   6.420   0.261  16.305  0.4925  0.5481  1.2384
 1308TIP3   OH225338   0.821   0.558  13.989 -0.3306  0.0641 -0.0085
 1308TIP3    H125339   0.842   0.649  14.011 -1.7768  0.0620  1.6087
 1308TIP3    H225340   0.902   0.510  14.007  0.3524  0.9728 -0.5827
 1309TIP3   OH225341   5.483   3.236  15.250 -0.4360 -0.7930  0.3107
 1309TIP3    H125342   5.546   3.235  15.322  0.6764  1.0649 -0.5356
 1309TIP3    H225343   5.456   3.328  15.244 -0.1230 -0.7871 -1.9009
 1310TIP3   OH225344   0.773   4.942   2.137  0.2919  0.2312 -0.0898
 1310TIP3    H125345   0.858   4.907   2.165 -0.1092 -0.6858  0.0176
 1310TIP3    H225346   0.782   4.954   2.042 -0.7525 -3.9058 -0.9059
 1311TIP3   OH225347   1.173   5.028   0.126  0.9303 -0.3920 -0.1167
 1311TIP3    H125348   1.233   5.102   0.113  0.2666  0.3594  0.9297
 1311TIP3    H225349   1.223   4.967   0.181  0.2115  0.9766  2.1567
 1312TIP3   OH225350   0.762   1.967  16.750 -0.1824  0.1912  0.3647
 1312TIP3    H125351   0.744   1.972  16.844  0.2652  0.7683  0.4294
 1312TIP3    H225352   0.702   1.901  16.717  0.0037 -0.3843  1.1455
 1313TIP3   OH225353   0.653   4.289   4.864 -0.5178 -0.2853 -0.3668
 1313TIP3    H125354   0.705   4.369   4.850 -0.5541  0.0215  1.1415
 1313TIP3    H225355   0.562   4.318   4.854 -0.5052 -0.3052 -0.5527
 1314TIP3   OH225356   2.460   2.168  14.843  0.3059  0.7449  0.4777
 1314TIP3    H125357   2.473   2.261  14.861 -0.8268  0.8650  0.7921
 1314TIP3    H225358   2.452   2.128  14.930  2.8269 -0.0128  0.4362
 1315TIP3   OH225359   3.009   3.333   5.104 -0.0592 -0.1375 -0.4038
 1315TIP3    H125360   3.049   3.406   5.151 -1.0667 -0.7833  1.5421
 1315TIP3    H225361   2.915   3.342   5.120 -0.5382 -0.0251 -2.8818
 1316TIP3   OH225362   6.108   3.413  16.079 -0.3764  0.1241  0.3221
 1316TIP3    H125363   6.143   3.342  16.132 -0.6258  0.0806  0.4301
 1316TIP3    H225364   6.068   3.472  16.143 -1.5247 -0.4023  0.1128
 1317TIP3   OH225365   6.104   5.758  16.441  0.1556 -0.3867  0.0165
 1317TIP3    H125366   6.108   5.675  16.488 -1.5772 -1.7477 -2.0452
 1317TIP3    H225367   6.040   5.810  16.490  0.1087 -0.8672  0.4705
 1318TIP3   OH225368   1.774   0.931  13.971  0.2873 -0.1876  0.6626
 1318TIP3    H125369   1.785   0.905  14.062  3.5839 -0.6539  0.2715
 1318TIP3    H225370   1.803   0.855  13.921 -1.6094  0.0036 -0.8076
 1319TIP3   OH225371   0.434   2.438   0.273  0.5584  0.8145  0.0684
 1319TIP3    H125372   0.429   2.379   0.197 -0.9264 -1.3752  1.7321
 1319TIP3    H225373   0.517   2.416   0.314 -0.5125 -1.1550  1.3534
 1320TIP3   OH225374   1.968   1.865   2.727  0.3436  0.1370 -0.3257
 1320TIP3    H125375   2.018   1.941   2.757  0.4310  0.5785 -1.5499
 1320TIP3    H225376   2.014   1.833   2.650  0.5266 -1.4254  0.3787
 1321TIP3   OH225377   5.639   6.570   0.936  0.4601  0.1194  0.0862
 1321TIP3    H125378   5.688   6.534   0.861  0.2603 -2.3068  1.0375
 1321TIP3    H225379   5.562   6.514   0.943 -0.0390  0.9444  1.4843
 1322TIP3   OH225380   2.863   0.913  14.328  0.0850 -0.3865 -0.5856
 1322TIP3    H125381   2.809   0.892  14.404  0.9562 -1.0260 -0.1400
 1322TIP3    H225382   2.939   0.856  14.335  0.4584 -0.0384 -1.6249
 1323TIP3   OH225383   3.675   5.748   5.351  0.2255 -0.7747  0.7116
 1323TIP3    H125384   3.601   5.702   5.392  1.3521 -1.9395  1.5188
 1323TIP3    H225385   3.709   5.804   5.421  0.7070 -1.0004  0.6632
 1324TIP3   OH225386   0.492   1.378   2.897 -0.9463  0.3953  0.4733
 1324TIP3    H125387   0.514   1.463   2.936 -0.3340  0.8202 -0.7551
 1324TIP3    H225388   0.430   1.400   2.827 -3.2872 -0.5122  2.1361
 1325TIP3   OH225389   2.150   1.761   1.307 -0.2667 -0.0459  0.3061
 1325TIP3    H125390   2.146   1.784   1.215  0.1696 -0.6753  0.1188
 1325TIP3    H225391   2.221   1.814   1.342 -1.3073  1.1929  0.5970
 1326TIP3   OH225392   4.701   3.288   1.442 -0.0674  0.0417  0.6402
 1326TIP3    H125393   4.785   3.297   1.488  0.8645 -0.7226 -0.8458
 1326TIP3    H225394   4.636   3.318   1.506  1.3318  0.8143  1.7761
 1327TIP3   OH225395   0.464   2.979  12.898 -0.4853 -0.1897  0.1467
 1327TIP3    H125396   0.482   3.003  12.807 -0.1645 -0.4184  0.1483
 1327TIP3    H225397   0.369   2.972  12.902 -0.4814 -0.4948 -0.2509
 1328TIP3   OH225398   4.673   2.668   6.819 -0.1628  0.0735  0.7907
 1328TIP3    H125399   4.612   2.611   6.772  0.8440 -1.1664  0.9186
 1328TIP3    H225400   4.759   2.647   6.781  0.1565  2.2468  0.1381
 1329TIP3   OH225401   2.091   2.922  12.146  0.0903 -0.1745 -0.0277
 1329TIP3    H125402   2.004   2.964  12.143 -0.0979 -0.2046  2.6888
 1329TIP3    H225403   2.148   2.990  12.180  1.0707 -0.3380 -1.2748
 1330TIP3   OH225404   5.679   4.164  12.364  0.1525  0.1709  0.4735
 1330TIP3    H125405   5.756   4.219  12.348  0.8355 -0.1156  2.4546
 1330TIP3    H225406   5.623   4.218  12.420 -0.2568 -0.2810  0.5041
 1331TIP3   OH225407   6.779   4.330  16.369  0.2997  0.4710 -0.3462
 1331TIP3    H125408   6.692   4.327  16.409  0.6749 -3.0459  0.6088
 1331TIP3    H225409   6.810   4.419  16.384 -2.8215  1.6272 -0.1115
 1332TIP3   OH225410   3.343   2.877  11.548  0.4594  0.4301 -0.0249
 1332TIP3    H125411   3.419   2.870  11.605  0.6724 -1.2308 -0.4600
 1332TIP3    H225412   3.268   2.878  11.607  0.6947 -0.8148  0.3109
 1333TIP3   OH225413   1.783   2.056   6.316  0.0820 -0.0408 -0.1140
 1333TIP3    H125414   1.838   2.045   6.394  0.9794 -1.7673 -0.9421
 1333TIP3    H225415   1.789   2.150   6.296 -0.2533  0.4702  1.9175
 1334TIP3   OH225416   6.658   5.476   3.311  0.4042 -0.0709 -0.0039
 1334TIP3    H125417   6.674   5.408   3.377  0.0111 -0.3647 -0.2036
 1334TIP3    H225418   6.744   5.515   3.295  0.9868 -1.7217 -1.1846
 1335TIP3   OH225419   2.124   3.746  12.663 -0.0602 -0.2599  0.4983
 1335TIP3    H125420   2.032   3.770  12.659  0.2147  0.9625  1.1943
 1335TIP3    H225421   2.141   3.703  12.579 -0.8932  0.8913 -0.2826
 1336TIP3   OH225422   0.393   5.716  12.562  0.1207  0.1048 -0.7239
 1336TIP3    H125423   0.322   5.666  12.522  0.2701 -0.8263  0.1140
 1336TIP3    H225424   0.471   5.663  12.547  0.7740  1.4080 -2.1650
 1337TIP3   OH225425   5.854   5.407   3.828  0.7984 -0.6458  0.5094
 1337TIP3    H125426   5.937   5.372   3.794  0.4273 -1.4378  0.3890
 1337TIP3    H225427   5.873   5.498   3.849  1.8828 -0.9946  1.1104
 1338TIP3   OH225428   0.310   5.455  11.689 -0.0579  0.9217 -0.2053
 1338TIP3    H125429   0.401   5.478  11.673  0.0040 -0.2684 -1.8128
 1338TIP3    H225430   0.261   5.502  11.621 -0.3671 -0.2657 -0.8392
 1339TIP3   OH225431   6.569   5.117   1.048 -0.2979 -0.0921 -0.2068
 1339TIP3    H125432   6.588   5.159   0.965  0.3663 -0.8044 -0.4263
 1339TIP3    H225433   6.475   5.100   1.046 -0.3806  0.3948 -0.5688
 1340TIP3   OH225434   0.321   1.283   3.102  0.9896  0.7664  0.0753
 1340TIP3    H125435   0.262   1.233   3.046  1.5099 -0.4198  0.5417
 1340TIP3    H225436   0.387   1.317   3.042  0.6036  0.9340 -0.2589
 1341TIP3   OH225437   3.449   2.280  12.805  0.0369  0.3872 -0.6226
 1341TIP3    H125438   3.446   2.232  12.722 -0.6613 -0.5851 -0.0588
 1341TIP3    H225439   3.374   2.340  12.801 -0.6985 -0.4800 -0.2362
 1342TIP3   OH225440   4.015   2.262   0.821 -0.1843 -0.7758  0.1549
 1342TIP3    H125441   3.971   2.195   0.769 -2.4457  0.0800  0.8608
 1342TIP3    H225442   4.054   2.321   0.757 -2.5689  0.0346 -0.6280
 1343TIP3   OH225443   5.887   0.851   6.479 -0.3162  0.1232 -0.4825
 1343TIP3    H125444   5.921   0.940   6.476 -0.7315  0.2852 -0.3049
 1343TIP3    H225445   5.940   0.808   6.546  0.3595  0.0354 -1.0564
 1344TIP3   OH225446   2.211   0.191  14.073 -0.7197 -0.4275  0.4928
 1344TIP3    H125447   2.261   0.223  13.998 -0.3428  0.2557  1.0220
 1344TIP3    H225448   2.277   0.175  14.141 -0.9825 -1.6662  0.4777
 1345TIP3   OH225449   1.313   6.301   3.506  0.4224  0.1651 -0.8104
 1345TIP3    H125450   1.371   6.372   3.479  1.3977  0.7850  2.4536
 1345TIP3    H225451   1.371   6.232   3.537 -0.5572 -0.9187 -1.3278
 1346TIP3   OH225452   3.910   0.439  12.033  0.5066  0.0864 -0.3616
 1346TIP3    H125453   3.869   0.393  11.960 -0.7546  2.6332 -1.3718
 1346TIP3    H225454   3.863   0.408  12.111 -1.0353  0.4189 -1.1309
 1347TIP3   OH225455   3.066   6.010   3.568  0.0863  0.0034 -0.3855
 1347TIP3    H125456   3.141   6.068   3.581  0.8262 -1.2436  1.2643
 1347TIP3    H225457   3.096   5.946   3.503 -0.5375  1.0855 -1.7845
 1348TIP3   OH225458   4.516   0.194   0.253  0.4814  0.3352 -0.4505
 1348TIP3    H125459   4.496   0.288   0.255 -1.7423 -0.0826  1.5468
 1348TIP3    H225460   4.534   0.171   0.344 -2.2945 -1.7029 -0.2595
 1349TIP3   OH225461   5.519   6.120  15.175 -0.2435  0.3319  0.1169
 1349TIP3    H125462   5.490   6.153  15.261  1.9904 -0.3918  1.2276
 1349TIP3    H225463   5.499   6.026  15.177 -0.1105  0.2974 -0.1145
 1350TIP3   OH225464   2.818   6.515  14.451 -0.0745 -0.8689  0.7233
 1350TIP3    H125465   2.903   6.558  14.443 -0.0682 -1.0118 -0.1471
 1350TIP3    H225466   2.837   6.422  14.438 -0.5357 -0.7581 -1.0887
 1351TIP3   OH225467   0.608   0.181  10.799  0.2770 -0.2106 -0.4962
 1351TIP3    H125468   0.532   0.137  10.759 -1.8928  1.3973  1.5493
 1351TIP3    H225469   0.630   0.252  10.738 -0.7686  0.1268 -0.5005
 1352TIP3   OH225470   4.590   1.218  13.632 -0.2174 -0.5012 -0.3087
 1352TIP3    H125471   4.638   1.273  13.693  2.1398 -1.1439 -1.4333
 1352TIP3    H225472   4.504   1.259  13.623 -0.7525 -0.4727  3.4562
 1353TIP3   OH225473   5.784   3.367   4.273  0.3666 -0.5903 -0.3005
 1353TIP3    H125474   5.780   3.445   4.327  1.1643 -0.9306  0.2707
 1353TIP3    H225475   5.810   3.399   4.186  0.2316 -0.1808 -0.1918
 1354TIP3   OH225476   2.614   0.512   1.617  0.5849 -0.1031 -0.2913
 1354TIP3    H125477   2.671   0.570   1.567  1.6252  0.5291  1.5490
 1354TIP3    H225478   2.668   0.434   1.633  0.7281  0.2192  0.8865
 1355TIP3   OH225479   2.509   3.740  11.465 -0.6453  0.5152 -0.6539
 1355TIP3    H125480   2.450   3.811  11.438  0.6321  1.8974  0.0451
 1355TIP3    H225481   2.595   3.767  11.432 -0.1033 -0.6485 -0.2463
 1356TIP3   OH225482   1.197   2.817  14.500  0.0844 -0.1991  0.1912
 1356TIP3    H125483   1.192   2.912  14.510 -0.5745 -0.0339 -1.3301
 1356TIP3    H225484   1.268   2.803  14.437  0.4866 -0.7514  0.7555
 1357TIP3   OH225485   0.792   0.019  16.326 -0.5376 -0.7381  0.1892
 1357TIP3    H125486   0.703   0.054  16.320  0.2037  1.1426 -0.4234
 1357TIP3    H225487   0.779  -0.074  16.347 -2.6765 -1.0216 -1.9306
 1358TIP3   OH225488   3.324   3.202   5.178 -0.2058 -1.0720 -0.0407
 1358TIP3    H125489   3.366   3.211   5.093  0.0078  0.6097  0.2027
 1358TIP3    H225490   3.372   3.262   5.235 -0.9145 -1.5044  1.0481
 1359TIP3   OH225491   4.487   2.737  11.268 -0.1265  0.1188 -0.1519
 1359TIP3    H125492   4.566   2.789  11.284  1.0110 -1.8306  0.9674
 1359TIP3    H225493   4.463   2.702  11.354 -1.8925  0.1802 -0.5746
 1360TIP3   OH225494   0.317   1.686  14.621 -0.2250  0.5112  0.4326
 1360TIP3    H125495   0.403   1.683  14.580 -0.5622 -1.6130 -0.2479
 1360TIP3    H225496   0.256   1.700  14.548 -0.7353 -2.1240  0.2739
 1361TIP3   OH225497   5.880   2.733  12.445  0.4925  0.4104  0.0029
 1361TIP3    H125498   5.904   2.803  12.384  0.0164 -0.0822 -0.7636
 1361TIP3    H225499   5.881   2.775  12.531  0.5247  1.2804 -0.4122
 1362TIP3   OH225500   2.190   5.895  16.607  0.0755 -0.1170 -0.6670
 1362TIP3    H125501   2.153   5.854  16.528  0.8079  0.2530 -1.2141
 1362TIP3    H225502   2.285   5.885  16.597  0.3251  2.1412 -1.0815
 1363TIP3   OH225503   5.839   3.806   3.105 -0.3165  0.1471 -0.6421
 1363TIP3    H125504   5.886   3.890   3.100 -0.8251  0.3656 -2.6841
 1363TIP3    H225505   5.823   3.793   3.198  0.1706  2.1049 -0.2364
 1364TIP3   OH225506   1.049   0.918  12.155 -0.6414  0.1844 -0.2326
 1364TIP3    H125507   1.059   0.827  12.127 -0.2898  0.7431 -2.0850
 1364TIP3    H225508   1.107   0.926  12.231 -0.2436 -0.9920 -0.3861
 1365TIP3   OH225509   3.233   5.725  13.193 -0.1804  0.2381 -0.2995
 1365TIP3    H125510   3.231   5.654  13.129 -0.9451  0.3589 -0.4283
 1365TIP3    H225511   3.293   5.696  13.261  1.8838  0.7586 -1.8122
 1366TIP3   OH225512   1.923   1.890   3.670 -0.2085  0.0168  0.6941
 1366TIP3    H125513   1.981   1.966   3.667  0.2111 -0.2530  1.7456
 1366TIP3    H225514   1.844   1.919   3.624  1.7666 -0.5569 -3.5578
 1367TIP3   OH225515   6.232   5.823  17.056 -0.3809  0.4408 -0.5717
 1367TIP3    H125516   6.219   5.898  17.115 -0.4330  1.0123 -1.3004
 1367TIP3    H225517   6.323   5.797  17.070 -0.5245  0.2693  0.0998
 1368TIP3   OH225518   2.474   5.192   2.535 -0.0734 -0.6496  0.1193
 1368TIP3    H125519   2.444   5.102   2.548 -0.6323 -0.3581  0.9651
 1368TIP3    H225520   2.547   5.185   2.474  0.3787 -1.7545  0.7677
 1369TIP3   OH225521   5.615   6.330   0.716 -0.4406 -0.2012 -0.0579
 1369TIP3    H125522   5.706   6.351   0.735 -0.6122 -1.7700  3.0586
 1369TIP3    H225523   5.579   6.410   0.678  1.3499  1.6848  1.9397
 1370TIP3   OH225524   0.262   0.929   3.793  0.1784 -0.0732  0.4517
 1370TIP3    H125525   0.203   0.947   3.721 -0.7983 -2.7477  0.4888
 1370TIP3    H225526   0.213   0.955   3.871 -0.5210 -1.2016  0.4045
 1371TIP3   OH225527   0.473   2.306   1.169  0.2608  0.4680 -0.2082
 1371TIP3    H125528   0.409   2.251   1.123  3.3115 -1.5338 -2.5380
 1371TIP3    H225529   0.433   2.392   1.172 -2.7454 -0.7614 -0.9561
 1372TIP3   OH225530   5.770   2.665   6.015 -0.1128  0.2103 -0.5232
 1372TIP3    H125531   5.769   2.760   6.024 -1.7656  0.2513 -0.7756
 1372TIP3    H225532   5.855   2.645   5.976  0.1849  1.6024 -0.6291
 1373TIP3   OH225533   0.635   1.627   3.267 -0.0471  0.3986 -0.6482
 1373TIP3    H125534   0.612   1.670   3.349 -2.3288 -0.6436 -0.6564
 1373TIP3    H225535   0.718   1.583   3.285  0.4364  1.7141  0.4733
 1374TIP3   OH225536   3.897   5.449  12.416 -0.7407  0.1842 -0.4037
 1374TIP3    H125537   3.807   5.476  12.435 -0.3876  1.9002 -1.0833
 1374TIP3    H225538   3.926   5.506  12.345  1.0756  0.0220  0.1468
 1375TIP3   OH225539   6.009   1.340  11.966 -0.1217 -0.5398 -0.3287
 1375TIP3    H125540   6.012   1.434  11.984 -0.8167 -0.5500 -0.1109
 1375TIP3    H225541   6.003   1.334  11.870  1.3144 -0.4162 -0.4507
 1376TIP3   OH225542   3.588   3.821   5.227 -0.1160 -0.0836 -0.0374
 1376TIP3    H125543   3.579   3.884   5.155  1.8681 -0.4484 -0.6689
 1376TIP3    H225544   3.682   3.820   5.246 -0.4917 -0.6243  2.0135
 1377TIP3   OH225545   1.174   1.169   4.084 -0.4905  0.0822  0.7231
 1377TIP3    H125546   1.094   1.222   4.082 -0.8029 -0.2981  2.1120
 1377TIP3    H225547   1.198   1.166   4.176  1.1858  0.2473  0.3214
 1378TIP3   OH225548   0.264   3.967   2.916 -0.4664 -0.7657  0.7064
 1378TIP3    H125549   0.203   3.918   2.862 -0.1352 -2.5144  1.8395
 1378TIP3    H225550   0.209   4.029   2.965 -0.6081  2.1352 -2.7397
 1379TIP3   OH225551   6.603   3.484  12.611  0.0028  0.1976  0.2192
 1379TIP3    H125552   6.579   3.401  12.650  0.3786  0.4117  0.9192
 1379TIP3    H225553   6.699   3.484  12.610  0.0086  0.6503  0.3100
 1380TIP3   OH225554   3.098   5.662  15.703  0.0071 -0.5114  0.1543
 1380TIP3    H125555   3.192   5.649  15.711 -0.0626 -0.2892  1.4569
 1380TIP3    H225556   3.074   5.719  15.776 -1.0897 -0.2811 -0.3494
 1381TIP3   OH225557   1.017   0.817   0.478 -0.0887 -0.2523  0.2552
 1381TIP3    H125558   1.033   0.910   0.462 -1.3836 -0.1461 -0.5772
 1381TIP3    H225559   1.018   0.776   0.392  2.6711 -1.4527  0.7553
 1382TIP3   OH225560   5.164   6.419  14.941 -0.1907 -0.5197 -0.4417
 1382TIP3    H125561   5.252   6.395  14.970  0.0845 -0.0050 -0.8279
 1382TIP3    H225562   5.164   6.398  14.848 -0.3039 -0.0451 -0.5512
 1383TIP3   OH225563   5.782   3.646  11.614 -0.2146 -0.0319  0.2840
 1383TIP3    H125564   5.826   3.653  11.698 -2.5908 -1.8112  1.8259
 1383TIP3    H225565   5.837   3.587  11.562 -0.5275 -1.9608  2.0289
 1384TIP3   OH225566   5.854   0.495   5.084 -0.2922 -0.0599  0.1931
 1384TIP3    H125567   5.916   0.545   5.136  0.5481 -0.2845 -0.5600
 1384TIP3    H225568   5.900   0.412   5.066  0.4327  0.8710 -2.8085
 1385TIP3   OH225569   2.777   6.106  14.950  0.2653 -0.2302  0.3901
 1385TIP3    H125570   2.810   6.103  15.040 -2.2767  0.7968  1.4455
 1385TIP3    H225571   2.822   6.181  14.910 -0.2693  0.7811  1.5994
 1386TIP3   OH225572   4.638   6.181  14.132 -0.4183 -0.2541 -0.0526
 1386TIP3    H125573   4.706   6.114  14.139  0.2852  0.3259 -0.9841
 1386TIP3    H225574   4.557   6.132  14.119 -0.1574 -0.9537  0.9106
 1387TIP3   OH225575   5.042   3.608  11.207 -0.5162 -0.7272 -0.1336
 1387TIP3    H125576   5.031   3.521  11.168  0.5594 -0.7734 -0.3711
 1387TIP3    H225577   5.136   3.627  11.196 -0.6563  0.2670  0.3231
 1388TIP3   OH225578   4.158   3.762   1.020  0.8230 -0.1526 -0.1639
 1388TIP3    H125579   4.067   3.767   1.050  1.0883 -0.3146  0.6827
 1388TIP3    H225580   4.175   3.847   0.979  0.7356  0.4074  0.9451
 1389TIP3   OH225581   3.440   3.587   4.984 -0.0467  0.1623  0.2360
 1389TIP3    H125582   3.533   3.610   4.987 -0.2939  1.2248  0.0647
 1389TIP3    H225583   3.417   3.573   5.076 -0.4528  3.0646  0.6545
 1390TIP3   OH225584   6.666   2.479  17.180  0.5698 -0.6591  0.3418
 1390TIP3    H125585   6.667   2.512  17.090 -0.7629  0.7238  0.7974
 1390TIP3    H225586   6.750   2.434  17.190  1.5723  0.8120 -0.9905
 1391TIP3   OH225587   2.945   2.111   1.301 -1.1159  0.4511  0.4184
 1391TIP3    H125588   2.955   2.172   1.228 -0.9201 -2.1470 -1.8915
 1391TIP3    H225589   2.856   2.077   1.291 -1.2794  0.4288  1.7602
 1392TIP3   OH225590   6.689   0.550  13.787 -0.0192 -0.2693  0.3051
 1392TIP3    H125591   6.621   0.486  13.808 -0.2683 -0.2755 -0.5066
 1392TIP3    H225592   6.640   0.632  13.772  0.0439 -0.5006 -1.2769
 1393TIP3   OH225593   3.926   4.912   3.091  0.8139 -0.0570  0.3011
 1393TIP3    H125594   4.014   4.878   3.107  0.8670 -0.2870 -0.4311
 1393TIP3    H225595   3.869   4.835   3.100  0.7910 -0.0893 -0.1175
 1394TIP3   OH225596   4.269   6.020  13.794 -0.3713  0.0666  0.0005
 1394TIP3    H125597   4.325   5.943  13.791 -1.7669 -1.0163  0.3158
 1394TIP3    H225598   4.269   6.054  13.705 -0.0509 -0.5510 -0.2380
 1395TIP3   OH225599   5.892   4.834  10.785  0.0138 -0.1007 -0.2071
 1395TIP3    H125600   5.883   4.911  10.841  1.0460  0.2268 -0.4646
 1395TIP3    H225601   5.977   4.797  10.808 -0.2052 -0.8110 -0.5178
 1396TIP3   OH225602   3.524   6.288   2.853 -0.1426 -0.5330 -0.1653
 1396TIP3    H125603   3.550   6.199   2.876  2.2765 -0.5230 -2.4042
 1396TIP3    H225604   3.433   6.279   2.822 -0.0507 -2.1428 -0.0545
 1397TIP3   OH225605   5.494   3.289   0.773 -0.2639  0.2547  0.4544
 1397TIP3    H125606   5.571   3.277   0.717 -0.5770 -0.3988  0.1429
 1397TIP3    H225607   5.529   3.297   0.862  0.1966  0.6227  0.2437
 1398TIP3   OH225608   0.741   3.568   3.863 -0.0193 -0.7500  0.7194
 1398TIP3    H125609   0.789   3.586   3.782 -0.8876 -1.3591  0.0410
 1398TIP3    H225610   0.675   3.638   3.868  2.5630  1.7939  3.1194
 1399TIP3   OH225611   5.615   6.068  15.622 -0.3938  0.3235 -0.6150
 1399TIP3    H125612   5.570   6.035  15.700 -0.5209  1.5536 -0.1531
 1399TIP3    H225613   5.583   6.012  15.551  1.6805 -2.6125  0.5288
 1400TIP3   OH225614   3.169   3.740   0.436 -0.7329 -0.3420  0.3253
 1400TIP3    H125615   3.082   3.707   0.458 -0.5783 -1.1565 -0.2639
 1400TIP3    H225616   3.217   3.664   0.404  0.0058  0.2219  0.0582
 1401TIP3   OH225617   1.001   0.926  10.782  0.1029 -0.2305 -0.3197
 1401TIP3    H125618   1.053   0.862  10.735  0.7164 -0.1980  0.3021
 1401TIP3    H225619   0.910   0.898  10.769  0.3339 -0.8730 -0.5533
 1402TIP3   OH225620   1.892   4.871   3.829 -0.0367  0.5543  0.4861
 1402TIP3    H125621   1.984   4.880   3.805  0.2520  1.1580  1.7513
 1402TIP3    H225622   1.851   4.952   3.799 -0.2569  0.1309 -0.4101
 1403TIP3   OH225623   0.617   4.785  15.438 -0.1451 -0.7558 -0.2858
 1403TIP3    H125624   0.644   4.863  15.389 -0.3364 -1.0534 -0.8823
 1403TIP3    H225625   0.604   4.816  15.527  1.1568 -0.3856 -0.1959
 1404TIP3   OH225626   0.601   5.407  14.331 -0.6618  0.2390  0.1834
 1404TIP3    H125627   0.538   5.360  14.276  0.9118 -1.4583 -0.2611
 1404TIP3    H225628   0.635   5.477  14.274 -0.1308 -0.5858 -0.5454
 1405TIP3   OH225629   4.520   4.150  16.938 -0.4401 -0.0830 -0.1119
 1405TIP3    H125630   4.573   4.079  16.902  0.9333  0.1414  1.3432
 1405TIP3    H225631   4.490   4.198  16.862  0.0218 -1.2312 -1.0561
 1406TIP3   OH225632   6.288   2.572   3.887 -0.0531  0.2081  0.2213
 1406TIP3    H125633   6.327   2.552   3.972  1.6759 -0.1830 -0.6065
 1406TIP3    H225634   6.304   2.666   3.874  0.5786  0.0669 -0.0773
 1407TIP3   OH225635   5.561   2.737  15.835 -0.1908 -0.8420 -0.7402
 1407TIP3    H125636   5.477   2.763  15.873 -0.0812  0.8180 -1.5493
 1407TIP3    H225637   5.590   2.663  15.889 -1.7904 -0.9495  0.0299
 1408TIP3   OH225638   3.275   3.183  13.671 -0.2759 -0.6966 -0.6030
 1408TIP3    H125639   3.291   3.107  13.726  2.3683 -0.5529 -1.0488
 1408TIP3    H225640   3.356   3.194  13.621 -0.9998  1.7288 -1.3845
 1409TIP3   OH225641   0.754   2.629  11.231  0.4553  0.2853 -0.4734
 1409TIP3    H125642   0.831   2.573  11.237 -0.3231 -0.7397  0.3331
 1409TIP3    H225643   0.772   2.686  11.156  2.5370  0.9620  0.4634
 1410TIP3   OH225644   4.256   4.623   1.451  0.4433 -0.3761  0.0316
 1410TIP3    H125645   4.340   4.584   1.477  1.0383  1.0970  0.4067
 1410TIP3    H225646   4.261   4.629   1.355 -0.5112 -3.0305 -0.2722
 1411TIP3   OH225647   4.063   0.183  11.947 -0.1599  0.1063 -0.1755
 1411TIP3    H125648   4.047   0.163  12.039 -1.3357 -2.7622 -0.8970
 1411TIP3    H225649   3.976   0.193  11.909  0.3164  1.8997 -0.9059
 1412TIP3   OH225650   3.182   6.708   2.692 -0.4997 -0.9389  0.7179
 1412TIP3    H125651   3.116   6.770   2.660 -0.3371 -1.7570 -1.3633
 1412TIP3    H225652   3.262   6.760   2.702 -0.5096 -0.6703 -0.4675
 1413TIP3   OH225653   2.247   2.089   2.342  0.1715 -0.7357 -0.3369
 1413TIP3    H125654   2.231   2.090   2.436 -0.7002 -0.9322 -0.4767
 1413TIP3    H225655   2.178   2.144   2.305  1.1660  0.2488 -0.7750
 1414TIP3   OH225656   2.438   1.233  11.656  0.6543  0.0054  0.3950
 1414TIP3    H125657   2.466   1.318  11.692  0.3837  0.4478 -0.4245
 1414TIP3    H225658   2.485   1.226  11.574 -0.1777 -0.1223 -0.0782
 1415TIP3   OH225659   0.230   5.938   1.716  0.3302  0.3844  0.2204
 1415TIP3    H125660   0.266   5.880   1.649 -1.4092 -0.0620 -0.3601
 1415TIP3    H225661   0.205   5.880   1.788 -0.0721  0.5914  0.2479
 1416TIP3   OH225662   6.112   0.508  16.065 -0.0019  0.1413  0.2931
 1416TIP3    H125663   6.138   0.564  15.992  4.9227 -1.4918  0.4293
 1416TIP3    H225664   6.066   0.435  16.024 -1.4063  1.4159 -0.5105
 1417TIP3   OH225665   6.583   5.285  16.387 -0.2753  0.2608  0.0104
 1417TIP3    H125666   6.597   5.197  16.422  1.0228  0.0224 -1.0134
 1417TIP3    H225667   6.597   5.276  16.292 -0.1633  1.5465 -0.1176
 1418TIP3   OH225668   3.700   1.667   0.138 -0.3955 -0.4796  0.1783
 1418TIP3    H125669   3.676   1.580   0.106 -0.9602 -0.9575  1.8034
 1418TIP3    H225670   3.784   1.654   0.182 -1.1355 -0.5302  1.6409
 1419TIP3   OH225671   4.789   4.281   2.108  0.2504  0.0678  0.2527
 1419TIP3    H125672   4.759   4.203   2.155  2.7753 -1.2535 -0.1818
 1419TIP3    H225673   4.728   4.350   2.135 -2.4207 -2.1135  0.2441
 1420TIP3   OH225674   5.462   1.940   5.630  0.0956 -0.0729 -0.1045
 1420TIP3    H125675   5.486   1.857   5.589 -1.0122 -0.9416  0.9474
 1420TIP3    H225676   5.372   1.956   5.602 -0.2987 -0.1232  1.0851
 1421TIP3   OH225677   3.727   1.551   5.105 -0.3403 -0.1985  0.3955
 1421TIP3    H125678   3.631   1.550   5.097 -0.3675  0.4077  0.6087
 1421TIP3    H225679   3.749   1.464   5.139 -0.7870 -0.4469  0.0608
 1422TIP3   OH225680   6.535   6.359  12.683 -0.2120  0.3404 -0.3728
 1422TIP3    H125681   6.494   6.324  12.762  0.5461 -1.2948 -0.6666
 1422TIP3    H225682   6.606   6.298  12.664 -0.9183  0.1904 -2.8161
 1423TIP3   OH225683   6.047   3.338  15.814 -0.8206  0.0780 -0.0926
 1423TIP3    H125684   6.080   3.416  15.770  1.0978 -0.2078  0.7803
 1423TIP3    H225685   6.067   3.351  15.907 -1.0719 -1.1476  0.1600
 1424TIP3   OH225686   4.508   6.552   2.747  0.8273 -0.3319 -0.4299
 1424TIP3    H125687   4.439   6.531   2.810  1.9479 -0.4840  0.7954
 1424TIP3    H225688   4.494   6.645   2.727  0.4795 -0.2667  0.0803
 1425TIP3   OH225689   2.767   2.681  14.139 -0.0965 -0.1931 -0.1883
 1425TIP3    H125690   2.777   2.635  14.223  0.6876  1.9811  0.9850
 1425TIP3    H225691   2.854   2.675  14.099  0.1798  0.7162  0.2451
 1426TIP3   OH225692   2.188   1.788   3.108 -0.3493  0.0865 -0.4705
 1426TIP3    H125693   2.210   1.713   3.164  0.2293  0.2627 -0.4584
 1426TIP3    H225694   2.092   1.789   3.107 -0.3649 -0.5072 -0.2723
 1427TIP3   OH225695   2.827   1.373  10.411  0.4937  0.1231 -0.1641
 1427TIP3    H125696   2.907   1.320  10.420  1.7567  1.9967  0.0713
 1427TIP3    H225697   2.786   1.339  10.331  1.7185 -0.6509 -0.5045
 1428TIP3   OH225698   5.198   4.014   5.949 -0.5424 -0.7644  0.5109
 1428TIP3    H125699   5.148   3.969   6.017 -0.3026 -1.3276  0.3266
 1428TIP3    H225700   5.151   3.994   5.868 -0.1209 -1.1650  0.3581
 1429TIP3   OH225701   4.726   5.852  12.320 -0.1831  0.1702  0.2917
 1429TIP3    H125702   4.756   5.763  12.300 -1.1662 -0.1736  0.2595
 1429TIP3    H225703   4.769   5.907  12.255  1.6274 -0.0490  1.2324
 1430TIP3   OH225704   6.084   0.754   0.486  0.2035  0.0380  0.1291
 1430TIP3    H125705   6.140   0.677   0.491  0.6059  0.3258 -0.0005
 1430TIP3    H225706   6.004   0.728   0.533 -1.7264 -2.1808 -3.8743
 1431TIP3   OH225707   5.674   3.291  12.654  0.6949 -0.0477  0.7326
 1431TIP3    H125708   5.594   3.241  12.634  1.1507 -1.4033  2.0856
 1431TIP3    H225709   5.653   3.339  12.734  1.4327 -0.9660  1.5003
 1432TIP3   OH225710   5.822   1.044  15.882 -0.0512  0.3215 -0.0663
 1432TIP3    H125711   5.747   1.085  15.841  0.4659  0.2109 -1.1701
 1432TIP3    H225712   5.828   1.084  15.969 -2.1522 -0.6255  0.5805
 1433TIP3   OH225713   3.411   4.192  12.689  0.3122 -0.2876 -0.1426
 1433TIP3    H125714   3.435   4.103  12.664 -0.1458 -0.8718  1.3844
 1433TIP3    H225715   3.433   4.197  12.782 -2.4568  0.1886  0.5683
 1434TIP3   OH225716   5.193   1.954   5.586 -0.0678  0.1824 -0.7929
 1434TIP3    H125717   5.100   1.970   5.604  0.0965  1.0736 -0.7351
 1434TIP3    H225718   5.194   1.866   5.547 -0.7241 -0.6586  0.9636
 1435TIP3   OH225719   5.387   0.977  13.900  0.0226  0.1535  0.5358
 1435TIP3    H125720   5.341   0.971  13.984  0.4478  0.8220  0.8178
 1435TIP3    H225721   5.478   0.992  13.923  0.6399 -2.2740  0.0122
 1436TIP3   OH225722   3.232   2.222   1.928  0.3650  0.0373 -0.2019
 1436TIP3    H125723   3.285   2.238   1.850 -0.6643  0.1949 -0.9008
 1436TIP3    H225724   3.145   2.257   1.905  0.1732  0.5469  1.2084
 1437TIP3   OH225725   5.889   0.121   3.276 -0.2384  0.0464 -0.5015
 1437TIP3    H125726   5.900   0.028   3.255  2.6391  0.2966 -0.3760
 1437TIP3    H225727   5.943   0.167   3.211 -0.5538  1.5605  0.2689
 1438TIP3   OH225728   1.856   0.384   0.294  0.1517 -0.0583 -0.2475
 1438TIP3    H125729   1.947   0.356   0.298 -0.4402 -2.1623 -0.2843
 1438TIP3    H225730   1.807   0.314   0.337 -1.6134  0.2535 -1.6254
 1439TIP3   OH225731   3.841   3.751   5.326 -0.1167 -0.1969  0.8431
 1439TIP3    H125732   3.822   3.658   5.314 -2.4680  0.3222  0.1023
 1439TIP3    H225733   3.933   3.753   5.353  0.6116 -2.5810 -1.1187
 1440TIP3   OH225734   3.394   5.615   1.634  0.4555  0.1153 -0.8305
 1440TIP3    H125735   3.452   5.539   1.641 -0.4061 -0.5578 -0.9038
 1440TIP3    H225736   3.306   5.579   1.628  0.0192  1.1231 -0.8268
 1441TIP3   OH225737   0.653   5.343   3.623 -0.0133 -0.0901 -0.0018
 1441TIP3    H125738   0.606   5.265   3.652  1.1722 -1.7433 -2.2272
 1441TIP3    H225739   0.743   5.329   3.651  0.5870 -0.4647 -1.9495
 1442TIP3   OH225740   4.025   6.025   5.415 -0.4875 -0.2054  0.1200
 1442TIP3    H125741   4.104   6.049   5.368  0.5992 -1.1259  1.3963
 1442TIP3    H225742   4.023   5.930   5.413 -0.8708 -0.2408  1.1486
 1443TIP3   OH225743   2.427   3.605   2.689  0.4456 -0.0256 -0.2718
 1443TIP3    H125744   2.462   3.590   2.776  0.8266 -0.6552 -0.5285
 1443TIP3    H225745   2.430   3.700   2.678 -1.1922  0.2274  1.0416
 1444TIP3   OH225746   1.106   4.999   5.299 -0.3034  0.4624  0.3631
 1444TIP3    H125747   1.181   4.962   5.253  1.4958  1.2633  2.4749
 1444TIP3    H225748   1.084   5.077   5.249  0.5148  0.4232 -0.0793
 1445TIP3   OH225749   4.772   4.804  15.742  0.3127 -0.3781 -0.1521
 1445TIP3    H125750   4.697   4.760  15.782  0.3449  0.1603  0.5199
 1445TIP3    H225751   4.845   4.786  15.801  0.4655  0.0248 -0.2151
 1446TIP3   OH225752   4.364   3.085  17.206  0.4037  0.0437 -0.1840
 1446TIP3    H125753   4.272   3.060  17.198 -0.1887  1.8467  0.5058
 1446TIP3    H225754   4.401   3.067  17.119 -0.1852 -2.1168 -0.0513
 1447TIP3   OH225755   1.153   1.690   5.734 -0.5090  0.0053  0.3167
 1447TIP3    H125756   1.171   1.617   5.674  0.9210  0.5529  0.0218
 1447TIP3    H225757   1.119   1.649   5.813  2.2112 -1.2400  0.9496
 1448TIP3   OH225758   6.366   1.033  15.620 -0.6548 -0.0784 -0.2754
 1448TIP3    H125759   6.433   0.965  15.632 -0.0743  0.1535 -1.9982
 1448TIP3    H225760   6.356   1.041  15.525 -1.9540  1.0583 -0.0757
 1449TIP3   OH225761   2.334   4.686   4.895  0.2502 -0.0869 -0.2406
 1449TIP3    H125762   2.264   4.644   4.946  2.1480 -3.0116  0.1738
 1449TIP3    H225763   2.409   4.688   4.954  1.2381  0.6635 -1.4855
 1450TIP3   OH225764   0.270   5.576   2.008 -0.0085 -0.5588 -0.2247
 1450TIP3    H125765   0.351   5.626   2.013  1.2276 -2.4352 -0.6072
 1450TIP3    H225766   0.278   5.524   1.928 -1.5203 -0.9346 -0.1759
 1451TIP3   OH225767   1.563   4.456   1.404 -0.7001  0.0084 -0.0802
 1451TIP3    H125768   1.523   4.416   1.327  0.0490 -0.7047 -0.1207
 1451TIP3    H225769   1.602   4.537   1.372 -0.3901 -0.2845 -0.4661
 1452TIP3   OH225770   2.636   6.641   4.150 -0.4589  0.2714  0.6840
 1452TIP3    H125771   2.611   6.619   4.239 -0.5783  0.7348  0.7637
 1452TIP3    H225772   2.654   6.735   4.152  2.9899 -0.2648  1.0678
 1453TIP3   OH225773   3.423   3.961  12.910 -0.0469 -0.2648  0.2119
 1453TIP3    H125774   3.401   3.936  12.820 -1.3967  2.9219 -0.4809
 1453TIP3    H225775   3.345   3.938  12.960 -0.0647 -0.2501  0.1915
 1454TIP3   OH225776   4.265   6.265  12.046  0.2316 -0.1178  1.0724
 1454TIP3    H125777   4.267   6.175  12.014 -1.6493 -0.3945  1.6687
 1454TIP3    H225778   4.215   6.262  12.127  1.9590  1.1464  2.2747
 1455TIP3   OH225779   6.635   1.951   4.356  0.3958 -0.0732  0.3083
 1455TIP3    H125780   6.673   2.025   4.307  0.2563 -0.4074 -0.3145
 1455TIP3    H225781   6.682   1.874   4.323  0.0760 -0.3410  0.4743
 1456TIP3   OH225782   0.307   5.328  15.715  0.2333 -0.8615  0.1640
 1456TIP3    H125783   0.382   5.363  15.668 -0.4655  0.1254 -0.2409
 1456TIP3    H225784   0.261   5.405  15.749  1.0953 -1.5206  3.1173
 1457TIP3   OH225785   1.723   2.101   4.279 -0.1897  0.0153  0.2882
 1457TIP3    H125786   1.750   2.178   4.229  1.9588 -0.4434  0.6266
 1457TIP3    H225787   1.783   2.032   4.249 -2.2428 -1.6386 -0.2280
 1458TIP3   OH225788   6.783   2.928   4.042 -0.3742 -0.2185  0.0132
 1458TIP3    H125789   6.688   2.920   4.042 -0.5051  1.1314  1.0100
 1458TIP3    H225790   6.801   3.014   4.005  0.4512 -0.2804  0.2397
 1459TIP3   OH225791   0.617   3.193   3.204  0.4317 -0.9772  0.2036
 1459TIP3    H125792   0.524   3.205   3.222  0.2280 -1.1829 -0.6762
 1459TIP3    H225793   0.656   3.279   3.219 -0.1344 -0.5369 -0.8021
 1460TIP3   OH225794   3.324   6.083  11.345  0.0665 -1.1034  0.4936
 1460TIP3    H125795   3.244   6.111  11.299  0.1098 -0.9977  0.4829
 1460TIP3    H225796   3.356   6.163  11.388  0.1934 -1.1365  0.4588
 1461TIP3   OH225797   5.427   1.943   3.222  0.1678  0.1626  0.2173
 1461TIP3    H125798   5.517   1.921   3.199  0.7384  1.2946  1.2333
 1461TIP3    H225799   5.415   2.031   3.187  0.0556  0.7020  1.5340
 1462TIP3   OH225800   2.058   5.410  15.756  0.3432  0.1095  0.1041
 1462TIP3    H125801   2.069   5.504  15.766  0.2685  0.1035  0.2550
 1462TIP3    H225802   2.138   5.380  15.713  0.6500  0.1526  0.6377
 1463TIP3   OH225803   6.444   2.101  16.502 -1.0195  0.1874 -0.2926
 1463TIP3    H125804   6.462   2.015  16.542 -2.6781  0.2221  0.6287
 1463TIP3    H225805   6.352   2.096  16.475 -0.8791  1.3736 -1.0604
 1464TIP3   OH225806   0.070   0.430  15.582  0.0487 -0.5579  0.0883
 1464TIP3    H125807   0.130   0.379  15.527 -0.4373 -1.0114 -0.0327
 1464TIP3    H225808   0.110   0.429  15.668  0.9551  0.3859 -0.3147
 1465TIP3   OH225809   0.486   1.643  17.225  0.3690 -0.2384 -0.0021
 1465TIP3    H125810   0.449   1.725  17.259  0.3198 -0.5434  0.6953
 1465TIP3    H225811   0.505   1.591  17.303  2.5684  0.0153 -0.3233
 1466TIP3   OH225812   0.006   5.757   4.774  0.0157  0.4373  0.3292
 1466TIP3    H125813  -0.052   5.829   4.749 -1.9278 -0.6410  1.4493
 1466TIP3    H225814   0.005   5.699   4.698 -0.3097  0.4612  0.3124
 1467TIP3   OH225815   3.607   2.380  16.162 -0.8639  0.1601 -0.1687
 1467TIP3    H125816   3.679   2.337  16.208 -0.3574  1.5737  0.4200
 1467TIP3    H225817   3.630   2.473  16.163 -1.7027  0.4242 -1.7750
 1468TIP3   OH225818   4.413   4.807   2.027 -0.1689 -0.1381 -0.9373
 1468TIP3    H125819   4.411   4.857   2.109  0.6502  1.1472 -1.6609
 1468TIP3    H225820   4.373   4.723   2.049 -2.4348  1.1324  0.1433
 1469TIP3   OH225821   1.561   1.131  14.741  0.3598  0.3473  0.1250
 1469TIP3    H125822   1.610   1.057  14.775  0.7683  0.5617  0.0118
 1469TIP3    H225823   1.479   1.131  14.791 -0.3212 -1.0936 -0.9302
 1470TIP3   OH225824   0.793   6.142  16.282 -0.5820  0.6996 -0.3808
 1470TIP3    H125825   0.728   6.074  16.268 -1.8015  1.4330  1.3597
 1470TIP3    H225826   0.776   6.174  16.370 -0.1749  3.3669 -1.1726
 1471TIP3   OH225827   1.995   4.707   1.063 -1.1381  0.1994  0.1581
 1471TIP3    H125828   1.903   4.725   1.080 -0.3826  2.3596  2.6599
 1471TIP3    H225829   2.042   4.778   1.107  1.7570 -1.0063 -0.7248
 1472TIP3   OH225830   1.828   0.405  11.858  0.2183  0.1599  0.0264
 1472TIP3    H125831   1.857   0.494  11.880  1.2206 -0.1596  0.0441
 1472TIP3    H225832   1.897   0.348  11.892 -0.6879 -0.6742  0.5191
 1473TIP3   OH225833   4.354   4.574  14.335 -0.1503  0.0362 -0.7093
 1473TIP3    H125834   4.408   4.636  14.384 -0.7049 -2.1210  3.0208
 1473TIP3    H225835   4.280   4.626  14.305  0.0923  1.5157  1.0379
 1474TIP3   OH225836   2.129   4.620   4.707 -0.0484  0.0894  0.3854
 1474TIP3    H125837   2.195   4.670   4.754  0.4992 -0.3184  0.0663
 1474TIP3    H225838   2.171   4.595   4.625 -1.0176  0.8772 -0.3788
 1475TIP3   OH225839   0.772   0.295  14.439  0.2785 -0.4138 -0.3866
 1475TIP3    H125840   0.756   0.388  14.425 -0.6848 -0.6289 -0.7956
 1475TIP3    H225841   0.705   0.268  14.503 -0.3231 -1.0954 -1.2742
 1476TIP3   OH225842   6.282   4.288  14.613 -0.4528  0.3443 -0.0144
 1476TIP3    H125843   6.335   4.256  14.686  1.2136  0.0314 -1.2855
 1476TIP3    H225844   6.346   4.324  14.551 -1.7783  0.4251 -1.3986
 1477TIP3   OH225845   2.415   0.328   4.292  0.0142 -0.0772 -0.2790
 1477TIP3    H125846   2.398   0.262   4.225  2.3434 -3.2677  2.0045
 1477TIP3    H225847   2.350   0.310   4.360  0.5967  0.0172  0.3140
 1478TIP3   OH225848   3.447   2.535  11.486  0.3296  0.5352 -0.3591
 1478TIP3    H125849   3.534   2.561  11.456  0.6899  0.5520  0.6598
 1478TIP3    H225850   3.429   2.592  11.560  0.5172 -1.0812  0.9962
 1479TIP3   OH225851   6.373   3.964  16.898 -0.7540  0.0077  0.6520
 1479TIP3    H125852   6.279   3.964  16.878 -0.4488 -0.2899 -0.8818
 1479TIP3    H225853   6.415   3.941  16.815  0.8009  2.0578  0.8029
 1480TIP3   OH225854   2.591   3.650   0.220  0.1958  0.0486 -0.2239
 1480TIP3    H125855   2.565   3.713   0.287  0.3944 -1.6034  1.5060
 1480TIP3    H225856   2.583   3.565   0.263 -1.5438 -1.3031 -2.9077
 1481TIP3   OH225857   4.963   1.670   6.086  0.0991 -0.0170 -0.0018
 1481TIP3    H125858   4.998   1.590   6.047  1.2906 -0.3264  1.6118
 1481TIP3    H225859   5.039   1.728   6.095 -0.0772 -0.0344  1.9690
 1482TIP3   OH225860   3.657   4.385  15.774  0.0165  0.2444 -0.3900
 1482TIP3    H125861   3.744   4.386  15.733 -0.2173  0.6852 -0.8909
 1482TIP3    H225862   3.674   4.407  15.866  0.5773 -1.0297 -0.1679
 1483TIP3   OH225863   4.633   2.530  16.362  0.0531 -0.6938 -0.0075
 1483TIP3    H125864   4.695   2.591  16.321  0.4067 -1.6141 -0.8826
 1483TIP3    H225865   4.637   2.452  16.307 -2.5820 -0.4721 -0.6653
 1484TIP3   OH225866   0.224   1.526  12.420  0.4713 -0.3023 -0.1638
 1484TIP3    H125867   0.188   1.468  12.353  0.1380  2.0706 -2.1699
 1484TIP3    H225868   0.288   1.579  12.374  0.3754  1.3173  1.4502
 1485TIP3   OH225869   0.119   4.780   3.294 -0.7193  0.4284 -0.4871
 1485TIP3    H125870   0.055   4.775   3.223 -0.2981  2.9089 -1.1253
 1485TIP3    H225871   0.095   4.859   3.343  2.3344  2.0158 -1.3201
 1486TIP3   OH225872   0.914   6.723   3.612  0.1186  0.5258  0.0740
 1486TIP3    H125873   0.902   6.812   3.647  0.0121  0.6015 -0.1582
 1486TIP3    H225874   0.837   6.675   3.642  0.1167  0.5426  0.0965
 1487TIP3   OH225875   0.885   0.060   3.271  0.5526  0.5022  0.2403
 1487TIP3    H125876   0.881   0.041   3.365 -0.1903 -0.8334 -0.0382
 1487TIP3    H225877   0.852  -0.019   3.229 -2.6661  2.3140 -1.0343
 1488TIP3   OH225878   5.835   4.031  13.270  0.0769  0.6115 -0.4278
 1488TIP3    H125879   5.754   3.995  13.307  0.1266  0.2245 -0.6896
 1488TIP3    H225880   5.861   3.967  13.204 -0.1291  1.3972 -1.2924
 1489TIP3   OH225881   5.765   4.767  12.438 -0.4082 -0.0774  0.3698
 1489TIP3    H125882   5.700   4.817  12.486 -2.1251 -0.4321 -1.4500
 1489TIP3    H225883   5.761   4.679  12.476 -1.1596 -0.1458  0.1439
 1490TIP3   OH225884   3.451   4.239   1.388 -0.1875 -0.5346 -0.2346
 1490TIP3    H125885   3.390   4.306   1.419  0.3488  0.4809 -1.2872
 1490TIP3    H225886   3.525   4.245   1.449  0.8594  1.4433 -1.6017
 1491TIP3   OH225887   2.062   3.589   0.715  0.2709 -0.1284 -0.0128
 1491TIP3    H125888   2.148   3.616   0.683 -0.6536  0.5399 -2.0762
 1491TIP3    H225889   2.033   3.521   0.653 -0.4862 -0.7217  0.9502
 1492TIP3   OH225890   0.638   2.346   2.759  0.3877  0.5820  0.1023
 1492TIP3    H125891   0.641   2.404   2.835 -2.2901  0.8152  0.1414
 1492TIP3    H225892   0.620   2.260   2.795 -0.8472  0.6847 -0.2152
 1493TIP3   OH225893   5.766   5.762   6.226  0.1337 -0.1328 -0.2414
 1493TIP3    H125894   5.778   5.708   6.304  0.9796 -1.6540 -1.3720
 1493TIP3    H225895   5.709   5.709   6.169 -0.9696  1.2118 -0.4245
 1494TIP3   OH225896   0.829   2.215   2.559 -0.2079 -0.6967  0.7309
 1494TIP3    H125897   0.755   2.263   2.521  0.3026  0.4908  1.1661
 1494TIP3    H225898   0.861   2.161   2.487  0.8557  1.6429 -0.6804
 1495TIP3   OH225899   3.622   3.498   4.450  0.5526 -0.1278 -0.3154
 1495TIP3    H125900   3.540   3.468   4.489 -0.0320 -0.2023 -1.5504
 1495TIP3    H225901   3.674   3.418   4.438 -0.7940 -0.6806 -3.1236
 1496TIP3   OH225902   0.621   3.544  11.329 -0.4217  0.0112 -0.2632
 1496TIP3    H125903   0.628   3.637  11.306 -2.9878  0.1040 -0.9780
 1496TIP3    H225904   0.700   3.526  11.379  0.6321  2.3280 -0.9366
 1497TIP3   OH225905   0.648   6.600  12.416 -0.5660 -0.0128 -0.5362
 1497TIP3    H125906   0.728   6.625  12.463 -1.3783 -0.1220  0.9382
 1497TIP3    H225907   0.577   6.639  12.466 -1.4801 -0.1340 -1.6907
 1498TIP3   OH225908   5.366   1.945   4.639 -0.2572 -0.3502 -0.4210
 1498TIP3    H125909   5.376   1.898   4.722 -0.6190 -0.8006 -0.6308
 1498TIP3    H225910   5.451   1.987   4.626 -0.5615  0.7101  0.7607
 1499TIP3   OH225911   3.485   1.714   2.337 -0.3610 -0.1419 -0.2172
 1499TIP3    H125912   3.559   1.775   2.332  0.0560 -0.7263 -1.5132
 1499TIP3    H225913   3.481   1.673   2.251 -1.6256 -0.8064  0.1289
 1500TIP3   OH225914   5.945   3.707   1.853 -0.0663 -0.2167 -0.3534
 1500TIP3    H125915   5.943   3.769   1.926 -3.4952 -0.8468  0.2988
 1500TIP3    H225916   5.971   3.624   1.892 -0.4518 -0.2384 -0.1375
 1501TIP3   OH225917   0.450   1.511   0.865  0.6274  0.7322  0.2469
 1501TIP3    H125918   0.526   1.465   0.900  1.9592  1.4976 -1.4954
 1501TIP3    H225919   0.457   1.599   0.901 -0.1947  0.4557  1.1201
 1502TIP3   OH225920   3.801   1.097   5.734 -0.1349 -0.5789  0.1600
 1502TIP3    H125921   3.862   1.140   5.674 -1.3935  1.6079  0.3705
 1502TIP3    H225922   3.849   1.092   5.817  0.4386 -0.6263 -0.1726
 1503TIP3   OH225923   0.573   6.338  14.879 -0.4882  0.0354 -0.1560
 1503TIP3    H125924   0.521   6.416  14.897  0.7650  0.8543  0.0406
 1503TIP3    H225925   0.545   6.274  14.945  0.0953  1.1126  1.1880
 1504TIP3   OH225926   2.873   5.263   6.701  0.8695  0.6281 -0.0841
 1504TIP3    H125927   2.855   5.348   6.661  0.4933  0.4141 -0.3731
 1504TIP3    H225928   2.966   5.267   6.726  0.8927  1.0623 -0.2398
 1505TIP3   OH225929   2.237   5.945  11.162  0.2315  0.5344 -0.5137
 1505TIP3    H125930   2.248   6.040  11.169 -1.2412  0.8282 -1.6666
 1505TIP3    H225931   2.216   5.930  11.070 -1.5350 -0.6658  0.0329
 1506TIP3   OH225932   5.590   2.226   1.558  0.0935 -0.1800 -0.3157
 1506TIP3    H125933   5.514   2.258   1.509 -1.0136 -1.1819  0.6489
 1506TIP3    H225934   5.665   2.243   1.502 -1.1006 -1.2431 -2.3235
 1507TIP3   OH225935   3.327   1.879   4.916 -0.6753  0.3258  0.3722
 1507TIP3    H125936   3.304   1.806   4.858  0.8778  0.4839 -0.4995
 1507TIP3    H225937   3.306   1.847   5.004 -3.2556  0.1369 -0.2176
 1508TIP3   OH225938   3.409   0.335  15.490  0.1395 -0.2089 -0.1696
 1508TIP3    H125939   3.424   0.247  15.454 -0.4422 -0.4447  0.1481
 1508TIP3    H225940   3.314   0.341  15.500  0.1752  0.4587 -0.1853
 1509TIP3   OH225941   5.976   2.281   4.269  0.1096  0.2598 -0.1333
 1509TIP3    H125942   5.966   2.362   4.219 -1.8934  0.2369  0.1350
 1509TIP3    H225943   6.018   2.220   4.209  0.7829  1.2062 -0.6473
 1510TIP3   OH225944   0.871   1.543  14.369  0.0599  0.3590 -0.2856
 1510TIP3    H125945   0.811   1.596  14.422 -1.0316 -0.3142 -0.8278
 1510TIP3    H225946   0.951   1.540  14.421 -0.2235  1.6209  0.2629
 1511TIP3   OH225947   3.980   5.975  14.410 -0.5452  0.5693 -0.6350
 1511TIP3    H125948   4.005   5.883  14.413  0.9964  0.8804 -2.5990
 1511TIP3    H225949   3.914   5.983  14.479  0.0672 -1.7429  0.3243
 1512TIP3   OH225950   6.552   2.881   2.066 -0.0243 -0.0715  0.3247
 1512TIP3    H125951   6.616   2.812   2.087 -0.8248 -0.3977  1.8756
 1512TIP3    H225952   6.493   2.882   2.141 -1.1463  1.0413 -0.5279
 1513TIP3   OH225953   4.386   0.760   6.306  0.1594  0.0541 -0.0474
 1513TIP3    H125954   4.420   0.679   6.269  0.1784 -0.0508  0.2011
 1513TIP3    H225955   4.350   0.735   6.391  0.2978  0.3321  0.0958
 1514TIP3   OH225956   6.355   1.695   0.668  0.5325  0.3666 -0.1786
 1514TIP3    H125957   6.269   1.661   0.694  0.8873  1.5824  3.0173
 1514TIP3    H225958   6.334   1.768   0.610 -0.7535  1.6637  1.7993
 1515TIP3   OH225959   2.521   4.329  12.798  0.8993  0.0936 -0.5671
 1515TIP3    H125960   2.557   4.389  12.863 -0.5416 -0.5063  0.8490
 1515TIP3    H225961   2.447   4.377  12.760  1.3151  0.1771 -1.2808
 1516TIP3   OH225962   3.744   4.759  15.611  0.4426 -0.3433  0.2334
 1516TIP3    H125963   3.697   4.811  15.677 -0.1110  1.2935 -1.3613
 1516TIP3    H225964   3.833   4.796  15.611  0.0098  0.7721 -1.0007
 1517TIP3   OH225965   1.502   0.817   2.137  0.9674  0.0165  0.1578
 1517TIP3    H125966   1.547   0.822   2.053  1.2796 -1.2378  0.2169
 1517TIP3    H225967   1.476   0.725   2.144 -0.2549  0.3945  0.8312
 1518TIP3   OH225968   5.088   5.372  15.063  0.5889 -0.6844 -0.1534
 1518TIP3    H125969   5.023   5.302  15.055 -0.4729 -0.1444  2.5615
 1518TIP3    H225970   5.040   5.451  15.040  0.4430 -0.3605  1.2024
 1519TIP3   OH225971   0.372   4.019  13.020  0.3575 -0.0813 -0.2775
 1519TIP3    H125972   0.383   4.058  12.933  0.9299 -0.0165 -0.1768
 1519TIP3    H225973   0.430   3.943  13.020 -0.5608 -0.8037 -0.3818
 1520TIP3   OH225974   1.034   4.069  16.563 -0.4652 -0.0101 -0.0667
 1520TIP3    H125975   0.939   4.069  16.571 -0.5043 -1.9782  0.0333
 1520TIP3    H225976   1.065   4.109  16.645 -1.1942  0.1792  0.1231
 1521TIP3   OH225977   4.751   3.862   5.594 -0.2073  0.5009 -0.6490
 1521TIP3    H125978   4.709   3.890   5.675  0.5593  4.0535 -1.3458
 1521TIP3    H225979   4.823   3.805   5.622  0.3865  2.0826  1.2369
 1522TIP3   OH225980   3.705   2.222   2.898 -0.3856  0.3079  0.4190
 1522TIP3    H125981   3.617   2.240   2.865 -0.4967  1.8382  1.4317
 1522TIP3    H225982   3.698   2.233   2.993  1.1816  1.9677  0.4139
 1523TIP3   OH225983   3.928   4.456   4.272  0.0627  0.0247 -0.2372
 1523TIP3    H125984   3.876   4.480   4.195 -0.3740 -0.1047  0.0143
 1523TIP3    H225985   4.018   4.456   4.240 -0.2854 -2.6132 -1.4503
 1524TIP3   OH225986   5.965   6.442   4.263 -0.0360 -0.5095 -0.9309
 1524TIP3    H125987   5.948   6.518   4.207  1.5955  0.4585 -0.1718
 1524TIP3    H225988   5.916   6.371   4.221  0.3471  0.3915 -3.0634
 1525TIP3   OH225989   0.553   4.687  17.186 -0.3039  0.0780  0.2199
 1525TIP3    H125990   0.609   4.637  17.245  1.3896 -0.7265 -1.9058
 1525TIP3    H225991   0.569   4.647  17.100 -4.1824 -0.1707 -0.5538
 1526TIP3   OH225992   0.408   2.759   3.150 -0.3601 -0.3591  0.1134
 1526TIP3    H125993   0.369   2.734   3.233 -0.4544 -1.8649 -0.3515
 1526TIP3    H225994   0.492   2.799   3.173 -0.3356 -0.8652  0.9263
 1527TIP3   OH225995   6.553   3.506  11.124  0.4473 -0.3957  0.0529
 1527TIP3    H125996   6.467   3.548  11.131  1.7438  2.4933 -0.1130
 1527TIP3    H225997   6.544   3.425  11.174 -2.3290 -0.1593  0.1065
 1528TIP3   OH225998   0.289   1.330   5.563 -0.2841  0.1397 -0.5214
 1528TIP3    H125999   0.368   1.382   5.547  0.0715 -0.0104  0.6589
 1528TIP3    H226000   0.319   1.255   5.615 -0.5022 -2.1310 -3.4188
 1529TIP3   OH226001   6.650   4.077  16.080 -0.1141 -0.2438 -0.7558
 1529TIP3    H126002   6.610   4.146  16.133 -1.6591 -0.5787 -1.4296
 1529TIP3    H226003   6.684   4.123  16.003 -0.3487 -0.1073 -0.7817
 1530TIP3   OH226004   3.272   3.948  11.300  1.1735  0.1485 -0.2842
 1530TIP3    H126005   3.195   3.949  11.357  1.1669  1.5945 -0.2951
 1530TIP3    H226006   3.263   3.866  11.250 -0.3315  0.2677 -0.2640
 1531TIP3   OH226007   3.618   3.387  15.659  0.0379 -0.0155  0.4126
 1531TIP3    H126008   3.661   3.348  15.583  0.6330 -0.7804  1.1209
 1531TIP3    H226009   3.536   3.340  15.667  0.0906 -0.1118  0.3887
 1532TIP3   OH226010   0.200   3.381   6.369 -0.0234  0.1807  0.4353
 1532TIP3    H126011   0.283   3.415   6.337  0.3645  0.1810  1.4065
 1532TIP3    H226012   0.142   3.456   6.370  0.4290  0.5336  1.2521
 1533TIP3   OH226013   4.502   2.714  16.517 -0.2252 -0.1893  0.0604
 1533TIP3    H126014   4.441   2.764  16.462  0.8601  1.4811  0.2805
 1533TIP3    H226015   4.552   2.660  16.455 -1.7712 -1.4607 -0.1352
 1534TIP3   OH226016   5.902   0.949  11.681 -0.5296  0.2809 -0.4536
 1534TIP3    H126017   5.910   0.948  11.586 -1.6155  2.1555 -0.6188
 1534TIP3    H226018   5.896   1.042  11.703  0.7048 -0.0517  1.5560
 1535TIP3   OH226019   1.958   2.403  16.916 -0.3530 -0.0106  0.3562
 1535TIP3    H126020   1.966   2.321  16.868 -2.1438 -0.4816  0.7855
 1535TIP3    H226021   1.941   2.469  16.849 -0.6628 -0.2940  0.1537
 1536TIP3   OH226022   5.160   5.011  14.844  0.0104  0.2002 -0.4499
 1536TIP3    H126023   5.160   5.101  14.811 -0.9009  0.0394 -0.9363
 1536TIP3    H226024   5.235   4.970  14.802  0.7689  0.8809  0.2174
 1537TIP3   OH226025   4.330   1.206  16.406  0.3046 -0.0759  0.5528
 1537TIP3    H126026   4.317   1.180  16.497  0.4062  0.2950  0.6753
 1537TIP3    H226027   4.320   1.125  16.356 -1.4380 -0.0148  0.7405
 1538TIP3   OH226028   6.577   3.069  12.905  0.2930 -0.5966  0.9680
 1538TIP3    H126029   6.615   3.064  12.993 -1.1648 -2.0854  1.5615
 1538TIP3    H226030   6.591   2.982  12.868  1.1885  0.1033 -0.4463
 1539TIP3   OH226031   4.099   2.630  13.460  0.2441  0.2562  0.3755
 1539TIP3    H126032   4.135   2.709  13.419  1.0329  0.6689  1.8116
 1539TIP3    H226033   4.004   2.643  13.459  0.2710  0.4676 -0.8608
 1540TIP3   OH226034   1.280   2.901   2.058 -0.1589  0.3499  0.1148
 1540TIP3    H126035   1.216   2.964   2.092 -3.1929 -2.3452 -0.1917
 1540TIP3    H226036   1.258   2.891   1.966  1.0139 -0.3569 -0.1194
 1541TIP3   OH226037   1.183   0.862  11.021  0.1087  0.2748 -0.0179
 1541TIP3    H126038   1.127   0.786  11.035 -0.0107  0.0790 -1.3971
 1541TIP3    H226039   1.152   0.900  10.938  0.5927  1.4417  0.3122
 1542TIP3   OH226040   2.451   2.581   4.545 -0.0178 -0.1774 -0.1874
 1542TIP3    H126041   2.475   2.547   4.631  0.5246 -1.1741 -0.7096
 1542TIP3    H226042   2.486   2.517   4.483  0.0962  0.8011 -1.1815
 1543TIP3   OH226043   1.085   1.930   0.107 -0.4725 -0.5475 -0.1406
 1543TIP3    H126044   1.156   1.955   0.048  0.2120 -2.3037 -0.1064
 1543TIP3    H226045   1.074   2.006   0.164  0.6804  0.1495 -0.7994
 1544TIP3   OH226046   4.209   6.334   2.640  0.2767  1.0496  0.1082
 1544TIP3    H126047   4.156   6.261   2.609  1.0868  0.6432 -0.3583
 1544TIP3    H226048   4.223   6.388   2.562  0.5439  1.1574  0.2315
 1545TIP3   OH226049   6.003   0.082  13.209 -0.6152  0.1828  0.3797
 1545TIP3    H126050   5.930   0.045  13.160 -0.2811 -0.4350  0.3326
 1545TIP3    H226051   6.009   0.029  13.288 -0.3632  0.3730  0.4911
 1546TIP3   OH226052   0.866   3.504   5.474  0.0455  0.5888  0.7982
 1546TIP3    H126053   0.836   3.518   5.564  2.8588  2.0606  1.6037
 1546TIP3    H226054   0.795   3.541   5.420 -0.7748  1.6077  2.4697
 1547TIP3   OH226055   4.029   5.236  12.919 -0.3399  0.4565 -0.2239
 1547TIP3    H126056   3.996   5.238  12.829 -2.7962  1.7613  0.6022
 1547TIP3    H226057   3.985   5.162  12.960  0.0903  0.3922  0.1333
 1548TIP3   OH226058   4.631   6.388   4.704 -0.3677  0.0118 -0.3630
 1548TIP3    H126059   4.541   6.411   4.727 -0.6284 -0.2209 -1.1354
 1548TIP3    H226060   4.640   6.297   4.733 -1.0734 -0.6747 -2.1782
 1549TIP3   OH226061   2.453   5.556   1.858 -0.1842  0.1813 -0.1647
 1549TIP3    H126062   2.530   5.613   1.862 -0.2349  0.2973 -0.8344
 1549TIP3    H226063   2.380   5.614   1.881 -0.1204  0.1565  0.1092
 1550TIP3   OH226064   3.840   2.089  16.014 -0.5499  0.9242  0.4849
 1550TIP3    H126065   3.883   2.153  16.069 -1.2306  1.2461  0.6575
 1550TIP3    H226066   3.798   2.028  16.075 -1.0689  1.1193  0.3307
 1551TIP3   OH226067   2.008   2.062   3.103 -0.3340 -0.0886 -0.1159
 1551TIP3    H126068   2.061   2.080   3.025  1.1418  1.3492  1.1456
 1551TIP3    H226069   1.972   2.147   3.127 -2.7328 -0.9121 -0.5127
 1552TIP3   OH226070   4.286   4.981   3.657 -0.1694 -0.2349  0.0661
 1552TIP3    H126071   4.249   4.894   3.648 -1.1772  0.0690  0.9707
 1552TIP3    H226072   4.375   4.967   3.690 -1.1869 -0.9245  2.8566
 1553TIP3   OH226073   4.873   1.933  16.880 -0.8033 -0.0378 -0.1570
 1553TIP3    H126074   4.802   1.983  16.840 -0.6313 -0.1798 -0.6504
 1553TIP3    H226075   4.913   1.885  16.807 -2.7156 -3.1085  0.6342
 1554TIP3   OH226076   0.058   1.563   4.084 -0.5588 -0.5053  1.0018
 1554TIP3    H126077  -0.020   1.601   4.125 -0.0625  0.9728  0.6537
 1554TIP3    H226078   0.102   1.638   4.043  1.1724 -1.2496  1.4023
 1555TIP3   OH226079   1.394   0.343  14.407 -0.1844 -0.7204 -0.7134
 1555TIP3    H126080   1.483   0.308  14.399 -0.3117 -1.4431  0.6826
 1555TIP3    H226081   1.381   0.394  14.327  1.0773 -1.4970 -1.4526
 1556TIP3   OH226082   4.597   3.623  12.930 -0.7310 -0.6162 -0.3461
 1556TIP3    H126083   4.546   3.631  12.850 -0.9918 -1.1826 -0.2383
 1556TIP3    H226084   4.549   3.560  12.983  0.0721 -1.1582 -0.2461
 1557TIP3   OH226085   5.748   2.521   0.952 -0.4610 -0.1191 -0.2494
 1557TIP3    H126086   5.767   2.545   0.861 -1.1652 -0.1590 -0.4173
 1557TIP3    H226087   5.805   2.577   1.004  0.9868 -1.0917 -0.7390
 1558TIP3   OH226088   0.518   4.384  14.356 -0.5896  0.1217  0.0973
 1558TIP3    H126089   0.475   4.363  14.439 -0.7930 -0.6597 -0.1996
 1558TIP3    H226090   0.461   4.347  14.289  0.3871 -0.6991 -0.3116
 1559TIP3   OH226091   3.490   6.413   5.535 -0.0072  0.0163  0.3807
 1559TIP3    H126092   3.558   6.476   5.558  0.9992 -0.6002 -0.7806
 1559TIP3    H226093   3.471   6.368   5.618 -0.5315  1.6063  1.1619
 1560TIP3   OH226094   1.634   1.395   2.907 -0.2707  0.0313 -0.1716
 1560TIP3    H126095   1.594   1.474   2.869 -0.3736  0.6722  1.1963
 1560TIP3    H226096   1.722   1.423   2.932  0.3444 -0.8063 -1.2723
 1561TIP3   OH226097   6.136   3.353  10.779 -0.1580  0.2311  0.0451
 1561TIP3    H126098   6.136   3.376  10.686  0.0321  1.5713  0.3526
 1561TIP3    H226099   6.196   3.279  10.785  1.5429  1.4814 -0.6247
 1562TIP3   OH226100   1.768   4.270   3.525  0.1213  0.3454  0.4531
 1562TIP3    H126101   1.780   4.342   3.586  0.1803  3.1049 -2.5086
 1562TIP3    H226102   1.679   4.239   3.541 -0.7429  2.6274  0.4036
 1563TIP3   OH226103   6.309   5.296   6.222 -0.6896 -0.3856 -0.4547
 1563TIP3    H126104   6.273   5.214   6.255  0.4310 -1.2909 -1.3780
 1563TIP3    H226105   6.388   5.270   6.175 -0.4098  1.2125 -0.9286
 1564TIP3   OH226106   2.251   6.554  14.489 -0.3000  0.3996  0.3456
 1564TIP3    H126107   2.164   6.516  14.481 -0.7982  1.5817 -0.0986
 1564TIP3    H226108   2.261   6.573  14.582 -0.3153 -0.1891  0.4672
 1565TIP3   OH226109   6.601   2.495   3.924 -0.4170  0.1689  0.3807
 1565TIP3    H126110   6.517   2.450   3.916  0.7257 -2.0245 -0.4233
 1565TIP3    H226111   6.624   2.518   3.834 -0.2459  0.9300  0.6153
 1566TIP3   OH226112   1.674   4.649  11.405  0.6309 -0.4449 -0.0169
 1566TIP3    H126113   1.604   4.684  11.460  1.1740 -0.0623  0.4334
 1566TIP3    H226114   1.655   4.683  11.317 -0.5013 -1.4274 -0.1882
 1567TIP3   OH226115   0.351   0.767  15.194 -0.3248 -0.4154  0.1635
 1567TIP3    H126116   0.419   0.810  15.141  0.5495 -1.4039  0.4470
 1567TIP3    H226117   0.322   0.694  15.140  0.5023 -1.3722  0.9766
 1568TIP3   OH226118   1.182   1.868  11.809  0.1971 -0.4665  0.0085
 1568TIP3    H126119   1.257   1.814  11.834  1.2704  2.0782  3.0903
 1568TIP3    H226120   1.111   1.837  11.865  0.7201  0.8470  1.5187
 1569TIP3   OH226121   0.804   0.503   2.020 -0.1443  0.2424  0.3377
 1569TIP3    H126122   0.712   0.517   2.043 -0.2263  1.5052 -0.6347
 1569TIP3    H226123   0.843   0.591   2.024  1.0621 -0.2882  0.8417
 1570TIP3   OH226124   2.780   5.810   5.182  0.0493  0.0317  0.5378
 1570TIP3    H126125   2.859   5.761   5.162  0.2172  0.4643  0.1332
 1570TIP3    H226126   2.711   5.744   5.188  0.3285 -0.2809  0.2743
 1571TIP3   OH226127   6.154   3.879  11.757 -0.0083  0.3992  0.3556
 1571TIP3    H126128   6.197   3.960  11.730  0.6417  0.8062  2.4568
 1571TIP3    H226129   6.071   3.907  11.794  0.3052  0.1389  1.2718
 1572TIP3   OH226130   1.608   4.818   1.464  0.4852  0.3410 -0.2630
 1572TIP3    H126131   1.572   4.829   1.552 -1.1176  0.3738 -0.8838
 1572TIP3    H226132   1.687   4.766   1.477  0.9274  1.3108  1.3063
 1573TIP3   OH226133   4.263   2.722  14.771  0.4292  0.0600  0.4022
 1573TIP3    H126134   4.241   2.808  14.806 -0.4476 -0.1793  0.4426
 1573TIP3    H226135   4.205   2.661  14.816  2.4186 -0.8394  1.9059
 1574TIP3   OH226136   0.013   6.706  11.239 -1.1674  0.3159 -0.0533
 1574TIP3    H126137  -0.025   6.672  11.320 -1.0277  0.2610 -0.0099
 1574TIP3    H226138  -0.011   6.642  11.172  1.1691 -1.2452  0.4369
 1575TIP3   OH226139   5.922   5.486  12.617  0.4353  0.1011  0.6767
 1575TIP3    H126140   5.910   5.479  12.523 -1.7419  1.2475  0.8112
 1575TIP3    H226141   6.016   5.472  12.630  0.4078 -2.5917 -1.3467
 1576TIP3   OH226142   4.643   1.744  15.734 -0.2375  0.0613  0.0486
 1576TIP3    H126143   4.613   1.653  15.739 -1.1348  0.3658  0.4568
 1576TIP3    H226144   4.601   1.779  15.656  0.9151 -0.1401 -0.6885
 1577TIP3   OH226145   0.459   2.867   2.130  0.4723 -0.1006  0.0866
 1577TIP3    H126146   0.412   2.848   2.048 -1.1579  0.4316  0.8465
 1577TIP3    H226147   0.410   2.940   2.169  1.1974 -0.3564  1.5406
 1578TIP3   OH226148   4.898   0.005  12.193 -0.0355  0.1646  0.4578
 1578TIP3    H126149   4.968   0.002  12.258 -0.4851 -0.8824  0.9206
 1578TIP3    H226150   4.865  -0.085  12.189 -1.6550  0.7106  0.6206
 1579TIP3   OH226151   6.685   2.372  10.231  0.5271  0.5060 -0.7978
 1579TIP3    H126152   6.725   2.439  10.175  1.1428  0.6863 -0.1623
 1579TIP3    H226153   6.734   2.378  10.314  1.4091 -1.5515 -1.1180
 1580TIP3   OH226154   6.013   5.386  17.061 -0.0025 -0.4206  0.2332
 1580TIP3    H126155   5.921   5.378  17.036 -0.1303  0.8125  0.2429
 1580TIP3    H226156   6.015   5.463  17.118  1.1456 -0.0075 -0.3519
 1581TIP3   OH226157   2.986   1.364   0.329  0.3693  0.3117  0.0907
 1581TIP3    H126158   2.933   1.442   0.342  1.9461  1.2431  1.3957
 1581TIP3    H226159   2.928   1.291   0.350 -0.8007  1.1881 -0.0129
 1582TIP3   OH226160   5.563   5.965  13.337 -0.1157  0.1812  0.1166
 1582TIP3    H126161   5.583   6.026  13.266 -1.3184  0.5088  0.0257
 1582TIP3    H226162   5.611   5.886  13.315  1.0369  0.9021 -0.0587
 1583TIP3   OH226163   5.092   0.584  12.519  0.5183  0.4667  1.0942
 1583TIP3    H126164   5.159   0.557  12.582 -0.0995 -0.4262  1.3836
 1583TIP3    H226165   5.037   0.507  12.508 -0.4609  1.1828  0.8508
 1584TIP3   OH226166   1.580   4.884   6.298  0.3334  0.1356  0.4980
 1584TIP3    H126167   1.602   4.853   6.386 -1.6549  0.4877  1.1766
 1584TIP3    H226168   1.516   4.954   6.313 -0.2403  0.0270 -1.2339
 1585TIP3   OH226169   1.958   0.638   0.210  0.0741 -0.3961 -0.5948
 1585TIP3    H126170   2.042   0.595   0.196 -0.0261 -0.6608 -0.3971
 1585TIP3    H226171   1.909   0.578   0.266  1.0416  1.3284  2.3058
 1586TIP3   OH226172   2.364   3.614   0.620  0.7186 -0.2256 -0.3320
 1586TIP3    H126173   2.334   3.673   0.689  0.1118  1.2371 -1.7942
 1586TIP3    H226174   2.426   3.665   0.569 -0.3201 -0.5680 -2.0273
 1587TIP3   OH226175   4.065   3.207   4.519  0.2362 -0.2425  0.1711
 1587TIP3    H126176   4.096   3.277   4.576 -0.7265 -0.1768  0.6478
 1587TIP3    H226177   3.976   3.233   4.495 -0.5180 -1.7201  1.1413
 1588TIP3   OH226178   5.365   1.324  17.011 -0.2366  0.4763  0.5388
 1588TIP3    H126179   5.336   1.256  17.072  0.0285 -1.3211 -1.2333
 1588TIP3    H226180   5.301   1.395  17.022 -0.5188 -0.0166  2.4422
 1589TIP3   OH226181   6.116   1.300   3.707 -0.0721 -0.1729  0.4240
 1589TIP3    H126182   6.058   1.224   3.706  0.6968 -0.7716  0.0940
 1589TIP3    H226183   6.087   1.352   3.632  1.6478 -1.9318 -1.6146
 1590TIP3   OH226184   0.794   4.345  13.912 -0.3035  1.1533  0.2526
 1590TIP3    H126185   0.769   4.375  13.999  0.1071  0.0019  0.7807
 1590TIP3    H226186   0.754   4.409  13.852 -0.0967  2.2949  1.2927
 1591TIP3   OH226187   4.269   2.268   4.171  0.3236  0.3654 -0.2006
 1591TIP3    H126188   4.354   2.244   4.135 -0.0446 -0.1403 -0.7557
 1591TIP3    H226189   4.231   2.185   4.200 -0.2182  0.5101 -0.4789
 1592TIP3   OH226190   3.631   0.009   1.494 -0.1738 -0.2642 -0.2807
 1592TIP3    H126191   3.565   0.063   1.450 -0.8656 -0.8059  0.0629
 1592TIP3    H226192   3.661  -0.052   1.426  0.9273  0.8068 -0.7889
 1593TIP3   OH226193   2.356   3.780   3.840  0.1403 -0.0590  0.0732
 1593TIP3    H126194   2.326   3.752   3.926 -0.8318  1.3436  0.2285
 1593TIP3    H226195   2.285   3.756   3.780  0.5924 -0.5776 -0.2587
 1594TIP3   OH226196   5.378   6.500  14.752  0.1345  0.0012 -0.0839
 1594TIP3    H126197   5.367   6.479  14.659  1.9626  2.1561 -0.8745
 1594TIP3    H226198   5.462   6.460  14.775  0.5741  0.9955  0.1026
 1595TIP3   OH226199   0.681   4.621   3.700 -0.2491 -0.5345 -0.0520
 1595TIP3    H126200   0.598   4.631   3.654  0.3007  0.6226 -0.8273
 1595TIP3    H226201   0.655   4.607   3.792 -1.3209 -1.9839 -0.5338
 1596TIP3   OH226202   2.740   0.669   3.946  0.0316  0.0221 -0.0834
 1596TIP3    H126203   2.710   0.705   4.030  0.3301 -1.1378  0.5382
 1596TIP3    H226204   2.820   0.622   3.967 -1.4056 -2.7859 -0.4231
 1597TIP3   OH226205   4.561   3.143   5.531  0.2225 -0.0928 -0.1950
 1597TIP3    H126206   4.480   3.181   5.567 -0.6001 -1.3957 -0.6028
 1597TIP3    H226207   4.544   3.049   5.530 -0.2761 -0.1881 -4.9811
 1598TIP3   OH226208   2.452   0.672  17.213  0.4303 -0.0133 -0.2480
 1598TIP3    H126209   2.527   0.628  17.255 -0.7555  0.7932  3.0377
 1598TIP3    H226210   2.491   0.746  17.166  1.7303  0.8040  1.9723
 1599TIP3   OH226211   3.270   2.471   6.098 -0.2316  0.2479 -0.3916
 1599TIP3    H126212   3.280   2.412   6.173  2.0883  1.0296  0.0113
 1599TIP3    H226213   3.297   2.419   6.022  1.8065  0.6775 -0.0378
 1600TIP3   OH226214   5.994   4.581   2.020 -0.2899  0.0263  0.0037
 1600TIP3    H126215   6.073   4.538   1.989  0.2647  0.1092  1.2377
 1600TIP3    H226216   5.940   4.592   1.941  1.1351  0.4452 -0.9640
 1601TIP3   OH226217   3.152   0.394  15.167  0.2634 -0.2554 -0.0894
 1601TIP3    H126218   3.092   0.382  15.093  0.3518 -1.3040 -0.0105
 1601TIP3    H226219   3.137   0.484  15.196  1.6842  0.8838 -2.6377
 1602TIP3   OH226220   5.030   3.887  16.452 -0.9573 -0.0467 -0.3870
 1602TIP3    H126221   5.077   3.882  16.535 -1.1265  0.0157 -0.2880
 1602TIP3    H226222   4.951   3.937  16.472 -0.6351  0.6256 -0.7446
 1603TIP3   OH226223   2.787   5.725   6.087  0.1983 -0.2909  0.0398
 1603TIP3    H126224   2.732   5.646   6.089 -0.1536 -0.0395  0.2549
 1603TIP3    H226225   2.813   5.739   6.178  3.9423 -2.6993 -0.3985
 1604TIP3   OH226226   5.380   3.497  10.641  0.2514 -0.0747 -0.5552
 1604TIP3    H126227   5.472   3.512  10.664 -0.1912  0.5515  0.9511
 1604TIP3    H226228   5.376   3.405  10.615  1.2372 -0.2302 -0.2051
 1605TIP3   OH226229   2.446   0.732   3.456  0.5880 -0.0620 -0.6340
 1605TIP3    H126230   2.431   0.689   3.540  1.6012  0.1593 -0.3234
 1605TIP3    H226231   2.533   0.772   3.465  1.0044 -0.6016 -2.0223
 1606TIP3   OH226232   1.536   4.711  16.680  0.2989 -0.1690  0.0361
 1606TIP3    H126233   1.485   4.736  16.757  0.3874  0.2387 -0.0368
 1606TIP3    H226234   1.471   4.691  16.613  0.2168  1.6481 -0.4777
 1607TIP3   OH226235   1.878   1.059  10.918 -0.3358 -0.5417 -0.5552
 1607TIP3    H126236   1.817   1.130  10.898  0.0422  0.0530  0.3365
 1607TIP3    H226237   1.836   1.009  10.987  0.2258 -0.0437  0.1666
 1608TIP3   OH226238   5.040   3.961   4.214 -0.6250  0.0820  0.2182
 1608TIP3    H126239   4.953   3.922   4.205 -0.5087 -0.3349  0.8750
 1608TIP3    H226240   5.084   3.909   4.281  0.1502  0.2661 -0.1311
 1609TIP3   OH226241   3.744   5.738  16.026  0.0216 -0.0607 -0.3505
 1609TIP3    H126242   3.794   5.685  16.088 -2.1998 -1.7888  0.1198
 1609TIP3    H226243   3.791   5.821  16.021  1.0637 -0.3535  2.5779
 1610TIP3   OH226244   1.759   3.193  13.262 -0.2119 -0.0195  0.4156
 1610TIP3    H126245   1.828   3.227  13.318 -0.2218 -0.2313  0.5573
 1610TIP3    H226246   1.741   3.105  13.295  1.3416 -1.0538 -1.2796
 1611TIP3   OH226247   1.732   4.720   1.230 -0.6168 -0.0017 -0.0557
 1611TIP3    H126248   1.653   4.774   1.242 -1.1086 -0.5440 -0.7380
 1611TIP3    H226249   1.765   4.706   1.319 -0.8231  0.9177  0.1742
 1612TIP3   OH226250   4.303   5.460   1.450 -0.1779  0.0799 -0.0555
 1612TIP3    H126251   4.262   5.404   1.384 -2.2011  1.6098 -0.2024
 1612TIP3    H226252   4.295   5.548   1.415  0.1207  0.7813  1.5318
 1613TIP3   OH226253   5.839   3.445  13.344  0.2208 -0.0836 -0.2837
 1613TIP3    H126254   5.931   3.468  13.330  0.1169  0.2022 -0.5058
 1613TIP3    H226255   5.811   3.499  13.418  1.1531 -2.5875  2.0675
 1614TIP3   OH226256   5.059   3.487   5.024 -0.0244  0.4883  0.2248
 1614TIP3    H126257   5.059   3.518   4.933 -1.8530 -1.6098 -0.5614
 1614TIP3    H226258   4.968   3.499   5.053  0.6188  1.5068  1.9620
 1615TIP3   OH226259   0.007   0.663   4.542 -0.5952  0.1229 -0.0408
 1615TIP3    H126260  -0.026   0.635   4.457  0.5932  1.4353 -0.9905
 1615TIP3    H226261  -0.046   0.616   4.606 -1.5379 -0.8657 -1.5060
 1616TIP3   OH226262   3.650   3.187   2.460 -0.0504  0.2129 -0.4039
 1616TIP3    H126263   3.560   3.195   2.490  0.4684  2.1382  0.7936
 1616TIP3    H226264   3.692   3.128   2.523 -0.4467 -0.7113 -0.9820
 1617TIP3   OH226265   5.664   3.108  14.118 -0.5124  0.2300  0.0643
 1617TIP3    H126266   5.636   3.026  14.160  0.7599 -0.5535 -0.5652
 1617TIP3    H226267   5.724   3.080  14.049 -2.2826  1.4745 -2.1365
 1618TIP3   OH226268   0.505   3.721   3.836  0.5152  0.8552 -0.3679
 1618TIP3    H126269   0.436   3.670   3.879  1.0702 -0.4520 -0.9907
 1618TIP3    H226270   0.495   3.701   3.743  0.7185  1.9397 -0.6404
 1619TIP3   OH226271   6.112   6.339  17.151  0.2170 -0.3480 -0.1756
 1619TIP3    H126272   6.135   6.403  17.083 -0.3619  2.4506  2.1011
 1619TIP3    H226273   6.193   6.329  17.202  0.3478 -1.6322 -0.5969
 1620TIP3   OH226274   3.572   2.609  16.927 -0.6335 -0.0572 -0.3635
 1620TIP3    H126275   3.523   2.530  16.947 -0.0064 -0.4389 -0.2914
 1620TIP3    H226276   3.603   2.597  16.837 -0.5838  0.1307 -0.3737
 1621TIP3   OH226277   2.855   5.811   5.460  0.0421  0.2438 -0.6315
 1621TIP3    H126278   2.936   5.771   5.428 -0.0827 -1.6002  1.1324
 1621TIP3    H226279   2.806   5.831   5.381  0.9729 -1.3641 -1.6877
 1622TIP3   OH226280   6.283   4.024   1.456  0.6061 -0.1255  0.1204
 1622TIP3    H126281   6.362   4.018   1.402  0.9203  2.0392  0.2888
 1622TIP3    H226282   6.249   4.111   1.439 -1.6576 -0.9200  0.2324
 1623TIP3   OH226283   1.907   2.472  15.268 -0.4061  0.3222  0.5068
 1623TIP3    H126284   1.948   2.552  15.302 -1.5696  2.0735 -1.9560
 1623TIP3    H226285   1.859   2.436  15.344  1.7650  0.7744  2.1885
 1624TIP3   OH226286   0.602   0.602   2.192 -0.0814 -0.0002  0.0001
 1624TIP3    H126287   0.637   0.687   2.163  1.2009 -0.1389  1.0204
 1624TIP3    H226288   0.552   0.623   2.270  0.9404 -0.2664  0.7415
 1625TIP3   OH226289   6.239   6.329  13.658 -0.5388 -0.5694  0.7146
 1625TIP3    H126290   6.315   6.287  13.618 -0.7281  0.1133 -0.4019
 1625TIP3    H226291   6.270   6.417  13.681 -1.2193  0.0393 -0.6006
 1626TIP3   OH226292   2.908   1.375  15.197  0.3281  0.1024 -0.2778
 1626TIP3    H126293   2.828   1.324  15.185 -0.1723  0.7487  0.2055
 1626TIP3    H226294   2.969   1.341  15.131  0.0757 -1.2130  0.1569
 1627TIP3   OH226295   3.167   2.351   5.226 -0.5525  0.2097 -0.0788
 1627TIP3    H126296   3.191   2.387   5.312 -0.2707 -0.5207  0.1567
 1627TIP3    H226297   3.074   2.369   5.217 -0.3326  1.3634 -0.1468
 1628TIP3   OH226298   4.157   2.000  17.163  0.3537 -0.7509  0.0822
 1628TIP3    H126299   4.072   1.958  17.175  1.1080 -2.2272  0.5534
 1628TIP3    H226300   4.165   2.060  17.237  0.8862 -2.7031  1.7038
 1629TIP3   OH226301   3.727   5.054   2.908 -0.1956 -0.0149  0.6311
 1629TIP3    H126302   3.760   5.133   2.865  0.6126 -1.0174 -0.6865
 1629TIP3    H226303   3.800   5.022   2.960 -0.1023 -0.5409  0.1909
 1630TIP3   OH226304   5.253   3.186  11.408  0.3722 -0.1136  0.2920
 1630TIP3    H126305   5.278   3.179  11.500 -1.3091 -0.0983  0.7934
 1630TIP3    H226306   5.191   3.259  11.406  0.3969 -0.0981 -0.8640
 1631TIP3   OH226307   5.218   4.855  12.306  0.3302 -0.8430  0.1826
 1631TIP3    H126308   5.310   4.832  12.319  0.7798  0.1967 -0.9261
 1631TIP3    H226309   5.187   4.882  12.393  1.9069  1.5067  0.1166
 1632TIP3   OH226310   1.866   2.091   2.456  0.0861  0.3092 -0.0237
 1632TIP3    H126311   1.799   2.051   2.511  1.0416 -0.7466  0.3991
 1632TIP3    H226312   1.907   2.158   2.511  0.9299 -0.6335  0.5281
 1633TIP3   OH226313   5.527   4.094   4.514  0.2516  0.5548 -0.0543
 1633TIP3    H126314   5.454   4.093   4.453 -0.2433  1.5313  0.4989
 1633TIP3    H226315   5.596   4.142   4.469 -0.0331  1.0751  0.0550
 1634TIP3   OH226316   6.543   0.436   5.173  0.0733 -0.0009  0.6122
 1634TIP3    H126317   6.583   0.521   5.154 -0.8548  0.0453 -1.3005
 1634TIP3    H226318   6.477   0.424   5.105 -0.4761 -1.8391  1.4026
 1635TIP3   OH226319   2.715   6.180  15.675  0.1932  0.2100 -0.0164
 1635TIP3    H126320   2.769   6.188  15.754 -0.0809  2.0653  0.0462
 1635TIP3    H226321   2.625   6.189  15.708 -0.0663 -1.0366 -0.3302
 1636TIP3   OH226322   0.385   6.018   2.832  0.2905 -0.4496 -0.3241
 1636TIP3    H126323   0.363   6.028   2.739  2.0029 -3.5045 -1.2020
 1636TIP3    H226324   0.415   6.105   2.859 -1.3726  0.8150 -2.2724
 1637TIP3   OH226325   1.235   4.876  16.411  0.5537  0.6948  0.2959
 1637TIP3    H126326   1.220   4.895  16.318 -0.5981  2.9917  0.8738
 1637TIP3    H226327   1.329   4.891  16.424  0.9676 -0.8103 -0.6904
 1638TIP3   OH226328   6.696   5.067  11.226  0.0966 -0.0888  0.0635
 1638TIP3    H126329   6.611   5.110  11.213  0.6841  0.4809 -2.2948
 1638TIP3    H226330   6.733   5.061  11.139  2.2336 -0.9157  0.9731
 1639TIP3   OH226331   2.856   4.948  15.824  0.1234  0.1307  0.0937
 1639TIP3    H126332   2.914   4.897  15.881 -0.6174 -0.0610  0.6938
 1639TIP3    H226333   2.793   4.883  15.791 -1.5621  0.7935  1.7918
 1640TIP3   OH226334   6.144   2.851  15.126  0.0571  0.5461  0.9852
 1640TIP3    H126335   6.182   2.895  15.050 -2.2080  1.9556  0.5656
 1640TIP3    H226336   6.170   2.906  15.200 -0.6762  1.2247  0.7595
 1641TIP3   OH226337   0.884   5.370  15.446  0.3083 -0.0969 -0.8573
 1641TIP3    H126338   0.887   5.388  15.540 -0.7168 -0.4463 -0.7430
 1641TIP3    H226339   0.847   5.282  15.440  0.3378 -0.0616 -1.5904
 1642TIP3   OH226340   5.496   4.759  15.913  0.9280  0.3146 -0.0474
 1642TIP3    H126341   5.579   4.793  15.880  1.4067 -0.1317  0.6712
 1642TIP3    H226342   5.513   4.667  15.931  0.4841  0.3885  0.7737
 1643TIP3   OH226343   1.046   3.953  15.963 -0.0711 -0.6082  0.5121
 1643TIP3    H126344   1.138   3.934  15.945 -0.0915 -0.1967 -0.0942
 1643TIP3    H226345   1.046   3.993  16.050  0.8629  2.9877 -0.9375
 1644TIP3   OH226346   3.600   4.820  15.848  0.0297  0.3426 -0.2599
 1644TIP3    H126347   3.509   4.790  15.846  0.4969 -1.6911  2.5454
 1644TIP3    H226348   3.611   4.856  15.935  1.4112  2.5912 -1.2879
 1645TIP3   OH226349   3.778   5.004   0.861  0.4968  0.1457 -0.2143
 1645TIP3    H126350   3.716   4.964   0.801  1.7417  1.2197 -2.3446
 1645TIP3    H226351   3.862   5.000   0.815  1.8924 -0.5498  2.2128
 1646TIP3   OH226352   6.085   4.971   5.294 -0.5099  0.1088 -0.8312
 1646TIP3    H126353   6.147   4.982   5.223 -1.6171  0.4924 -1.7699
 1646TIP3    H226354   6.052   5.059   5.311  0.9697  0.3272  1.3525
 1647TIP3   OH226355   0.912   1.592   3.317 -0.0981 -0.2277  0.9088
 1647TIP3    H126356   0.989   1.544   3.348  1.2287 -0.5503 -2.5424
 1647TIP3    H226357   0.932   1.684   3.335  2.0403 -0.1213 -1.5517
 1648TIP3   OH226358   1.973   4.066   3.749  0.2337 -0.3146  0.5121
 1648TIP3    H126359   1.901   4.005   3.730  1.0184 -1.4814  1.1623
 1648TIP3    H226360   1.998   4.046   3.839 -0.4719  2.0384  1.3168
 1649TIP3   OH226361   1.834   2.186   4.780 -0.1701  0.9592  0.0618
 1649TIP3    H126362   1.911   2.186   4.723  0.6430  1.8559  1.1166
 1649TIP3    H226363   1.869   2.173   4.868 -0.9830  3.1795  0.7921
 1650TIP3   OH226364   3.533   0.707  12.530  0.1966 -0.2112 -0.3874
 1650TIP3    H126365   3.593   0.640  12.561  0.6386 -0.4155 -1.6126
 1650TIP3    H226366   3.490   0.667  12.455  0.3165  0.7919 -1.0089
 1651TIP3   OH226367   4.345   4.065   2.476  0.1484  0.4369  0.2301
 1651TIP3    H126368   4.398   4.114   2.539  1.4228  0.7624 -1.0546
 1651TIP3    H226369   4.359   3.974   2.499  3.8264  0.3054 -1.9196
 1652TIP3   OH226370   6.612   3.052   3.385 -0.3543 -0.4774 -0.6840
 1652TIP3    H126371   6.646   3.126   3.434 -1.4930  0.4097 -1.1885
 1652TIP3    H226372   6.661   3.053   3.303  1.1619 -1.6315  0.1550
 1653TIP3   OH226373   1.506   6.222  16.410  0.3037 -0.3908  0.6235
 1653TIP3    H126374   1.428   6.168  16.403  0.8499 -1.0899 -0.2167
 1653TIP3    H226375   1.525   6.225  16.504 -1.0026  0.2094  0.8932
 1654TIP3   OH226376   1.151   3.024  12.369 -0.2312  0.2862 -0.1583
 1654TIP3    H126377   1.142   2.990  12.280 -0.7251  0.2337 -0.0941
 1654TIP3    H226378   1.234   3.072  12.369  0.5070 -0.9594 -0.2376
 1655TIP3   OH226379   0.710   3.410   4.325  0.4720 -0.4963  0.3248
 1655TIP3    H126380   0.723   3.316   4.311 -2.2915 -1.2902  2.2798
 1655TIP3    H226381   0.732   3.424   4.417 -1.1645  0.3059  0.6214
 1656TIP3   OH226382   1.707   6.114   6.778 -0.8837  0.0854 -0.1601
 1656TIP3    H126383   1.757   6.185   6.819 -0.3465 -1.6716  2.5291
 1656TIP3    H226384   1.763   6.036   6.790 -2.2532 -1.1270 -1.2959
 1657TIP3   OH226385   4.996   1.783   5.230  0.1422 -0.4069 -0.1843
 1657TIP3    H126386   4.967   1.815   5.145  2.6060 -0.8071 -1.2419
 1657TIP3    H226387   5.013   1.690   5.217 -0.4075 -0.6997  1.0357
 1658TIP3   OH226388   4.975   0.074  14.363 -0.3852 -0.4766  0.1236
 1658TIP3    H126389   4.882   0.049  14.362  0.0781 -2.3756  1.1782
 1658TIP3    H226390   5.013   0.031  14.287 -0.6100  1.5780 -1.2369
 1659TIP3   OH226391   0.827   5.216  12.501  0.0242 -0.4382  0.4387
 1659TIP3    H126392   0.884   5.293  12.498 -1.0887  0.3934 -0.3796
 1659TIP3    H226393   0.849   5.172  12.583 -0.6261  1.8054  1.8940
 1660TIP3   OH226394   0.073   0.236   4.629  0.6959 -0.1328 -0.6363
 1660TIP3    H126395  -0.018   0.257   4.649  1.3926  1.6782  0.9432
 1660TIP3    H226396   0.098   0.300   4.563  1.0509 -0.0983 -0.4707
 1661TIP3   OH226397   0.665   6.660   2.815 -0.2005  0.2654  1.3414
 1661TIP3    H126398   0.725   6.591   2.846 -1.8195 -1.9718 -0.1718
 1661TIP3    H226399   0.591   6.655   2.875 -0.2626  0.8346  1.3124
 1662TIP3   OH226400   1.985   5.459   2.377 -0.2777  0.4684  0.3852
 1662TIP3    H126401   2.080   5.463   2.373 -0.3152  1.3097  0.1912
 1662TIP3    H226402   1.958   5.549   2.392 -1.0532  0.2534  0.3200
 1663TIP3   OH226403   1.412   2.578   0.516 -0.3349 -0.6635  0.4938
 1663TIP3    H126404   1.421   2.485   0.538 -1.0529 -0.4900  1.6392
 1663TIP3    H226405   1.325   2.601   0.548 -0.2990  0.3274 -0.0929
 1664TIP3   OH226406   6.322   1.014   2.536  0.0211 -0.0729 -0.1548
 1664TIP3    H126407   6.310   0.969   2.620 -0.3542 -0.0614 -0.2008
 1664TIP3    H226408   6.237   1.055   2.518 -0.0278 -0.4003 -0.7295
 1665TIP3   OH226409   0.798   2.348   3.717  0.1815 -0.2452  0.1077
 1665TIP3    H126410   0.723   2.351   3.777 -0.9895 -0.3696 -1.2771
 1665TIP3    H226411   0.809   2.256   3.697  2.1682 -0.4798  1.9856
 1666TIP3   OH226412   3.710   2.008   3.753 -0.1863  0.2899 -0.0791
 1666TIP3    H126413   3.724   2.085   3.808  2.8970  0.3059 -0.6735
 1666TIP3    H226414   3.706   2.042   3.664  0.9367 -0.1572 -0.3216
 1667TIP3   OH226415   5.583   1.378   4.199 -0.0597  0.7219 -1.0730
 1667TIP3    H126416   5.607   1.359   4.290  1.6823 -0.5142 -1.7263
 1667TIP3    H226417   5.543   1.297   4.167 -0.5339  1.1008 -1.4700
 1668TIP3   OH226418   4.284   5.932  15.686  0.6257 -0.0438 -0.3466
 1668TIP3    H126419   4.199   5.893  15.704  0.9152 -1.1121 -1.1755
 1668TIP3    H226420   4.267   6.025  15.676 -0.0887  0.0904  1.7331
 1669TIP3   OH226421   2.383   3.002   5.478  0.8094 -0.3479  0.1383
 1669TIP3    H126422   2.465   2.982   5.522  1.0951  0.2885 -0.1031
 1669TIP3    H226423   2.357   2.919   5.437  0.8488 -0.7872  0.9805
 1670TIP3   OH226424   4.976   6.171  14.214  0.4282 -0.4927  0.2958
 1670TIP3    H126425   5.011   6.205  14.132  0.1499 -0.9319 -0.0028
 1670TIP3    H226426   4.923   6.095  14.189 -1.1208  0.4088  0.6826
 1671TIP3   OH226427   5.412   4.396  11.986 -0.4031 -0.0740 -0.3391
 1671TIP3    H126428   5.382   4.422  11.899 -1.6677  1.9436  0.6342
 1671TIP3    H226429   5.394   4.472  12.042 -1.2926 -1.9023  2.0485
 1672TIP3   OH226430   5.628   3.588  17.220 -0.5547 -0.6937 -0.0681
 1672TIP3    H126431   5.558   3.653  17.222 -0.8427 -1.0039 -0.0847
 1672TIP3    H226432   5.583   3.504  17.211 -0.1358 -0.8115 -1.1950
 1673TIP3   OH226433   6.572   3.566  12.925 -0.1605 -0.1394 -0.3415
 1673TIP3    H126434   6.519   3.626  12.977 -1.2228 -1.4449  0.1046
 1673TIP3    H226435   6.624   3.624  12.869 -1.6349  1.1983 -0.3998
 1674TIP3   OH226436   1.371   4.814   4.199 -0.1299 -0.2599 -0.2638
 1674TIP3    H126437   1.393   4.801   4.291 -0.3813 -0.3531 -0.2140
 1674TIP3    H226438   1.365   4.909   4.188 -3.3034 -0.2305  0.6305
 1675TIP3   OH226439   4.692   2.038  15.918 -0.2519 -0.0036  0.4077
 1675TIP3    H126440   4.631   2.029  15.845  1.2072 -3.2443 -0.6172
 1675TIP3    H226441   4.737   2.120  15.902 -1.3998  0.3651 -1.1774
 1676TIP3   OH226442   6.281   0.183  11.876  0.2416 -0.2122 -0.6564
 1676TIP3    H126443   6.256   0.091  11.870 -2.6930  0.4894 -0.8158
 1676TIP3    H226444   6.305   0.207  11.786 -1.1612 -0.3319 -1.0885
 1677TIP3   OH226445   6.671   5.703   1.612  0.1689  0.4189  0.0823
 1677TIP3    H126446   6.751   5.681   1.660 -0.3707 -0.1294  0.7723
 1677TIP3    H226447   6.605   5.714   1.681 -0.5321  0.0292 -0.5199
 1678TIP3   OH226448   0.472   1.789  13.000  0.0845 -0.3705 -0.7113
 1678TIP3    H126449   0.479   1.761  12.909 -0.5911 -1.9699 -0.3197
 1678TIP3    H226450   0.384   1.760  13.027 -1.2175  3.2462 -0.5412
 1679TIP3   OH226451   4.208   6.606  15.993 -0.5154 -0.2607  0.7463
 1679TIP3    H126452   4.286   6.620  16.047  0.0221 -0.4230  0.0204
 1679TIP3    H226453   4.160   6.688  16.001  0.0843  0.1126  0.6290
 1680TIP3   OH226454   4.633   5.722  13.128 -1.2873  0.2758 -0.2199
 1680TIP3    H126455   4.604   5.632  13.140 -0.1197 -0.0211  0.5500
 1680TIP3    H226456   4.602   5.768  13.207  1.2587 -0.3175  1.2147
 1681TIP3   OH226457   0.270   3.506  14.086  0.4520 -0.4972 -0.1368
 1681TIP3    H126458   0.307   3.538  14.168 -1.6300 -0.4496  0.8598
 1681TIP3    H226459   0.220   3.428  14.111  0.3640 -0.9040 -1.4964
 1682TIP3   OH226460   4.324   5.313  16.313  0.0680 -0.2596  0.0844
 1682TIP3    H126461   4.406   5.315  16.363 -0.1873  0.7241  0.4884
 1682TIP3    H226462   4.350   5.333  16.223  0.2443  0.3708  0.2693
 1683TIP3   OH226463   4.351   2.303  16.258 -0.5313  0.1747 -0.9585
 1683TIP3    H126464   4.374   2.333  16.170 -0.9258  0.8745 -0.8321
 1683TIP3    H226465   4.304   2.221  16.244 -0.8554  0.4362 -1.4224
 1684TIP3   OH226466   5.553   1.891  15.290 -0.3073 -0.3996 -0.3999
 1684TIP3    H126467   5.483   1.829  15.267 -1.5392  1.3447 -1.6802
 1684TIP3    H226468   5.611   1.891  15.214  0.0278 -0.4205 -0.1479
 1685TIP3   OH226469   1.505   6.155  11.402  0.0005 -0.0915  0.5671
 1685TIP3    H126470   1.575   6.188  11.346 -0.9785  1.1618  0.0411
 1685TIP3    H226471   1.471   6.079  11.355  0.2881 -0.0451  0.2798
 1686TIP3   OH226472   5.697   2.364   2.864 -0.1890  0.3362 -0.3343
 1686TIP3    H126473   5.614   2.382   2.818  0.1407  0.5361 -0.8617
 1686TIP3    H226474   5.672   2.305   2.935 -0.6408 -0.4112 -1.0877
 1687TIP3   OH226475   0.967   5.569   6.078 -0.5218  0.3155 -0.6410
 1687TIP3    H126476   0.920   5.495   6.117  1.5727 -1.3039 -1.0158
 1687TIP3    H226477   0.946   5.643   6.134  0.3509 -1.3825  2.1296
 1688TIP3   OH226478   0.722   5.025   4.092 -0.5448  0.3646  0.4528
 1688TIP3    H126479   0.662   4.999   4.023  0.0902  1.3182 -0.4871
 1688TIP3    H226480   0.761   4.943   4.122  0.6011  0.0409 -1.6903
 1689TIP3   OH226481   4.547   4.262   0.031 -0.4119  0.1193 -0.6308
 1689TIP3    H126482   4.480   4.210   0.077 -1.4639  0.7453 -1.4109
 1689TIP3    H226483   4.590   4.199  -0.027 -0.8048 -0.1560 -0.6314
 1690TIP3   OH226484   4.307   1.615  12.457 -0.5115  0.0585 -0.4903
 1690TIP3    H126485   4.230   1.645  12.409  0.0085  2.7655  0.1950
 1690TIP3    H226486   4.380   1.627  12.396 -0.2712  0.3219 -0.1551
 1691TIP3   OH226487   4.819   3.421   1.854  0.1711  0.1904  0.5949
 1691TIP3    H126488   4.762   3.487   1.892 -0.2422  0.3104 -0.2098
 1691TIP3    H226489   4.790   3.414   1.763 -1.0212 -2.4050  1.0795
 1692TIP3   OH226490   1.129   5.133  11.233 -0.8313  0.0926 -0.2405
 1692TIP3    H126491   1.199   5.069  11.217 -0.6502 -0.1333  1.2853
 1692TIP3    H226492   1.085   5.141  11.149 -1.6319 -2.9595 -0.2362
 1693TIP3   OH226493   3.921   3.106   2.358 -0.1939 -0.2445 -0.7140
 1693TIP3    H126494   3.852   3.163   2.394  0.4196  0.2667 -0.3341
 1693TIP3    H226495   4.002   3.142   2.392  0.2792 -0.7766 -1.2596
 1694TIP3   OH226496   5.174   6.610  14.544  0.0284 -0.1984  0.0856
 1694TIP3    H126497   5.206   6.522  14.530 -1.2389 -0.7033  0.1740
 1694TIP3    H226498   5.132   6.607  14.631 -0.4062  0.3588 -0.0916
 1695TIP3   OH226499   2.596   3.401   2.865 -0.4217  0.2705 -0.3069
 1695TIP3    H126500   2.597   3.465   2.936 -0.4219 -1.4875  1.3332
 1695TIP3    H226501   2.505   3.371   2.862  0.0781 -1.4240  0.6245
 1696TIP3   OH226502   3.112   5.547   2.063 -0.1687 -0.2617  0.0746
 1696TIP3    H126503   3.138   5.583   2.148  1.8810 -0.0426 -0.5905
 1696TIP3    H226504   3.027   5.587   2.045 -0.7945 -0.5325  2.1268
 1697TIP3   OH226505   5.660   4.310   0.408 -0.3571 -0.3654 -0.0120
 1697TIP3    H126506   5.567   4.331   0.414  0.2835  3.9180 -1.5981
 1697TIP3    H226507   5.694   4.328   0.496 -0.6915  0.1350  0.0170
 1698TIP3   OH226508   5.733   5.934   1.564 -0.2755 -0.0364  0.3703
 1698TIP3    H126509   5.750   5.884   1.644  0.5536  0.1251  0.3077
 1698TIP3    H226510   5.688   6.013   1.594 -0.4591 -0.2308  0.6139
 1699TIP3   OH226511   2.424   3.881   1.662  0.2755  0.0331  0.3698
 1699TIP3    H126512   2.495   3.890   1.726  0.4991  1.3990 -0.0328
 1699TIP3    H226513   2.464   3.840   1.586  0.7804  1.1820 -0.0181
 1700TIP3   OH226514   1.939   4.119   2.638  0.1509 -0.2384 -0.2170
 1700TIP3    H126515   1.908   4.185   2.700  0.1169 -1.8793  1.5794
 1700TIP3    H226516   2.030   4.103   2.662  0.4873 -0.1264 -1.3204
 1701TIP3   OH226517   2.906   2.132   2.647  0.1993 -0.2066  0.7721
 1701TIP3    H126518   2.931   2.042   2.626 -1.4778 -0.5608  0.1529
 1701TIP3    H226519   2.956   2.186   2.585  1.9323 -0.5938  1.7544
 1702TIP3   OH226520   2.793   1.358  14.320 -0.3648  0.3773 -0.5092
 1702TIP3    H126521   2.859   1.291  14.338 -1.1001 -0.4140 -0.6939
 1702TIP3    H226522   2.841   1.440  14.321  0.3241 -0.0148  1.0841
 1703TIP3   OH226523   6.612   0.717  12.899 -0.4011 -0.2559 -0.1698
 1703TIP3    H126524   6.652   0.656  12.960  1.1809  2.6602  1.9254
 1703TIP3    H226525   6.529   0.741  12.940 -1.1719 -1.1784 -1.1442
 1704TIP3   OH226526   2.389   4.766  13.005 -0.4587  0.0441  0.2618
 1704TIP3    H126527   2.311   4.713  12.990  0.6816 -1.5712 -0.2488
 1704TIP3    H226528   2.356   4.848  13.043 -2.2107 -1.4973  2.3223
 1705TIP3   OH226529   1.929   4.573   5.752 -0.2520 -1.2422  0.0843
 1705TIP3    H126530   1.891   4.534   5.672  1.6070 -1.0369 -0.9567
 1705TIP3    H226531   2.007   4.619   5.721  0.9469 -1.7870  2.1282
 1706TIP3   OH226532   2.453   0.960   5.324 -0.3659 -0.1697  0.1855
 1706TIP3    H126533   2.420   1.049   5.310 -1.9334 -0.9282 -1.2709
 1706TIP3    H226534   2.374   0.906   5.331  0.5177 -1.8017 -1.4689
 1707TIP3   OH226535   5.236   4.692  16.445 -0.5852 -0.3916  0.3256
 1707TIP3    H126536   5.150   4.703  16.404  0.2888  1.2687 -1.1414
 1707TIP3    H226537   5.299   4.696  16.373  0.7113 -3.3036  1.1234
 1708TIP3   OH226538   5.614   0.349  13.826 -0.1282 -0.9630  0.0722
 1708TIP3    H126539   5.565   0.410  13.882 -0.0321 -0.9595  0.1522
 1708TIP3    H226540   5.596   0.378  13.737  0.6624 -0.2432  0.1328
 1709TIP3   OH226541   3.270   5.585   2.311 -0.4454  0.1312 -0.2921
 1709TIP3    H126542   3.185   5.614   2.344 -1.1374 -0.3659 -1.5694
 1709TIP3    H226543   3.294   5.652   2.247  0.3632  0.5255  0.4178
 1710TIP3   OH226544   4.917   6.200  16.665  0.3813 -0.2254 -0.4605
 1710TIP3    H126545   4.845   6.263  16.658  1.0959  0.8333  1.2041
 1710TIP3    H226546   4.996   6.254  16.666  1.1274 -1.2730 -0.6989
 1711TIP3   OH226547   0.702   5.157  15.806 -0.0652  0.4481 -0.2903
 1711TIP3    H126548   0.648   5.231  15.835 -0.3422  0.8631 -1.7874
 1711TIP3    H226549   0.638   5.094  15.772  0.3662  1.4020 -3.1149
 1712TIP3   OH226550   2.084   0.580   4.232 -0.0715 -0.4055 -0.1985
 1712TIP3    H126551   2.131   0.615   4.157  0.4558 -0.7559 -0.0409
 1712TIP3    H226552   2.009   0.533   4.194 -0.1174 -0.1116 -0.4697
 1713TIP3   OH226553   3.440   5.150   1.796 -0.1949  0.0568  0.2571
 1713TIP3    H126554   3.379   5.213   1.835  0.4146  1.0278 -0.3178
 1713TIP3    H226555   3.516   5.203   1.772  0.1078 -0.8058 -0.7443
 1714TIP3   OH226556   4.770   4.856  10.418  0.6497  0.2931 -0.2128
 1714TIP3    H126557   4.835   4.913  10.377 -1.3876  2.1422 -1.0843
 1714TIP3    H226558   4.740   4.905  10.495  0.8279 -0.8943  0.6456
 1715TIP3   OH226559   6.291   6.647   5.850 -0.1439 -0.3192 -0.0698
 1715TIP3    H126560   6.304   6.740   5.832  0.0489 -0.4286 -0.5111
 1715TIP3    H226561   6.217   6.644   5.911  0.7019  0.1942  1.0005
 1716TIP3   OH226562   4.068   1.004  14.927  0.0006 -0.0401  0.1451
 1716TIP3    H126563   4.020   1.087  14.937 -0.8607 -0.7341  2.4330
 1716TIP3    H226564   4.051   0.977  14.837 -1.0359  1.4572 -0.1544
 1717TIP3   OH226565   1.696   0.878   3.974  0.4393  0.0233 -0.0816
 1717TIP3    H126566   1.766   0.856   4.036  1.6462  2.5036 -0.4218
 1717TIP3    H226567   1.742   0.900   3.893 -0.7760  1.2159 -0.4836
 1718TIP3   OH226568   0.363   4.340  14.579  0.0208  0.1479 -0.3445
 1718TIP3    H126569   0.332   4.270  14.636  2.3622  0.5859  1.6209
 1718TIP3    H226570   0.291   4.403  14.577 -1.0671 -1.0396  0.0608
 1719TIP3   OH226571   5.375   2.690  16.407  0.1478  0.5970  0.0630
 1719TIP3    H126572   5.375   2.614  16.464  0.5598  0.0027 -0.7050
 1719TIP3    H226573   5.468   2.705  16.388  0.1091  1.5704  0.5598
 1720TIP3   OH226574   5.966   3.883  11.457 -0.5102 -0.1806  0.1946
 1720TIP3    H126575   5.885   3.841  11.428 -0.2276 -1.4077  1.1321
 1720TIP3    H226576   6.009   3.909  11.375 -0.4092 -2.2707 -0.4872
 1721TIP3   OH226577   6.589   0.099   5.452  0.6027 -0.3913 -0.6792
 1721TIP3    H126578   6.615   0.178   5.499 -1.3456  0.7629 -1.4012
 1721TIP3    H226579   6.606   0.119   5.360 -1.3339 -0.1259 -1.0299
 1722TIP3   OH226580   1.611   4.820  16.952 -0.2152 -0.3594 -0.2763
 1722TIP3    H126581   1.679   4.763  16.988 -0.5473  0.2113  1.3049
 1722TIP3    H226582   1.529   4.785  16.986 -0.7142 -0.7446 -1.7770
 1723TIP3   OH226583   2.542   2.337   0.576 -0.2862 -0.0523  0.1702
 1723TIP3    H126584   2.482   2.370   0.509 -1.0666 -0.4501  0.6537
 1723TIP3    H226585   2.508   2.375   0.658  2.1468  2.5660  0.1077
 1724TIP3   OH226586   3.619   0.615   2.576  0.0873  0.3542 -0.0459
 1724TIP3    H126587   3.550   0.675   2.604 -0.0400  0.0053  0.3959
 1724TIP3    H226588   3.592   0.529   2.609  1.6698  0.5058  1.9023
 1725TIP3   OH226589   3.920   1.713   3.691  0.0400  0.1041 -0.2028
 1725TIP3    H126590   3.910   1.720   3.596  3.8532  2.3609 -0.6571
 1725TIP3    H226591   3.977   1.637   3.704 -2.5147 -1.7790  0.6150
 1726TIP3   OH226592   4.476   5.736  15.801  0.3720  0.4017 -0.3640
 1726TIP3    H126593   4.388   5.773  15.813  0.0608 -0.8789  1.6849
 1726TIP3    H226594   4.502   5.766  15.714 -0.8346  3.3343  0.1754
 1727TIP3   OH226595   3.348   3.190   4.844  0.0127  0.1223  0.2024
 1727TIP3    H126596   3.434   3.206   4.807  1.1843 -1.3920  2.0881
 1727TIP3    H226597   3.314   3.276   4.867  2.7973  0.5995  3.1161
 1728TIP3   OH226598   2.682   6.112   0.360  0.7446  0.0830 -0.4953
 1728TIP3    H126599   2.605   6.056   0.370 -0.0828  1.3452  0.5747
 1728TIP3    H226600   2.726   6.107   0.444  0.4676  1.2913 -0.2653
 1729TIP3   OH226601   4.782   5.592  13.792 -0.3692  0.1271 -0.3219
 1729TIP3    H126602   4.730   5.573  13.714  0.0604 -1.0383 -0.3468
 1729TIP3    H226603   4.871   5.605  13.758  0.0030 -1.3470  0.0562
 1730TIP3   OH226604   0.176   0.705   1.866 -0.3384  0.8854  0.0842
 1730TIP3    H126605   0.245   0.769   1.848  0.2505 -0.1414 -1.5201
 1730TIP3    H226606   0.127   0.699   1.784 -0.4985 -0.5547  0.2692
 1731TIP3   OH226607   2.026   4.232   0.383  0.5608 -0.3610  0.3717
 1731TIP3    H126608   1.937   4.197   0.383  1.0100 -1.5848  1.0639
 1731TIP3    H226609   2.016   4.325   0.404 -0.5116 -0.6047  0.9904
 1732TIP3   OH226610   1.943   2.560   0.192  0.2341 -0.6995 -0.0281
 1732TIP3    H126611   1.916   2.636   0.242  0.7783 -1.2595  1.1487
 1732TIP3    H226612   1.921   2.485   0.248  0.8657 -1.3436 -0.6173
 1733TIP3   OH226613   3.067   2.835  10.668  0.0621  0.1362  0.1449
 1733TIP3    H126614   2.980   2.799  10.650  0.1783 -0.0585 -0.0244
 1733TIP3    H226615   3.121   2.804  10.596  0.3148  0.1009  0.3488
 1734TIP3   OH226616   5.603   1.801  16.079  0.1549  1.2006  0.0219
 1734TIP3    H126617   5.693   1.823  16.054 -0.0781  1.5125 -0.5729
 1734TIP3    H226618   5.549   1.842  16.011 -0.2928 -1.9846 -1.7585
 1735TIP3   OH226619   3.836   4.185   3.116  0.0562  0.1027 -0.2012
 1735TIP3    H126620   3.797   4.097   3.118  2.5136 -1.0606  0.3580
 1735TIP3    H226621   3.850   4.202   3.023  0.0261 -0.3122 -0.2869
 1736TIP3   OH226622   4.960   0.136   5.498  0.0101  0.2819 -0.1821
 1736TIP3    H126623   5.027   0.164   5.435  1.4796 -1.3673  0.5530
 1736TIP3    H226624   4.977   0.189   5.576 -0.2742  0.6475 -0.3659
 1737TIP3   OH226625   2.596   3.252   0.600 -0.4110  0.0686  0.3532
 1737TIP3    H126626   2.599   3.271   0.694 -0.2796 -0.3736  0.4397
 1737TIP3    H226627   2.687   3.236   0.576 -0.4613  0.0396  0.1830
 1738TIP3   OH226628   2.142   2.655  14.034  0.2321 -0.6201  0.0351
 1738TIP3    H126629   2.160   2.618  13.948 -2.1457 -0.1448 -0.7615
 1738TIP3    H226630   2.193   2.603  14.095 -0.3479 -2.9640 -1.3747
 1739TIP3   OH226631   5.622   1.085   4.106 -0.0790  0.3092  0.5243
 1739TIP3    H126632   5.683   1.068   4.178  0.6547  0.3010 -0.0866
 1739TIP3    H226633   5.652   1.026   4.036 -1.4151 -0.4436  0.5569
 1740TIP3   OH226634   1.576   6.120  15.538  0.4412 -0.3825 -0.5965
 1740TIP3    H126635   1.556   6.187  15.602  2.0231 -1.7464  1.4618
 1740TIP3    H226636   1.509   6.053  15.550  0.2882 -0.2885 -0.9181
 1741TIP3   OH226637   1.036   3.633  15.686 -0.6193  0.2969  0.4543
 1741TIP3    H126638   0.963   3.639  15.747 -0.7154 -0.2145  0.3934
 1741TIP3    H226639   1.111   3.610  15.741 -0.4962  0.8532  0.5220
 1742TIP3   OH226640   2.787   2.678   2.244  0.7640  0.1636 -0.2370
 1742TIP3    H126641   2.807   2.674   2.337  1.0831  0.2567 -0.2998
 1742TIP3    H226642   2.872   2.680   2.201  0.6999 -2.4895 -0.6642
 1743TIP3   OH226643   3.140   5.645   4.655 -0.1659  0.4880 -0.1397
 1743TIP3    H126644   3.188   5.713   4.608 -0.4565  0.9764  0.2707
 1743TIP3    H226645   3.198   5.569   4.652 -0.2856  0.4250 -1.5159
 1744TIP3   OH226646   2.468   0.896  14.598 -0.1789  0.3659  0.2495
 1744TIP3    H126647   2.384   0.852  14.613  0.0635  0.5623  2.5788
 1744TIP3    H226648   2.458   0.981  14.640  0.6698  1.0508 -0.8737
 1745TIP3   OH226649   5.517   6.548   3.549 -0.7050 -0.8006  0.6336
 1745TIP3    H126650   5.447   6.612   3.539 -1.6873 -1.8575  0.4957
 1745TIP3    H226651   5.594   6.600   3.570 -1.5686  0.3869  0.9946
 1746TIP3   OH226652   1.851   2.229  12.679  0.5228  0.1015 -0.6807
 1746TIP3    H126653   1.820   2.164  12.742 -1.1877 -1.5405 -3.0440
 1746TIP3    H226654   1.838   2.313  12.723 -1.3357 -0.9172  0.8758
 1747TIP3   OH226655   4.876   6.242   1.850 -0.4733 -0.1973 -0.2128
 1747TIP3    H126656   4.874   6.300   1.925 -0.8086  1.9099 -1.7625
 1747TIP3    H226657   4.793   6.194   1.853 -0.5541 -0.0042  0.6569
 1748TIP3   OH226658   5.858   1.748   6.225 -0.0189 -0.2564  0.0726
 1748TIP3    H126659   5.847   1.658   6.194 -1.0187 -1.1008  2.6109
 1748TIP3    H226660   5.942   1.776   6.189  0.5104 -2.3405 -0.4297
 1749TIP3   OH226661   4.920   2.466   2.140 -0.4283  0.1313 -0.2152
 1749TIP3    H126662   4.980   2.535   2.170 -0.0232  0.3084 -1.3797
 1749TIP3    H226663   4.974   2.388   2.135 -0.7946 -0.1957  0.7139
 1750TIP3   OH226664   4.775   2.629  15.687  0.1087  0.4761  0.0592
 1750TIP3    H126665   4.831   2.601  15.615 -2.3502 -1.3113 -1.3187
 1750TIP3    H226666   4.751   2.548  15.732 -1.8125  1.0487  0.1702
 1751TIP3   OH226667   4.603   5.830   1.650 -0.1083 -0.8655 -0.7894
 1751TIP3    H126668   4.678   5.878   1.615 -0.2342 -1.3248 -1.7252
 1751TIP3    H226669   4.629   5.738   1.645  0.0403 -0.9310  0.7652
 1752TIP3   OH226670   6.470   1.734   0.960 -0.2687  0.3928  0.2093
 1752TIP3    H126671   6.430   1.648   0.946 -0.9565  0.5939  0.8668
 1752TIP3    H226672   6.456   1.780   0.877 -1.5617  0.5048  0.4660
 1753TIP3   OH226673   5.666   2.930   3.622 -0.1558 -0.9649  0.4053
 1753TIP3    H126674   5.754   2.909   3.591 -0.0897 -1.6239  1.0044
 1753TIP3    H226675   5.645   3.014   3.580  0.3244 -1.3224 -0.5889
 1754TIP3   OH226676   1.704   4.481   5.026 -1.0730 -0.3468  0.2524
 1754TIP3    H126677   1.692   4.444   4.938 -0.2315 -2.7978  1.0670
 1754TIP3    H226678   1.795   4.511   5.027 -0.0431 -3.1863  1.1399
 1755TIP3   OH226679   0.389   5.624  16.093 -0.6489 -0.0388  0.3494
 1755TIP3    H126680   0.432   5.579  16.166 -0.0207 -1.5988 -0.9055
 1755TIP3    H226681   0.300   5.638  16.123 -0.2133 -0.0004  1.6844
 1756TIP3   OH226682   0.525   6.480   5.282 -0.2551  0.4690 -0.0373
 1756TIP3    H126683   0.549   6.446   5.368 -0.9217 -1.3033 -0.4980
 1756TIP3    H226684   0.432   6.501   5.290 -0.3897  0.0303 -0.3761
 1757TIP3   OH226685   3.935   0.525   1.845  0.4142  0.4599 -0.3668
 1757TIP3    H126686   3.903   0.451   1.895 -0.8627  1.5848  0.5614
 1757TIP3    H226687   3.863   0.548   1.786  1.7639 -0.6220 -2.5381
 1758TIP3   OH226688   6.528   4.372  16.742 -0.6538 -0.5134  0.8285
 1758TIP3    H126689   6.523   4.297  16.801  0.5343 -0.0714  1.5326
 1758TIP3    H226690   6.487   4.443  16.791  1.4217  0.1581  1.6736
 1759TIP3   OH226691   5.929   4.416  14.502  0.5220 -0.6215 -0.1508
 1759TIP3    H126692   5.943   4.410  14.408 -0.1830 -1.1499 -0.2311
 1759TIP3    H226693   5.990   4.484  14.532 -1.9346  2.4311 -1.5420
 1760TIP3   OH226694   4.197   6.662  11.569  0.1557 -0.1032  0.1206
 1760TIP3    H126695   4.177   6.730  11.633 -1.7650 -1.5570  1.1701
 1760TIP3    H226696   4.250   6.598  11.617 -0.9430 -0.9979  0.2014
 1761TIP3   OH226697   6.300   2.190   0.200 -0.0284  0.2082 -0.1854
 1761TIP3    H126698   6.366   2.239   0.150 -0.2799  0.0773 -0.6513
 1761TIP3    H226699   6.257   2.135   0.135 -2.5050  2.2774 -0.4603
 1762TIP3   OH226700   2.414   2.147   3.704  0.0587  0.2128 -0.3929
 1762TIP3    H126701   2.447   2.061   3.678 -1.4827 -0.2285 -0.9371
 1762TIP3    H226702   2.487   2.186   3.753  0.8941 -1.2619 -0.4090
 1763TIP3   OH226703   3.833   3.742   2.990  0.3751 -0.3978  0.3206
 1763TIP3    H126704   3.843   3.720   2.897  0.9500  1.0196  0.0286
 1763TIP3    H226705   3.909   3.796   3.011  0.8508 -1.5910  1.9323
 1764TIP3   OH226706   1.315   3.459  13.637  0.0048 -0.2654 -0.0873
 1764TIP3    H126707   1.225   3.446  13.608  0.2297 -1.2371 -0.3764
 1764TIP3    H226708   1.362   3.489  13.559  0.0325 -0.2575 -0.0677
 1765TIP3   OH226709   1.086   1.574  12.405 -0.1908 -0.1324 -0.0102
 1765TIP3    H126710   1.159   1.512  12.401 -0.6902 -0.6611 -1.5045
 1765TIP3    H226711   1.115   1.649  12.352 -0.9861 -0.6490 -1.2058
 1766TIP3   OH226712   1.174   0.213  15.650  0.1344  0.2045  0.4561
 1766TIP3    H126713   1.101   0.207  15.589 -0.4782  0.2237  1.1671
 1766TIP3    H226714   1.200   0.306  15.648  1.0115 -0.0437 -0.7666
 1767TIP3   OH226715   1.398   5.438   2.722  0.7343  0.2216 -0.1846
 1767TIP3    H126716   1.319   5.481   2.755  0.0441  0.8555 -2.4929
 1767TIP3    H226717   1.388   5.346   2.746 -0.8428  0.2488 -0.6581
 1768TIP3   OH226718   4.783   3.302   3.838 -0.3665 -0.2862 -0.9370
 1768TIP3    H126719   4.753   3.390   3.862  3.0084  0.7812 -0.0297
 1768TIP3    H226720   4.762   3.248   3.915  0.5246  0.5615 -0.0665
 1769TIP3   OH226721   4.065   5.693   3.099 -0.1491  0.3337  0.5217
 1769TIP3    H126722   3.986   5.732   3.063 -0.3729 -0.5995 -0.0534
 1769TIP3    H226723   4.045   5.679   3.191 -1.0982 -0.8805  0.1677
 1770TIP3   OH226724   6.482   3.924  15.925 -0.4384 -0.3227 -0.0259
 1770TIP3    H126725   6.531   3.923  15.843  1.1103 -2.1581  0.8374
 1770TIP3    H226726   6.535   3.976  15.984 -1.4237  0.7753 -0.0740
 1771TIP3   OH226727   3.012   1.783   4.013  0.2134  0.1249  0.4947
 1771TIP3    H126728   3.031   1.875   4.036 -0.3598  0.7310 -1.2889
 1771TIP3    H226729   3.021   1.736   4.096  0.6526  1.7651  1.4411
 1772TIP3   OH226730   3.000   5.730  12.501 -0.5726 -0.6108  0.6875
 1772TIP3    H126731   2.978   5.719  12.409 -0.1986 -0.5775  0.5900
 1772TIP3    H226732   3.096   5.737  12.501 -0.4754 -1.8025  1.2000
 1773TIP3   OH226733   4.491   3.375   4.142 -0.0104 -0.1863 -0.8586
 1773TIP3    H126734   4.518   3.294   4.185  1.4162  1.4250  1.5146
 1773TIP3    H226735   4.417   3.407   4.194 -1.5011 -0.6148 -2.6246
 1774TIP3   OH226736   1.467   0.623  13.017  0.1725  0.1301  0.0636
 1774TIP3    H126737   1.517   0.636  13.098 -0.1565  0.4755  0.2126
 1774TIP3    H226738   1.534   0.616  12.949  0.4809 -0.8577  0.4543
 1775TIP3   OH226739   5.392   0.642  16.763  0.1693 -0.3363 -0.2385
 1775TIP3    H126740   5.440   0.725  16.766  0.5476 -0.4078 -2.4506
 1775TIP3    H226741   5.416   0.604  16.678 -1.7552 -1.6295 -0.2580
 1776TIP3   OH226742   6.494   3.199   0.938 -0.2316  0.2055 -0.0863
 1776TIP3    H126743   6.581   3.230   0.964 -0.4123  0.8427 -0.2196
 1776TIP3    H226744   6.442   3.203   1.017 -0.2015  0.0479 -0.0586
 1777TIP3   OH226745   2.178   5.910  15.168  0.1760 -0.3789  0.2644
 1777TIP3    H126746   2.246   5.867  15.220  0.6407  0.3669  0.2768
 1777TIP3    H226747   2.147   5.841  15.109 -0.0997 -1.1389  1.2479
 1778TIP3   OH226748   0.524   5.947   1.680 -0.1915  0.6700  0.2228
 1778TIP3    H126749   0.456   5.938   1.613 -0.6111  0.1645  0.7019
 1778TIP3    H226750   0.512   5.870   1.736  0.6345  0.7005  0.4447
 1779TIP3   OH226751   2.047   3.024  10.885 -0.2928  0.1879 -0.1143
 1779TIP3    H126752   2.000   2.950  10.848 -2.4900  1.6507 -0.4315
 1779TIP3    H226753   2.081   3.072  10.809 -1.6089  1.1771 -0.1101
 1780TIP3   OH226754   6.158   5.500  11.550 -0.2600  0.3480 -0.0709
 1780TIP3    H126755   6.082   5.504  11.608  0.0251 -0.2595  0.3526
 1780TIP3    H226756   6.214   5.572  11.580 -1.3627  1.8531 -1.4236
 1781TIP3   OH226757   2.041   2.630   5.580  0.1655  0.6433 -0.1101
 1781TIP3    H126758   2.025   2.601   5.669 -1.5902  0.1466 -0.5458
 1781TIP3    H226759   2.025   2.724   5.582  1.9071  0.9758  0.4377
 1782TIP3   OH226760   1.490   1.640  13.121 -0.4001  0.1314 -0.1434
 1782TIP3    H126761   1.460   1.580  13.188 -2.2988  0.7052 -0.3956
 1782TIP3    H226762   1.547   1.702  13.167  1.3968 -1.6654  0.1501
 1783TIP3   OH226763   4.982   1.153   5.216 -0.3722  0.4215  0.3048
 1783TIP3    H126764   4.903   1.204   5.202 -0.5400 -0.3108 -1.7239
 1783TIP3    H226765   4.952   1.063   5.223  0.0591  0.3894  2.3658
 1784TIP3   OH226766   5.831   1.011  12.375  0.1860  0.3730  0.5217
 1784TIP3    H126767   5.873   0.943  12.428  0.4916  0.5391  0.4979
 1784TIP3    H226768   5.840   0.980  12.285 -3.7516 -1.8528  0.6892
 1785TIP3   OH226769   4.265   6.356   2.355  0.3732 -0.1710 -0.2563
 1785TIP3    H126770   4.179   6.383   2.323  0.1367  0.0845  0.5698
 1785TIP3    H226771   4.255   6.263   2.376  0.1915 -0.0554  0.1779
 1786TIP3   OH226772   1.450   3.814  14.870 -0.3041 -0.7451  0.2790
 1786TIP3    H126773   1.399   3.858  14.802 -0.1587  0.2493  0.7895
 1786TIP3    H226774   1.533   3.861  14.872 -0.5448 -0.3392  1.5667
 1787TIP3   OH226775   4.200   6.504   1.573  0.0035 -0.1442 -0.0469
 1787TIP3    H126776   4.275   6.464   1.617 -0.3111 -0.1641  0.4760
 1787TIP3    H226777   4.126   6.488   1.631 -0.5035 -0.5262 -0.7714
 1788TIP3   OH226778   6.736   5.169   5.136  0.4729  0.2919  0.1513
 1788TIP3    H126779   6.807   5.128   5.184 -0.2091  0.7237  1.5769
 1788TIP3    H226780   6.658   5.121   5.163  0.1015  0.3172 -0.8136
 1789TIP3   OH226781   4.190   6.227   5.644  0.5554  0.7796 -0.2343
 1789TIP3    H126782   4.248   6.181   5.704 -0.1264  0.2760  0.0448
 1789TIP3    H226783   4.206   6.187   5.559 -0.1305 -0.0852  0.0302
 1790TIP3   OH226784   0.004   6.034  13.086 -0.6348  0.3022  0.0981
 1790TIP3    H126785  -0.081   6.036  13.041 -1.0267 -3.1562  0.3906
 1790TIP3    H226786   0.068   6.027  13.015 -0.6351  1.5945 -0.0674
 1791TIP3   OH226787   6.592   5.273   6.092  0.1826  0.4021  0.5635
 1791TIP3    H126788   6.641   5.198   6.128  0.8220  0.4273 -0.2017
 1791TIP3    H226789   6.632   5.350   6.132  0.1644  0.3770  0.6291
 1792TIP3   OH226790   5.634   3.217  11.247  0.4373  0.1005 -0.0141
 1792TIP3    H126791   5.674   3.144  11.293  2.1230  0.1789 -1.2822
 1792TIP3    H226792   5.707   3.268  11.213 -0.6145  2.9315  1.5578
 1793TIP3   OH226793   2.485   2.326  10.600 -0.3268  0.0862  0.2900
 1793TIP3    H126794   2.390   2.338  10.604 -0.3616 -0.0471 -0.1430
 1793TIP3    H226795   2.508   2.341  10.508 -0.1549 -1.5256  0.0341
 1794TIP3   OH226796   1.754   1.323  14.707 -0.2360  0.3421  0.0535
 1794TIP3    H126797   1.797   1.291  14.628 -0.7615  1.5718 -0.7599
 1794TIP3    H226798   1.693   1.253  14.731  0.4537 -0.3555 -0.2039
 1795TIP3   OH226799   5.034   2.365  12.393 -0.1379 -0.9629 -0.5226
 1795TIP3    H126800   4.951   2.407  12.416  1.0619  0.8836  0.7058
 1795TIP3    H226801   5.047   2.385  12.301 -0.1597  0.3941 -0.2454
 1796TIP3   OH226802   3.357   0.164  16.944  0.1532 -0.0492  0.2902
 1796TIP3    H126803   3.288   0.101  16.920 -0.3750  0.1615  1.1915
 1796TIP3    H226804   3.420   0.160  16.872 -2.0011  1.5442 -1.8392
 1797TIP3   OH226805   0.707   5.692   0.682  0.0475 -0.1972  0.2149
 1797TIP3    H126806   0.646   5.717   0.751 -0.2975  2.2280 -0.8737
 1797TIP3    H226807   0.790   5.732   0.709  0.0673  0.1983 -0.4046
 1798TIP3   OH226808   2.721   0.755  12.743 -0.0323  0.4172 -0.4141
 1798TIP3    H126809   2.671   0.674  12.728  0.5977 -0.4338  1.7086
 1798TIP3    H226810   2.668   0.804  12.807  1.4682 -0.2241  1.4120
 1799TIP3   OH226811   6.193   6.674  10.838 -0.0668 -0.0651 -0.2485
 1799TIP3    H126812   6.280   6.715  10.845  0.0111  0.4183 -2.7937
 1799TIP3    H226813   6.135   6.732  10.887  0.8604  0.2948  0.4387
 1800TIP3   OH226814   4.152   6.385  15.401  0.1918  0.1972  0.5954
 1800TIP3    H126815   4.068   6.392  15.448 -0.1740  2.2577 -0.2581
 1800TIP3    H226816   4.127   6.360  15.312  0.5235  0.4031  0.4460
 1801TIP3   OH226817   6.506   1.457  11.218 -0.6314  0.3880 -0.6268
 1801TIP3    H126818   6.441   1.431  11.152  0.2959  2.1116 -2.3100
 1801TIP3    H226819   6.590   1.452  11.173 -0.0549  2.4989  0.0889
 1802TIP3   OH226820   3.456   4.584  11.852  0.4023  0.2262  0.2669
 1802TIP3    H126821   3.444   4.493  11.826  1.1310  0.2641 -0.2189
 1802TIP3    H226822   3.523   4.580  11.921  2.2119  0.5847 -1.3749
 1803TIP3   OH226823   3.418   3.585   5.684  0.9699 -0.1033  0.1996
 1803TIP3    H126824   3.374   3.617   5.605 -1.1235 -1.3516  0.7608
 1803TIP3    H226825   3.481   3.521   5.651 -1.5378 -2.4331 -0.4800
 1804TIP3   OH226826   4.384   3.269  13.250 -0.0590  0.4575  0.1416
 1804TIP3    H126827   4.291   3.285  13.267 -0.1034  1.4150 -0.8710
 1804TIP3    H226828   4.397   3.177  13.275 -1.2207  0.3570  0.4763
 1805TIP3   OH226829   2.940   2.817   5.801 -0.5062  0.1888  0.9641
 1805TIP3    H126830   2.920   2.899   5.755  0.3377 -0.1327 -0.0068
 1805TIP3    H226831   2.948   2.843   5.893 -0.5260  1.1560  0.7069
 1806TIP3   OH226832   6.214   6.467   4.018  0.8401  0.9186  0.2440
 1806TIP3    H126833   6.254   6.408   4.082 -1.9076 -0.3036  0.9643
 1806TIP3    H226834   6.171   6.534   4.071 -0.9851  0.2120 -0.2749
 1807TIP3   OH226835   2.347   1.107   2.618 -0.5403 -0.4768  0.8927
 1807TIP3    H126836   2.290   1.130   2.544 -1.6907 -0.1930  1.8305
 1807TIP3    H226837   2.344   1.012   2.622 -0.9773 -0.4633  0.9458
 1808TIP3   OH226838   0.338   3.439  16.631 -0.0469  0.3574  0.2045
 1808TIP3    H126839   0.243   3.448  16.639  0.0866  1.0233  1.2453
 1808TIP3    H226840   0.363   3.507  16.568 -0.1796  0.7243  0.5401
 1809TIP3   OH226841   4.726   5.106   5.325 -0.2009 -0.2771  0.1809
 1809TIP3    H126842   4.647   5.069   5.362 -1.0509  2.1004  0.9307
 1809TIP3    H226843   4.722   5.199   5.347  1.7486  0.3169 -1.5984
 1810TIP3   OH226844   2.837   1.684  13.412 -0.4001 -0.1228 -0.0631
 1810TIP3    H126845   2.780   1.649  13.343 -1.0878 -1.5724  1.1787
 1810TIP3    H226846   2.798   1.769  13.435  0.0553  0.5636 -1.6533
 1811TIP3   OH226847   5.750   4.310  15.006  0.6731  0.1294 -0.2858
 1811TIP3    H126848   5.822   4.282  15.061 -0.0352  0.4728  0.8377
 1811TIP3    H226849   5.705   4.378  15.056  0.7715  1.3858 -1.8238
 1812TIP3   OH226850   6.245   1.773  11.065  0.1605 -0.4683 -0.0113
 1812TIP3    H126851   6.234   1.868  11.054 -2.0327 -0.7093 -0.3153
 1812TIP3    H226852   6.331   1.755  11.027 -0.3719  1.0726 -2.1312
 1813TIP3   OH226853   0.356   3.508   3.970 -0.1820 -0.2815  0.0249
 1813TIP3    H126854   0.266   3.506   3.937  0.2983 -0.9473 -1.3054
 1813TIP3    H226855   0.397   3.429   3.934  1.5893  1.1651 -1.3964
 1814TIP3   OH226856   6.409   2.939  14.068 -0.2556  0.0878 -0.5988
 1814TIP3    H126857   6.318   2.965  14.080  0.3473  1.5183  1.2770
 1814TIP3    H226858   6.441   2.921  14.156  1.2904 -0.3877 -1.2210
 1815TIP3   OH226859   5.730   0.433   5.567 -0.0799  0.2616 -0.2312
 1815TIP3    H126860   5.675   0.491   5.619 -0.8033 -0.6351  0.0254
 1815TIP3    H226861   5.671   0.363   5.538  0.7394 -0.2707 -0.6507
 1816TIP3   OH226862   6.075   1.186   2.458  0.1942  0.1950  0.7174
 1816TIP3    H126863   6.007   1.237   2.414 -0.6347 -1.6051 -0.2384
 1816TIP3    H226864   6.144   1.248   2.477 -0.7945  1.6669 -0.2886
 1817TIP3   OH226865   5.363   5.463   1.465 -0.1358 -0.5477  0.5427
 1817TIP3    H126866   5.443   5.418   1.439  0.0882 -0.9392  1.8536
 1817TIP3    H226867   5.392   5.528   1.529 -0.8572 -0.6983  1.0333
 1818TIP3   OH226868   6.495   4.918  13.490 -0.5608 -0.0038 -0.4467
 1818TIP3    H126869   6.411   4.902  13.533 -1.2530  1.6404 -1.0913
 1818TIP3    H226870   6.487   4.876  13.405 -0.4393 -0.5053 -0.2093
 1819TIP3   OH226871   0.148   1.666   5.008  0.1584 -0.0414  0.1135
 1819TIP3    H126872   0.121   1.753   4.977  0.0652 -0.4526 -1.0185
 1819TIP3    H226873   0.169   1.679   5.101 -2.0815  0.6974  0.5803
 1820TIP3   OH226874   0.227   0.488  11.249 -0.3393  0.0529  0.1115
 1820TIP3    H126875   0.312   0.507  11.289 -1.0215  1.1780  1.1142
 1820TIP3    H226876   0.247   0.460  11.160  1.0248  1.6560 -0.1313
 1821TIP3   OH226877   3.868   3.269   0.314 -0.5438  0.0011  0.0766
 1821TIP3    H126878   3.810   3.202   0.350 -1.4301 -0.5187 -2.1322
 1821TIP3    H226879   3.910   3.226   0.239  0.2957  1.3574 -0.2646
 1822TIP3   OH226880   1.751   1.509  11.008  0.0796  0.3290  0.2635
 1822TIP3    H126881   1.722   1.443  11.071  0.1607  1.8129  1.9464
 1822TIP3    H226882   1.694   1.497  10.933 -0.0815 -1.4587  0.6293
 1823TIP3   OH226883   5.326   5.722   2.354  0.4444 -0.1319  0.0102
 1823TIP3    H126884   5.329   5.728   2.450  2.6038  1.7264 -0.0776
 1823TIP3    H226885   5.286   5.804   2.326  0.9268 -0.1199 -0.6785
 1824TIP3   OH226886   4.565   2.982   1.911 -0.0654 -0.0243 -0.1255
 1824TIP3    H126887   4.543   3.010   2.000 -0.0995  2.4497 -0.8457
 1824TIP3    H226888   4.534   2.891   1.906 -1.4160  0.2645  1.9012
 1825TIP3   OH226889   5.382   0.312   2.242 -0.2990  0.7458 -0.0653
 1825TIP3    H126890   5.458   0.322   2.185 -1.6507  0.3048 -2.0275
 1825TIP3    H226891   5.416   0.264   2.318  1.5034  1.1472 -0.5688
 1826TIP3   OH226892   4.207   0.959   1.379  0.1968 -0.8141  0.2207
 1826TIP3    H126893   4.266   1.011   1.325  0.0796 -0.8329  0.0750
 1826TIP3    H226894   4.146   0.918   1.317 -0.7449  0.1847  0.4539
 1827TIP3   OH226895   2.683   4.133   3.317  0.5638  0.2808 -0.3081
 1827TIP3    H126896   2.705   4.056   3.264 -0.6673 -0.9634  0.9158
 1827TIP3    H226897   2.763   4.186   3.316  1.1471 -0.5546 -1.9193
 1828TIP3   OH226898   0.991   1.682  15.799 -0.5952  0.3690  0.2340
 1828TIP3    H126899   0.910   1.633  15.784 -0.9112  1.3298 -1.5753
 1828TIP3    H226900   1.030   1.690  15.712  0.8688  0.9273  0.9070
 1829TIP3   OH226901   6.561   3.441   2.778  0.5203  0.3294  0.3185
 1829TIP3    H126902   6.598   3.527   2.795 -0.0068  0.5535  0.3599
 1829TIP3    H226903   6.493   3.456   2.712  0.2281 -0.0040  0.5342
 1830TIP3   OH226904   6.354   3.780   5.032  0.2311 -0.3357 -0.1287
 1830TIP3    H126905   6.296   3.714   4.995  1.1744 -0.6440 -1.1051
 1830TIP3    H226906   6.350   3.853   4.970 -1.3930  0.8855  1.3234
 1831TIP3   OH226907   3.087   0.586   0.478  0.1701 -0.8724 -0.4823
 1831TIP3    H126908   3.075   0.648   0.407 -3.4411 -0.4911  0.2715
 1831TIP3    H226909   3.101   0.640   0.555  0.0623 -1.1051 -0.2959
 1832TIP3   OH226910   0.196   6.369   4.491 -0.3088  0.2889  0.6010
 1832TIP3    H126911   0.221   6.455   4.456  1.6779 -0.5681 -0.2552
 1832TIP3    H226912   0.118   6.345   4.441 -2.0443  2.3121  2.1181
 1833TIP3   OH226913   0.780   2.999  15.911 -0.2676 -0.1543 -0.2904
 1833TIP3    H126914   0.758   3.020  16.002  1.0554  0.3925 -0.0761
 1833TIP3    H226915   0.723   2.924  15.889 -2.1029  0.9987  0.2842
 1834TIP3   OH226916   4.334   3.014  12.825 -0.1616  0.1137  0.1367
 1834TIP3    H126917   4.324   3.102  12.788  0.5074 -0.3316 -1.1375
 1834TIP3    H226918   4.258   2.966  12.792 -1.2863  0.5551  1.9581
 1835TIP3   OH226919   6.601   6.222   2.743 -0.3050  0.2836 -0.2331
 1835TIP3    H126920   6.646   6.180   2.670  1.4607  1.7035 -0.0515
 1835TIP3    H226921   6.601   6.156   2.812  0.5276 -0.1464 -0.6305
 1836TIP3   OH226922   2.346   6.454  12.594  0.1741 -0.0222  0.2959
 1836TIP3    H126923   2.380   6.426  12.509 -1.4224 -0.1791 -0.3306
 1836TIP3    H226924   2.312   6.373  12.633 -2.4716  0.5668 -0.5756
 1837TIP3   OH226925   5.086   0.475   3.126 -0.1657 -0.2559 -0.1374
 1837TIP3    H126926   5.074   0.414   3.199  0.2250 -0.7238 -0.4568
 1837TIP3    H226927   5.002   0.521   3.119  0.0255  0.3052  1.0603
 1838TIP3   OH226928   2.466   3.769  14.901 -0.5788  0.4121  0.3047
 1838TIP3    H126929   2.481   3.751  14.808 -2.3937  0.0621  0.0553
 1838TIP3    H226930   2.452   3.683  14.940 -1.7330  0.6840  0.5245
 1839TIP3   OH226931   0.518   6.664   1.674 -0.3866  0.7141  0.5461
 1839TIP3    H126932   0.443   6.693   1.622  0.9945  0.4388 -1.7825
 1839TIP3    H226933   0.563   6.601   1.617  0.8192 -0.2109  2.4389
 1840TIP3   OH226934   1.908   6.180   2.184 -0.5456 -0.3211  0.4527
 1840TIP3    H126935   1.940   6.270   2.192 -2.6369  0.3819  1.4011
 1840TIP3    H226936   1.853   6.181   2.105  0.0824 -1.0015 -0.0066
 1841TIP3   OH226937   1.715   3.227   2.916 -0.0761 -0.1818  0.2657
 1841TIP3    H126938   1.696   3.316   2.888  0.7768  0.3180  1.1808
 1841TIP3    H226939   1.664   3.171   2.858 -0.2517  0.8856 -0.6302
 1842TIP3   OH226940   5.769   4.403  17.022 -0.4789 -0.3284  0.1801
 1842TIP3    H126941   5.765   4.477  16.961 -1.0484 -0.8368 -0.4210
 1842TIP3    H226942   5.856   4.365  17.007  0.8090  1.5993  2.2004
 1843TIP3   OH226943   0.112   5.989   1.332 -0.6397  0.4406 -0.0672
 1843TIP3    H126944   0.116   6.007   1.426  0.8041  0.8816 -0.1796
 1843TIP3    H226945   0.032   6.033   1.303  0.4449  2.9910  0.4571
 1844TIP3   OH226946   3.333   2.339  12.271 -0.7187  0.1218 -0.1781
 1844TIP3    H126947   3.392   2.269  12.244 -0.3043  0.1874  0.5424
 1844TIP3    H226948   3.385   2.419  12.264 -0.9729  0.2765 -0.3190
 1845TIP3   OH226949   3.980   4.032  13.759  0.0729  0.3735  0.1554
 1845TIP3    H126950   3.927   3.960  13.791  2.8165 -1.6634  0.4697
 1845TIP3    H226951   3.980   4.022  13.663  0.0945  0.2042  0.1731
 1846TIP3   OH226952   6.059   4.303   4.771 -0.8278  0.1237  0.6611
 1846TIP3    H126953   6.028   4.223   4.812 -1.7865 -0.7413 -1.5693
 1846TIP3    H226954   6.084   4.360   4.844  0.3791 -2.3536  2.3219
 1847TIP3   OH226955   5.540   6.662  13.448  0.8348  0.2125  0.0387
 1847TIP3    H126956   5.518   6.580  13.404  1.5607  0.6623 -1.2239
 1847TIP3    H226957   5.494   6.729  13.397 -0.0495  0.5763  1.2769
 1848TIP3   OH226958   4.229   3.563   1.465  0.7992 -0.1191  0.1130
 1848TIP3    H126959   4.252   3.492   1.525 -1.5275  0.2677  1.6174
 1848TIP3    H226960   4.187   3.519   1.391  1.5650 -0.4516 -0.1288
 1849TIP3   OH226961   2.412   0.278  14.256 -0.4320  0.5383 -0.4412
 1849TIP3    H126962   2.386   0.331  14.181  0.6995  2.7255  0.6246
 1849TIP3    H226963   2.401   0.336  14.332 -0.1497 -1.1153  0.9233
 1850TIP3   OH226964   4.237   1.453   4.384  0.1640  0.0767 -0.4912
 1850TIP3    H126965   4.274   1.453   4.472  0.8359  0.9047 -0.7538
 1850TIP3    H226966   4.143   1.448   4.398  0.2833 -0.1745  0.2656
 1851TIP3   OH226967   1.404   0.057  16.400 -0.0176 -0.2749 -0.5715
 1851TIP3    H126968   1.477   0.101  16.358  0.7722 -0.1316  0.9074
 1851TIP3    H226969   1.423   0.062  16.493 -0.9380 -1.9550 -0.2591
 1852TIP3   OH226970   3.804   4.638   5.368  0.3393  0.2306 -0.5939
 1852TIP3    H126971   3.821   4.545   5.384  1.9406  0.6781  0.5554
 1852TIP3    H226972   3.728   4.638   5.310  0.7405 -1.8165 -1.2409
 1853TIP3   OH226973   5.920   4.533  10.725 -0.1272  0.6745 -0.4044
 1853TIP3    H126974   5.954   4.445  10.713 -0.2812  0.5092  0.3577
 1853TIP3    H226975   5.995   4.584  10.757  0.0728  0.9279 -1.2459
 1854TIP3   OH226976   0.094   4.305   0.074  0.0904  0.0724 -0.2602
 1854TIP3    H126977   0.166   4.271   0.127 -1.6797  0.4993  2.6830
 1854TIP3    H226978   0.029   4.235   0.075 -1.7466  1.6261  2.0325
 1855TIP3   OH226979   4.440   3.055   4.301  0.3070  0.4934 -0.0400
 1855TIP3    H126980   4.444   2.962   4.326  1.4838  1.6008  4.9774
 1855TIP3    H226981   4.350   3.067   4.271  0.0181 -2.1852 -0.5447
 1856TIP3   OH226982   3.330   1.789   3.846  0.1404 -0.1429 -0.9931
 1856TIP3    H126983   3.283   1.870   3.827 -1.2994 -0.4945  0.7744
 1856TIP3    H226984   3.332   1.742   3.763 -1.0293  0.6980 -1.5173
 1857TIP3   OH226985   0.317   5.157   3.777 -0.5448 -0.2529 -0.2461
 1857TIP3    H126986   0.379   5.089   3.804 -0.4549 -0.9621 -2.1193
 1857TIP3    H226987   0.354   5.238   3.813  1.7779 -0.5703 -1.6972
 1858TIP3   OH226988   5.086   0.552  14.159 -0.2080 -0.3336 -0.2334
 1858TIP3    H126989   5.133   0.560  14.242 -0.9202 -1.8397  0.3549
 1858TIP3    H226990   5.095   0.637  14.118 -0.4607  0.7001  1.7296
 1859TIP3   OH226991   5.694   5.438   4.260 -0.2277  0.4517 -0.1470
 1859TIP3    H126992   5.726   5.375   4.195 -0.2342 -0.4722  0.7196
 1859TIP3    H226993   5.772   5.463   4.309 -0.5005 -0.2485  0.6557
 1860TIP3   OH226994   5.809   3.607  15.520 -0.0731  0.1478  0.4598
 1860TIP3    H126995   5.897   3.611  15.559  0.4352 -0.5395 -0.5544
 1860TIP3    H226996   5.817   3.657  15.439 -0.2353 -1.0088 -0.2971
 1861TIP3   OH226997   0.391   3.649   6.517 -0.1463 -0.1055  0.4377
 1861TIP3    H126998   0.415   3.637   6.425  2.3508  1.8016  0.7456
 1861TIP3    H226999   0.324   3.717   6.515  0.4301  0.4619  0.0610
 1862TIP3   OH227000   0.195   6.541   0.819 -0.5578  0.2623 -0.0486
 1862TIP3    H127001   0.180   6.629   0.853  1.5293  1.2701 -1.5244
 1862TIP3    H227002   0.173   6.483   0.892  1.5370  2.1695  2.2776
 1863TIP3   OH227003   0.150   4.296   4.128  0.3162 -0.0331 -0.1815
 1863TIP3    H127004   0.098   4.352   4.186 -1.5800 -1.3833 -0.4682
 1863TIP3    H227005   0.174   4.353   4.055 -0.5671  0.7223  0.0923
 1864TIP3   OH227006   4.573   4.087  14.568 -0.2476  0.3186 -0.0953
 1864TIP3    H127007   4.579   3.992  14.583 -0.5229  0.3719  0.3582
 1864TIP3    H227008   4.605   4.126  14.650  0.6870  0.6265 -0.5880
 1865TIP3   OH227009   2.885   0.416   0.300  0.4850 -0.1221  0.1535
 1865TIP3    H127010   2.840   0.494   0.267 -1.9253 -1.1379  0.8054
 1865TIP3    H227011   2.975   0.445   0.316 -0.7500  3.0987  2.2574
 1866TIP3   OH227012   3.904   1.264  16.100 -0.2851  0.0349  0.3545
 1866TIP3    H127013   3.940   1.184  16.140  1.5898  0.5824 -0.1140
 1866TIP3    H227014   3.837   1.294  16.162  0.6928 -0.5736  1.7692
 1867TIP3   OH227015   4.301   1.990  14.449 -0.2656  0.1957 -0.3938
 1867TIP3    H127016   4.389   2.001  14.486  0.0814  0.4833 -1.2855
 1867TIP3    H227017   4.308   1.911  14.395 -0.5300  0.2660 -0.5319
 1868TIP3   OH227018   0.042   4.509  13.110  0.1050 -0.5034 -0.2394
 1868TIP3    H127019   0.079   4.439  13.057  0.3202 -0.2612 -0.4139
 1868TIP3    H227020  -0.048   4.482  13.127  0.2531 -0.9197 -0.1286
 1869TIP3   OH227021   3.606   3.879   1.977  0.4837 -0.2357 -0.2782
 1869TIP3    H127022   3.554   3.884   2.057 -0.7182 -0.3724 -1.0204
 1869TIP3    H227023   3.627   3.970   1.957  1.2227 -0.2355  0.4544
 1870TIP3   OH227024   0.034   4.852  16.545 -0.0101 -0.1969 -0.4323
 1870TIP3    H127025   0.081   4.836  16.463  2.0195 -0.4738  0.7298
 1870TIP3    H227026  -0.058   4.836  16.523  0.3953  0.3669 -2.7915
 1871TIP3   OH227027   0.306   5.852  15.617 -0.2475  0.4895 -0.1821
 1871TIP3    H127028   0.348   5.860  15.531  0.8901  1.2294  0.4065
 1871TIP3    H227029   0.330   5.933  15.662 -1.1895  0.2971  0.6792
 1872TIP3   OH227030   6.751   1.516   5.280  0.4242 -0.4975 -0.3136
 1872TIP3    H127031   6.839   1.479   5.276  0.2793 -1.2943  2.1343
 1872TIP3    H227032   6.701   1.454   5.333 -1.0653  0.9117  0.0224
 1873TIP3   OH227033   2.214   3.916   2.663 -0.0111  0.0471  0.1143
 1873TIP3    H127034   2.307   3.918   2.686 -0.5465  2.3678  2.6576
 1873TIP3    H227035   2.212   3.891   2.571  3.0725 -0.5600  0.1100
 1874TIP3   OH227036   5.864   3.450   2.259  0.7222  0.2746 -0.1541
 1874TIP3    H127037   5.874   3.463   2.354 -0.2022 -3.0792  0.5146
 1874TIP3    H227038   5.785   3.500   2.237 -0.7595 -1.1880  1.5072
 1875TIP3   OH227039   4.764   4.535   2.313  0.0098  0.5296 -0.3342
 1875TIP3    H127040   4.772   4.542   2.218  3.1682 -0.5125 -0.2752
 1875TIP3    H227041   4.794   4.446   2.333 -3.1854 -0.2950  1.5216
 1876TIP3   OH227042   6.176   4.255  16.521 -0.0783 -0.0205 -0.2279
 1876TIP3    H127043   6.084   4.237  16.503 -0.2620  1.2643 -0.6755
 1876TIP3    H227044   6.175   4.294  16.609  0.5508 -4.0053  1.7647
 1877TIP3   OH227045   6.242   3.204   0.433  0.1099  0.2707  0.4774
 1877TIP3    H127046   6.288   3.218   0.351 -0.0694 -0.8023  0.1784
 1877TIP3    H227047   6.311   3.188   0.497  0.2819  1.7262  0.6854
 1878TIP3   OH227048   1.250   3.455   0.581  0.4531  0.4708  0.5858
 1878TIP3    H127049   1.189   3.519   0.616 -0.1820 -0.1483  0.6199
 1878TIP3    H227050   1.262   3.481   0.489 -0.8852 -0.1482  0.2038
 1879TIP3   OH227051   0.234   5.089  13.776  0.2932 -0.9458  0.1609
 1879TIP3    H127052   0.297   5.068  13.845 -0.5076  0.1528  1.2595
 1879TIP3    H227053   0.245   5.183  13.761  0.2434 -1.1144 -1.0115
 1880TIP3   OH227054   2.345   4.086   2.876 -0.1848  0.2884  0.0115
 1880TIP3    H127055   2.434   4.117   2.857  0.1473 -1.6203 -1.8830
 1880TIP3    H227056   2.340   4.089   2.972  2.6265 -1.2342  0.3242
 1881TIP3   OH227057   3.287   2.799  10.828 -0.3933 -0.3900  0.6571
 1881TIP3    H127058   3.199   2.814  10.794 -0.5044 -0.5721  0.8679
 1881TIP3    H227059   3.341   2.863  10.781 -0.3130 -1.5028 -0.8260
 1882TIP3   OH227060   4.389   4.141  13.446  0.3888  0.4606  0.5728
 1882TIP3    H127061   4.346   4.224  13.427 -0.3364  0.0327  0.3232
 1882TIP3    H227062   4.465   4.165  13.499  2.1872  1.6605 -2.3160
 1883TIP3   OH227063   4.684   5.143   4.854 -0.2575  0.2653  0.2212
 1883TIP3    H127064   4.626   5.218   4.867  0.4054  0.6273  1.1918
 1883TIP3    H227065   4.625   5.067   4.855 -0.6732  0.5800  1.7416
 1884TIP3   OH227066   0.268   1.473  17.126  0.0145 -0.0537  0.3232
 1884TIP3    H127067   0.340   1.533  17.146 -0.1973 -0.3411  2.1342
 1884TIP3    H227068   0.302   1.387  17.151 -0.5762 -0.3370  0.1594
 1885TIP3   OH227069   0.486   4.724   0.766  0.3349 -0.2557  0.2918
 1885TIP3    H127070   0.437   4.703   0.845  1.2527 -1.2448  0.6198
 1885TIP3    H227071   0.483   4.820   0.760  0.9771 -0.0989  2.0024
 1886TIP3   OH227072   0.094   6.638   2.174 -0.2809  0.1183 -0.0742
 1886TIP3    H127073   0.143   6.651   2.255 -1.5906  0.4649  0.7026
 1886TIP3    H227074   0.160   6.635   2.106  0.9900 -1.5445  1.1309
 1887TIP3   OH227075   2.996   2.544  10.825 -0.5389  0.3533  0.6886
 1887TIP3    H127076   2.990   2.454  10.793  3.0954  0.6164 -1.2984
 1887TIP3    H227077   2.936   2.594  10.770 -0.4203 -0.4686 -0.2103
 1888TIP3   OH227078   0.138   4.661   3.560  0.3573 -0.2757  0.0613
 1888TIP3    H127079   0.212   4.600   3.566  0.0968 -0.7487 -1.2380
 1888TIP3    H227080   0.130   4.680   3.466  0.1086  1.3667  0.3969
 1889TIP3   OH227081   4.474   2.666   4.160  0.2619  0.1240 -0.9181
 1889TIP3    H127082   4.400   2.725   4.153 -1.0736 -1.5220 -1.2355
 1889TIP3    H227083   4.467   2.609   4.084  0.7177 -1.2819  0.0546
 1890TIP3   OH227084   5.819   4.682  14.763  0.4551 -0.0626 -0.0066
 1890TIP3    H127085   5.847   4.771  14.780  0.2327 -0.0910  0.5166
 1890TIP3    H227086   5.842   4.634  14.842 -0.8698 -0.1320  0.3552
 1891TIP3   OH227087   3.212   4.827  11.742 -0.0303  0.0520 -0.2139
 1891TIP3    H127088   3.217   4.814  11.837 -1.1056  0.8784 -0.0202
 1891TIP3    H227089   3.153   4.759  11.711 -1.7262  1.3165  0.1020
 1892TIP3   OH227090   1.811   4.054   1.783  0.1317 -0.1856  0.5927
 1892TIP3    H127091   1.723   4.062   1.819 -0.7694 -1.1533 -1.2687
 1892TIP3    H227092   1.831   4.141   1.750 -1.0436 -0.4543 -0.9065
 1893TIP3   OH227093   5.501   1.969   0.918 -0.0063  0.4537  0.4622
 1893TIP3    H127094   5.496   1.979   1.013  3.1100 -1.2247  0.9313
 1893TIP3    H227095   5.564   1.899   0.905 -0.1590  0.7978 -2.8924
 1894TIP3   OH227096   4.431   5.200  16.852 -0.9010  0.4116  0.3201
 1894TIP3    H127097   4.446   5.290  16.883 -0.2331  0.9070 -1.3288
 1894TIP3    H227098   4.342   5.180  16.881 -1.1388  1.6776  0.5491
 1895TIP3   OH227099   3.994   3.267  11.057  0.4338  0.2969  0.1192
 1895TIP3    H127100   3.943   3.297  10.982  0.4877  1.6130  0.5828
 1895TIP3    H227101   4.021   3.347  11.102  1.3476 -0.4287  0.9228
 1896TIP3   OH227102   0.821   0.923  11.629 -0.8952  0.8648  0.2843
 1896TIP3    H127103   0.791   0.877  11.707 -0.4019  1.6830  0.9878
 1896TIP3    H227104   0.814   1.016  11.653 -1.4065  1.1420 -0.9092
 1897TIP3   OH227105   5.139   3.781   6.425  0.7705  0.5037 -0.1069
 1897TIP3    H127106   5.208   3.833   6.467 -1.0951  1.8800  1.4077
 1897TIP3    H227107   5.058   3.813   6.464 -0.7436 -1.1592 -1.7334
 1898TIP3   OH227108   3.467   2.923  16.371  0.7525 -0.0261 -0.0968
 1898TIP3    H127109   3.463   2.858  16.302 -1.3023 -0.2341  0.1559
 1898TIP3    H227110   3.496   3.003  16.328 -0.2646 -0.2132 -1.1650
 1899TIP3   OH227111   5.365   5.454  12.733 -1.0902 -0.4064 -0.1607
 1899TIP3    H127112   5.307   5.509  12.680 -1.0511  0.0817  0.2926
 1899TIP3    H227113   5.441   5.509  12.752 -1.0383 -0.6180  0.2755
 1900TIP3   OH227114   1.054   4.169  14.733 -0.0794 -0.4095  0.0774
 1900TIP3    H127115   1.144   4.185  14.761 -0.6446  0.7991  1.2871
 1900TIP3    H227116   1.053   4.076  14.709  1.3622 -0.5551  0.4812
 1901TIP3   OH227117   2.253   1.951  12.705  0.4710  0.1832  0.5416
 1901TIP3    H127118   2.262   1.864  12.665  1.7805 -0.7738  2.7322
 1901TIP3    H227119   2.341   1.988  12.702 -0.4302  2.4370 -2.2479
 1902TIP3   OH227120   4.733   6.687   3.944 -0.2376  0.4889  0.4355
 1902TIP3    H127121   4.703   6.697   3.853  1.1571  2.2040  0.1206
 1902TIP3    H227122   4.746   6.592   3.954  2.2678  0.4440 -2.0819
 1903TIP3   OH227123   2.793   4.018  11.101 -0.3230  0.1684 -0.1701
 1903TIP3    H127124   2.740   4.033  11.023 -0.1386  0.6444 -0.2080
 1903TIP3    H227125   2.875   3.982  11.067 -1.0190 -1.6257 -0.0267
 1904TIP3   OH227126   2.491   4.074   0.049 -0.5654  0.4825 -0.8301
 1904TIP3    H127127   2.585   4.092   0.045 -0.1390 -1.6884 -2.0809
 1904TIP3    H227128   2.451   4.141  -0.007  0.6122 -0.4711 -2.9189
 1905TIP3   OH227129   1.211   1.957   2.095 -0.1072 -0.2951  0.0974
 1905TIP3    H127130   1.216   1.888   2.028  0.2994 -0.7835  0.6153
 1905TIP3    H227131   1.301   1.984   2.109 -0.3713  1.3432 -1.0837
 1906TIP3   OH227132   5.753   4.353   1.671  0.1706  0.0158  0.4865
 1906TIP3    H127133   5.845   4.355   1.644  0.6852  0.2881  2.1453
 1906TIP3    H227134   5.717   4.276   1.627  1.2874 -0.3023  0.1013
 1907TIP3   OH227135   4.481   2.977  16.054  0.4498 -0.3823 -0.3281
 1907TIP3    H127136   4.433   3.046  16.100 -1.0454 -0.9751 -0.9437
 1907TIP3    H227137   4.552   3.023  16.010  0.4808  0.5215  0.6252
 1908TIP3   OH227138   4.086   2.373  13.325 -0.4048  0.3190 -0.4283
 1908TIP3    H127139   4.041   2.369  13.240 -0.2594 -0.1180 -0.4871
 1908TIP3    H227140   4.087   2.466  13.347 -2.2027  0.2752  0.0322
 1909TIP3   OH227141   1.574   3.193  16.243 -0.2031  0.4577  0.0407
 1909TIP3    H127142   1.644   3.159  16.298 -0.7205  1.2677  1.2443
 1909TIP3    H227143   1.516   3.118  16.229  0.9939 -0.2880 -1.1798
 1910TIP3   OH227144   3.698   4.457  14.877 -0.2472 -0.1917  0.5688
 1910TIP3    H127145   3.645   4.516  14.823 -0.5090  0.8968  1.9525
 1910TIP3    H227146   3.671   4.370  14.849 -0.2178  0.3213 -1.1836
 1911TIP3   OH227147   5.742   4.791  10.482  0.0132  0.1442  0.1676
 1911TIP3    H127148   5.795   4.828  10.412 -1.1605 -0.3584 -1.0301
 1911TIP3    H227149   5.664   4.846  10.485 -0.9911 -1.1840 -0.5098
 1912TIP3   OH227150   5.893   2.928   1.950  0.2308  0.1632  0.2703
 1912TIP3    H127151   5.816   2.969   1.989  0.1748 -0.0754  0.4056
 1912TIP3    H227152   5.906   2.847   1.999 -0.3026 -0.5318 -0.7057
 1913TIP3   OH227153   3.367   4.242  13.670  0.1552  0.1755  0.2508
 1913TIP3    H127154   3.449   4.262  13.715  1.5778 -2.2875 -1.0097
 1913TIP3    H227155   3.316   4.194  13.735  1.2684 -1.4171  0.0052
 1914TIP3   OH227156   5.366   3.591   5.283 -0.0022 -0.0680  0.7656
 1914TIP3    H127157   5.307   3.517   5.299 -0.4220  0.3843  1.3677
 1914TIP3    H227158   5.369   3.637   5.367  0.0736  0.7277  0.3355
 1915TIP3   OH227159   5.407   0.353  16.597  0.0253  0.7190 -0.1736
 1915TIP3    H127160   5.351   0.348  16.675 -0.1464 -1.6638 -0.3710
 1915TIP3    H227161   5.349   0.387  16.529 -1.4966 -2.2921 -0.5333
 1916TIP3   OH227162   3.120   1.649   6.324  0.2681 -0.6351 -0.4362
 1916TIP3    H127163   3.191   1.704   6.359 -0.3437  0.5124 -0.9436
 1916TIP3    H227164   3.040   1.701   6.339 -0.5240 -2.0279  0.4072
 1917TIP3   OH227165   1.241   2.635   4.434  0.2966  0.8001  1.0087
 1917TIP3    H127166   1.243   2.615   4.528 -2.2438 -1.4037  0.7338
 1917TIP3    H227167   1.267   2.552   4.392 -0.6478  1.1067 -0.2268
 1918TIP3   OH227168   5.503   3.642  12.271  0.5693  0.0688 -0.2308
 1918TIP3    H127169   5.586   3.674  12.238 -0.4305  1.8592 -1.1117
 1918TIP3    H227170   5.439   3.707  12.244 -0.8006 -0.0089  2.4896
 1919TIP3   OH227171   5.724   1.618   2.586  0.1419  0.2116 -0.0644
 1919TIP3    H127172   5.710   1.600   2.493  1.6332  1.7500 -0.6420
 1919TIP3    H227173   5.761   1.537   2.621 -1.6312 -0.8294 -0.4768
 1920TIP3   OH227174   2.788   6.304   4.975 -0.0602 -0.3580 -0.6407
 1920TIP3    H127175   2.738   6.322   5.055  1.4859  1.4080  0.0194
 1920TIP3    H227176   2.770   6.379   4.918  0.5277 -0.5311 -1.0634
 1921TIP3   OH227177   1.843   0.600  16.324  0.1825  0.1615  0.2510
 1921TIP3    H127178   1.878   0.635  16.242 -0.6981  0.5362  0.0314
 1921TIP3    H227179   1.834   0.675  16.382 -2.5505  0.5270 -0.5172
 1922TIP3   OH227180   1.025   0.940  15.028 -0.3458 -0.1089 -0.3269
 1922TIP3    H127181   1.015   0.848  15.051  2.0225 -0.6186 -1.0949
 1922TIP3    H227182   1.103   0.968  15.076 -1.8639  1.9593  1.0961
 1923TIP3   OH227183   1.181   4.832  14.726 -0.4059  0.4772  0.0244
 1923TIP3    H127184   1.088   4.839  14.706 -0.4955 -0.9236 -0.1895
 1923TIP3    H227185   1.184   4.770  14.799  0.4184 -0.2548 -0.6178
 1924TIP3   OH227186   2.749   0.868  14.603  0.2673  0.2835  0.5640
 1924TIP3    H127187   2.784   0.779  14.610 -0.4904  0.0595  1.6096
 1924TIP3    H227188   2.655   0.859  14.615  0.2353  1.2810  1.2349
 1925TIP3   OH227189   5.672   1.861  15.028 -0.1221  0.3881  0.1472
 1925TIP3    H127190   5.666   1.893  14.938 -0.7702 -0.0202  0.0373
 1925TIP3    H227191   5.766   1.857  15.046  0.0021  0.7561 -0.4086
 1926TIP3   OH227192   5.157   2.801  13.643 -0.3926 -0.6512  0.8775
 1926TIP3    H127193   5.079   2.819  13.591  0.1632 -0.0475  0.2218
 1926TIP3    H227194   5.143   2.848  13.725  0.6616  2.3434 -0.4828
 1927TIP3   OH227195   6.310   1.999   5.653  0.5841 -0.2566  0.3741
 1927TIP3    H127196   6.258   1.936   5.603  0.3774  0.5111 -0.4118
 1927TIP3    H227197   6.284   2.084   5.618  0.2614  0.3291  1.9794
 1928TIP3   OH227198   2.643   6.438   0.191  1.0468 -0.3169 -0.6344
 1928TIP3    H127199   2.581   6.509   0.177  2.3862  0.9113 -0.5307
 1928TIP3    H227200   2.589   6.363   0.217 -0.3817  0.6607 -0.7112
 1929TIP3   OH227201   4.539   5.258   5.558 -0.0033 -0.5331  0.4304
 1929TIP3    H127202   4.536   5.174   5.512  1.2024  0.1739 -1.0112
 1929TIP3    H227203   4.474   5.249   5.628 -0.5454 -2.3273 -0.2455
 1930TIP3   OH227204   4.339   0.124   2.079 -0.7497 -0.2968  0.6582
 1930TIP3    H127205   4.416   0.161   2.035 -0.1472 -0.6584  1.3850
 1930TIP3    H227206   4.277   0.106   2.008 -0.2341  0.1658  0.0825
 1931TIP3   OH227207   2.793   6.059  12.803 -0.9634 -0.4790 -0.0026
 1931TIP3    H127208   2.861   6.076  12.869 -1.1901 -0.8706  0.3390
 1931TIP3    H227209   2.842   6.042  12.722 -0.7195  2.1729 -0.5129
 1932TIP3   OH227210   2.318   5.700  12.229 -0.0946  0.4478 -0.1623
 1932TIP3    H127211   2.317   5.796  12.228 -2.6859  0.4772 -1.3607
 1932TIP3    H227212   2.295   5.677  12.318 -0.2888  0.9358 -0.0804
 1933TIP3   OH227213   6.706   2.659   1.023 -0.2852  0.4594 -0.0117
 1933TIP3    H127214   6.785   2.702   0.991  0.3940  0.8099  1.9529
 1933TIP3    H227215   6.655   2.640   0.945  1.5149  0.6625 -1.2931
 1934TIP3   OH227216   0.338   6.712   5.067 -0.0104 -0.2576  0.2026
 1934TIP3    H127217   0.264   6.716   5.128 -0.2638 -1.9274  0.0432
 1934TIP3    H227218   0.344   6.620   5.043  0.9282  0.1690 -1.2855
 1935TIP3   OH227219   5.621   4.532   4.017 -0.0987  0.1434 -0.2366
 1935TIP3    H127220   5.669   4.530   3.935  0.8735 -0.2213  0.3313
 1935TIP3    H227221   5.568   4.452   4.017 -0.5623  0.4454 -0.7698
 1936TIP3   OH227222   1.430   0.708  12.071 -0.4165 -0.7171 -0.4923
 1936TIP3    H127223   1.366   0.748  12.013 -0.6489 -1.2335 -0.5974
 1936TIP3    H227224   1.378   0.665  12.138 -0.1917 -1.3799 -0.7353
 1937TIP3   OH227225   0.559   4.138  13.481 -0.0243 -0.1863 -0.0588
 1937TIP3    H127226   0.487   4.177  13.532  0.1507 -0.7131  0.6113
 1937TIP3    H227227   0.515   4.091  13.410 -0.3137 -0.0260  0.0112
 1938TIP3   OH227228   0.050   0.508   3.373 -0.0037  0.2260 -0.0599
 1938TIP3    H127229  -0.017   0.564   3.333 -0.5107 -0.3958 -0.1105
 1938TIP3    H227230   0.117   0.568   3.405 -0.9297  0.9110  0.6360
 1939TIP3   OH227231   4.971   1.055  12.648  0.0646  0.4994 -0.3093
 1939TIP3    H127232   4.896   1.082  12.701 -0.0685 -1.1461  0.4063
 1939TIP3    H227233   5.011   1.137  12.620 -1.4220  1.4145  0.1185
 1940TIP3   OH227234   1.120   5.753  15.674  0.1117 -0.4046  0.1353
 1940TIP3    H127235   1.146   5.676  15.725  1.0974 -1.9826 -2.5390
 1940TIP3    H227236   1.120   5.722  15.583 -1.7121  2.1889 -0.8509
 1941TIP3   OH227237   1.156   4.074   6.171  0.8065  0.0032  0.2324
 1941TIP3    H127238   1.088   4.122   6.219  1.5535  1.2104  0.1192
 1941TIP3    H227239   1.236   4.124   6.187  1.6217 -1.2365  0.1272
 1942TIP3   OH227240   1.028   4.122   4.350 -0.2775  0.2256  0.4148
 1942TIP3    H127241   0.939   4.102   4.380  0.6209 -2.3946  1.5751
 1942TIP3    H227242   1.041   4.214   4.375 -1.8342 -0.0115  2.3242
 1943TIP3   OH227243   1.860   6.354  16.129  0.5824 -0.2618  0.0790
 1943TIP3    H127244   1.787   6.305  16.166  0.3209  1.1686  1.5692
 1943TIP3    H227245   1.821   6.404  16.057  0.1179  0.3274  0.7282
 1944TIP3   OH227246   1.927   5.675   5.547 -0.4120 -0.2170  0.2317
 1944TIP3    H127247   1.924   5.609   5.478  0.1834  0.5876 -0.5695
 1944TIP3    H227248   1.881   5.634   5.621  0.7456 -1.8997  0.0755
 1945TIP3   OH227249   4.443   4.807  14.524 -0.3851 -0.5207 -0.6360
 1945TIP3    H127250   4.526   4.854  14.514 -0.3615  0.2285  2.1996
 1945TIP3    H227251   4.376   4.872  14.507 -0.3413  0.4801  2.3873
 1946TIP3   OH227252   3.493   0.866   3.737 -0.3428 -0.1553 -0.7220
 1946TIP3    H127253   3.432   0.939   3.752  0.5627  0.4167  0.3660
 1946TIP3    H227254   3.538   0.889   3.655  0.4688  0.9353 -0.0105
 1947TIP3   OH227255   0.421   2.574  15.796  0.5313  0.5885  0.3259
 1947TIP3    H127256   0.331   2.550  15.776  0.9067 -0.8481  0.2472
 1947TIP3    H227257   0.474   2.505  15.756  1.6757  1.4382  0.3213
 1948TIP3   OH227258   5.952   5.416   4.780 -0.1614 -0.0568  0.5316
 1948TIP3    H127259   5.970   5.350   4.712 -1.4497  0.2361 -0.1325
 1948TIP3    H227260   5.862   5.397   4.807  0.3508 -0.2143  2.2453
 1949TIP3   OH227261   2.667   6.354  13.317 -0.0410 -0.1812  0.7002
 1949TIP3    H127262   2.582   6.395  13.301 -0.9518 -2.1226  0.2866
 1949TIP3    H227263   2.706   6.343  13.230  1.1668  1.6514  0.9479
 1950TIP3   OH227264   1.935   2.408   4.484  0.5246 -0.0441 -0.4228
 1950TIP3    H127265   1.875   2.478   4.513  1.0939  0.6076 -0.7976
 1950TIP3    H227266   2.013   2.420   4.539  0.7759 -0.1419 -0.7596
 1951TIP3   OH227267   1.171   6.654   4.287 -0.4515 -0.9614 -0.2169
 1951TIP3    H127268   1.162   6.607   4.370 -1.7136  0.0411  0.2292
 1951TIP3    H227269   1.244   6.609   4.243  0.0401 -1.7054  1.2800
 1952TIP3   OH227270   2.100   3.821   5.284 -0.1798 -0.2727  0.1056
 1952TIP3    H127271   2.158   3.838   5.210 -0.5185 -0.8435 -0.2923
 1952TIP3    H227272   2.143   3.865   5.358  1.0195 -1.0944 -0.0703
 1953TIP3   OH227273   5.347   0.052  13.313  0.1617  0.3220  0.6649
 1953TIP3    H127274   5.373   0.113  13.245 -1.4507 -1.1367 -1.3785
 1953TIP3    H227275   5.293   0.104  13.373  0.7470  1.3872  0.2973
 1954TIP3   OH227276   1.036   0.777  15.629  0.0096  0.7669  0.0145
 1954TIP3    H127277   1.101   0.838  15.662  0.6223  2.2960 -3.6034
 1954TIP3    H227278   0.952   0.823  15.641  0.1242  0.9419  0.1513
 1955TIP3   OH227279   4.928   6.089   1.219 -0.4566 -0.0486 -0.2092
 1955TIP3    H127280   4.940   6.184   1.215  0.5203 -0.0489  1.5238
 1955TIP3    H227281   5.000   6.058   1.274  0.2204 -2.0238 -2.0524
 1956TIP3   OH227282   1.970   3.697   4.902  0.1911 -0.5614  0.6794
 1956TIP3    H127283   2.048   3.745   4.931  0.1508 -0.1144  0.0570
 1956TIP3    H227284   1.897   3.752   4.930  0.1107 -0.7189  0.7828
 1957TIP3   OH227285   0.474   5.944  14.359  0.2772 -0.6063  0.2360
 1957TIP3    H127286   0.556   5.981  14.391 -0.7446  0.4709  1.8168
 1957TIP3    H227287   0.458   5.868  14.414  0.5736 -1.2573 -0.5680
 1958TIP3   OH227288   2.412   4.366   3.782 -0.1265 -0.6767  0.0670
 1958TIP3    H127289   2.354   4.407   3.847 -0.8586 -0.1877 -0.8658
 1958TIP3    H227290   2.438   4.283   3.823 -0.6801 -0.4478  0.9288
 1959TIP3   OH227291   0.013   0.649  11.052 -0.1412 -0.3782 -0.2484
 1959TIP3    H127292  -0.058   0.713  11.054 -0.7839 -1.0160 -1.3343
 1959TIP3    H227293   0.047   0.646  11.142 -0.6847  0.8171  0.0028
 1960TIP3   OH227294   2.907   5.323   5.194  0.0880  0.4243  0.4987
 1960TIP3    H127295   2.819   5.361   5.196 -0.1857 -0.2428  2.5100
 1960TIP3    H227296   2.895   5.238   5.152  0.1728  1.1782 -1.1411
 1961TIP3   OH227297   1.643   5.161  12.746  0.4148 -0.4476  0.3005
 1961TIP3    H127298   1.672   5.078  12.707 -0.7166 -0.7071 -0.0280
 1961TIP3    H227299   1.600   5.208  12.674 -0.7648 -0.4773  0.9543
 1962TIP3   OH227300   5.609   4.778   1.259 -0.0790 -0.2061  0.8405
 1962TIP3    H127301   5.642   4.729   1.334 -0.4380 -1.3094  0.3114
 1962TIP3    H227302   5.546   4.839   1.296  1.0689  0.5372  1.6272
 1963TIP3   OH227303   0.144   6.282   3.074 -0.5631 -0.4447 -0.2396
 1963TIP3    H127304   0.091   6.341   3.127 -0.7675 -0.8668  0.0347
 1963TIP3    H227305   0.160   6.207   3.131 -1.0191 -1.0332 -0.8600
 1964TIP3   OH227306   4.371   6.081  15.910 -0.0842  0.1368  0.3621
 1964TIP3    H127307   4.290   6.097  15.958  0.0489 -1.7319  1.3323
 1964TIP3    H227308   4.348   6.088  15.818 -0.8824  1.5394  0.6467
 1965TIP3   OH227309   2.598   0.664  12.089 -0.3868 -0.1765 -0.3230
 1965TIP3    H127310   2.595   0.716  12.008 -0.7542  0.1922 -0.0758
 1965TIP3    H227311   2.655   0.590  12.068  0.7965  0.7317 -0.4438
 1966TIP3   OH227312   6.728   2.052   4.765 -0.1990 -0.2783  0.5874
 1966TIP3    H127313   6.661   1.995   4.726 -0.2602 -0.6459  1.1998
 1966TIP3    H227314   6.692   2.140   4.756 -0.1269 -0.3334 -0.3328
 1967TIP3   OH227315   0.517   5.985   2.032  0.1725 -0.7713  0.5453
 1967TIP3    H127316   0.460   6.036   1.974  0.8367 -0.0252  0.5341
 1967TIP3    H227317   0.483   6.002   2.120  0.8077  0.2504  0.6029
 1968TIP3   OH227318   1.126   3.186   5.309  0.0151 -0.2989 -0.6762
 1968TIP3    H127319   1.102   3.224   5.393  0.4732  0.9073 -1.0611
 1968TIP3    H227320   1.046   3.193   5.256 -0.4298 -1.5244 -0.2209
 1969TIP3   OH227321   0.515   5.667   0.908  0.0691 -0.0033 -0.5951
 1969TIP3    H127322   0.437   5.643   0.858 -0.8304  2.5779 -0.5884
 1969TIP3    H227323   0.506   5.621   0.992 -0.5322 -1.1090 -1.2584
 1970TIP3   OH227324   0.644   2.157   0.142  0.2525 -0.3520  0.1474
 1970TIP3    H127325   0.670   2.161   0.234 -1.7136 -1.3153  0.7936
 1970TIP3    H227326   0.599   2.239   0.125 -0.9848 -0.9097  0.6055
 1971TIP3   OH227327   3.311   3.210   3.868 -0.7791 -0.1648  0.6034
 1971TIP3    H127328   3.237   3.193   3.926 -0.9407 -2.0742 -0.0884
 1971TIP3    H227329   3.370   3.135   3.881  1.3246  1.5162  1.4896
 1972TIP3   OH227330   1.511   6.509   3.256  0.4318  0.1827  0.0249
 1972TIP3    H127331   1.476   6.553   3.178 -3.2505 -0.3307  1.1813
 1972TIP3    H227332   1.501   6.415   3.236  2.3090 -0.0481  0.0157
 1973TIP3   OH227333   0.383   0.597  12.350  0.4055 -0.1575  0.0996
 1973TIP3    H127334   0.308   0.657  12.347  0.0091 -0.6749 -3.1133
 1973TIP3    H227335   0.356   0.529  12.412 -1.0350  0.5563  0.3000
 1974TIP3   OH227336   2.026   3.646  15.162  0.5845  0.2817  0.3843
 1974TIP3    H127337   2.003   3.602  15.080 -1.2386  0.8409  0.5554
 1974TIP3    H227338   1.974   3.602  15.228  1.8694 -0.0049  1.2412
 1975TIP3   OH227339   3.684   1.894   5.465  0.4861  0.5214 -0.7192
 1975TIP3    H127340   3.600   1.854   5.443  1.3187 -0.7002 -1.8484
 1975TIP3    H227341   3.673   1.923   5.556 -0.8967 -0.2957 -0.5889
 1976TIP3   OH227342   1.567   5.772   4.444  0.6954 -0.1512 -0.6887
 1976TIP3    H127343   1.489   5.751   4.495  1.0497  0.1461 -0.0187
 1976TIP3    H227344   1.638   5.722   4.485  1.4209  1.7362  0.5201
 1977TIP3   OH227345   0.350   4.537   5.934  0.0081  0.3705 -0.2978
 1977TIP3    H127346   0.365   4.529   6.029 -0.8469  1.4864 -0.0490
 1977TIP3    H227347   0.400   4.465   5.896  1.7856  0.9335  0.8547
 1978TIP3   OH227348   5.789   6.755   2.870  0.3906 -0.4781 -0.5061
 1978TIP3    H127349   5.756   6.713   2.790 -1.4850  1.2558 -0.7274
 1978TIP3    H227350   5.759   6.845   2.864  1.4053  0.0530  1.5242
 1979TIP3   OH227351   1.626   2.693   1.437 -0.0832  0.0714 -0.2336
 1979TIP3    H127352   1.712   2.653   1.452 -0.8083 -1.4860 -0.0564
 1979TIP3    H227353   1.641   2.755   1.366  1.3869  0.5337  0.4357
 1980TIP3   OH227354   5.828   2.945   6.035  0.4536  0.0630 -0.3402
 1980TIP3    H127355   5.922   2.934   6.024  0.6924 -2.6016  2.8376
 1980TIP3    H227356   5.819   2.987   6.121 -1.2199 -1.2061  0.1619
 1981TIP3   OH227357   0.330   3.370   3.094  0.0685 -0.0107  0.4264
 1981TIP3    H127358   0.269   3.307   3.056  0.1102 -0.1929  0.6655
 1981TIP3    H227359   0.381   3.402   3.019 -0.4532  0.2925  0.1948
 1982TIP3   OH227360   6.700   3.035  11.812  0.2391 -0.5046 -0.2690
 1982TIP3    H127361   6.757   2.967  11.848  2.2733  1.2525  0.0134
 1982TIP3    H227362   6.758   3.110  11.797 -1.8693  1.1331 -0.7402
 1983TIP3   OH227363   1.120   1.527   5.511  0.7845  0.1601  0.2295
 1983TIP3    H127364   1.065   1.455   5.544  1.5974  0.5424  2.5940
 1983TIP3    H227365   1.182   1.484   5.452  0.4191 -0.8878  0.5772
 1984TIP3   OH227366   4.573   3.128  13.626 -0.0012 -0.0335 -0.0644
 1984TIP3    H127367   4.635   3.191  13.589 -1.1692  0.6849 -0.8777
 1984TIP3    H227368   4.628   3.062  13.667  1.3113  0.4444 -0.9671
 1985TIP3   OH227369   3.209   6.278  12.478 -0.4653 -0.6386  0.0415
 1985TIP3    H127370   3.170   6.212  12.422  1.1121 -2.3025  0.7823
 1985TIP3    H227371   3.202   6.242  12.567  0.7950 -0.0294  0.4177
 1986TIP3   OH227372   2.801   5.566  16.074 -0.4634 -0.6285 -0.6578
 1986TIP3    H127373   2.820   5.533  15.986  1.7538 -1.9810  0.2782
 1986TIP3    H227374   2.832   5.657  16.072 -2.3281  0.0628 -1.8208
 1987TIP3   OH227375   4.220   4.164  12.517 -0.6732  0.3001 -0.4855
 1987TIP3    H127376   4.225   4.104  12.443 -0.5893  0.7629 -0.8570
 1987TIP3    H227377   4.290   4.135  12.576 -0.1503  0.4919 -1.0040
 1988TIP3   OH227378   4.776   3.639  14.921  1.2215 -0.0562 -0.1676
 1988TIP3    H127379   4.712   3.710  14.914  0.4517 -0.7139 -0.0907
 1988TIP3    H227380   4.813   3.631  14.834  1.2202  0.3635 -0.2063
 1989TIP3   OH227381   3.977   5.381   5.212  0.7037  0.3173  0.0561
 1989TIP3    H127382   3.899   5.330   5.235  1.8755 -1.3708  0.5460
 1989TIP3    H227383   3.987   5.369   5.118  1.0838 -0.5909  0.1965
 1990TIP3   OH227384   2.294   4.597  12.138  0.0741  0.4880 -0.1391
 1990TIP3    H127385   2.330   4.656  12.072  0.1661  2.3799  1.4973
 1990TIP3    H227386   2.225   4.550  12.093 -1.3593  3.2785 -1.1088
 1991TIP3   OH227387   5.700   5.275   3.109 -0.0668 -0.1526  0.5450
 1991TIP3    H127388   5.611   5.280   3.072 -0.7912  0.6591  2.3076
 1991TIP3    H227389   5.742   5.206   3.057 -1.9693 -1.1157  0.1473
 1992TIP3   OH227390   0.766   0.240  13.949  0.2914 -0.3223 -0.1072
 1992TIP3    H127391   0.731   0.151  13.950  0.6080 -0.4452 -0.0025
 1992TIP3    H227392   0.706   0.289  13.892  2.3464 -1.4964 -3.5816
 1993TIP3   OH227393   5.887   1.891  14.297 -0.0769 -0.0768  0.1914
 1993TIP3    H127394   5.941   1.813  14.308  0.3872 -0.0282 -1.4785
 1993TIP3    H227395   5.949   1.960  14.271 -0.9188 -0.1915 -2.5084
 1994TIP3   OH227396   1.105   4.201  13.005  0.5624 -0.0220  0.4706
 1994TIP3    H127397   1.180   4.241  12.962  1.1239 -2.0378 -0.5618
 1994TIP3    H227398   1.125   4.107  13.006 -0.9049 -0.3800  2.2766
 1995TIP3   OH227399   4.001   2.117  11.457 -0.1515 -0.2038 -0.1431
 1995TIP3    H127400   3.910   2.088  11.459 -0.8412  1.7884  0.6179
 1995TIP3    H227401   4.021   2.128  11.363 -0.5910 -0.9423 -0.3265
 1996TIP3   OH227402   2.123   3.851   2.401  0.2714  0.3347  0.3669
 1996TIP3    H127403   2.187   3.789   2.366 -1.2978 -0.2920 -1.5564
 1996TIP3    H227404   2.129   3.927   2.343 -0.0448  0.6688  0.7655
 1997TIP3   OH227405   5.792   0.919   5.760  0.7777  0.0468 -0.3060
 1997TIP3    H127406   5.697   0.918   5.772  0.7641 -1.8651 -0.4035
 1997TIP3    H227407   5.804   0.959   5.673  0.2350  2.3683  0.6020
 1998TIP3   OH227408   5.682   2.667  12.115  0.4607 -0.3488 -0.1043
 1998TIP3    H127409   5.589   2.660  12.135  0.8465 -0.8018  1.7346
 1998TIP3    H227410   5.700   2.761  12.117  0.5666 -0.3579  2.4511
 1999TIP3   OH227411   0.235   3.002   5.586  0.8945 -1.0908 -0.5160
 1999TIP3    H127412   0.241   3.017   5.681  0.4770 -1.2579 -0.4651
 1999TIP3    H227413   0.300   2.934   5.569 -0.8108 -2.9740  0.0690
 2000TIP3   OH227414   5.352   5.568   2.129  0.5119 -0.0863  0.1817
 2000TIP3    H127415   5.358   5.614   2.212 -2.1673 -0.5653  0.7476
 2000TIP3    H227416   5.290   5.620   2.078  0.9875 -0.6017 -0.9481
 2001TIP3   OH227417   1.558   5.114   5.662 -0.0088 -0.5062 -0.6531
 2001TIP3    H127418   1.468   5.082   5.654  0.2624 -1.2570 -0.8255
 2001TIP3    H227419   1.591   5.073   5.742 -0.2779  0.9419  0.2295
 2002TIP3   OH227420   3.503   2.618  13.717 -0.3206  0.3971 -0.0709
 2002TIP3    H127421   3.492   2.705  13.756 -1.0830 -0.1877  1.0777
 2002TIP3    H227422   3.492   2.558  13.791  1.2516 -0.6426 -0.6392
 2003TIP3   OH227423   1.605   0.506  12.031  0.0005 -0.3570 -0.6544
 2003TIP3    H127424   1.550   0.583  12.020  0.4759  0.0272 -0.3705
 2003TIP3    H227425   1.682   0.522  11.977 -0.2257 -0.9639 -1.1748
 2004TIP3   OH227426   5.806   3.595  14.269  0.4262  0.0780  0.2630
 2004TIP3    H127427   5.724   3.546  14.262  0.1072  0.8289 -2.1712
 2004TIP3    H227428   5.794   3.653  14.345 -1.7495  0.9251 -0.6637
 2005TIP3   OH227429   5.549   1.989   0.061 -0.3537  0.3064  0.5186
 2005TIP3    H127430   5.457   1.984   0.085  0.0372  0.4647  2.1341
 2005TIP3    H227431   5.591   2.035   0.133  0.6022  2.5461 -1.3313
 2006TIP3   OH227432   1.017   3.851   1.993 -0.2813 -0.2318 -0.0438
 2006TIP3    H127433   1.058   3.768   2.015  1.8337  0.6859 -0.3229
 2006TIP3    H227434   1.039   3.909   2.067 -0.5875  0.4440 -0.4717
 2007TIP3   OH227435   3.550   5.866   0.989 -0.4914 -0.1860 -0.1689
 2007TIP3    H127436   3.486   5.855   1.059 -0.8333  0.8019 -0.3182
 2007TIP3    H227437   3.515   5.935   0.934  0.2491 -0.2807 -0.7846
 2008TIP3   OH227438   6.716   6.712  15.006  0.0693 -0.6811 -0.1569
 2008TIP3    H127439   6.623   6.696  14.997 -0.3831  0.5688  1.6078
 2008TIP3    H227440   6.754   6.626  15.024 -1.0010 -0.9943  0.7064
 2009TIP3   OH227441   3.200   6.409  15.551 -0.1722  0.0271  0.4739
 2009TIP3    H127442   3.283   6.377  15.516 -1.7257 -1.1294 -2.5357
 2009TIP3    H227443   3.207   6.504  15.547  0.1068 -0.0172 -2.4640
 2010TIP3   OH227444   6.611   2.603  13.167  0.3742  0.4561 -0.4597
 2010TIP3    H127445   6.597   2.539  13.097 -0.2906  0.8466 -0.6928
 2010TIP3    H227446   6.660   2.555  13.234  1.2848  0.1603 -1.3088
 2011TIP3   OH227447   1.566   5.497   0.776 -0.3268 -0.3709 -0.2601
 2011TIP3    H127448   1.637   5.561   0.773 -0.8500  0.2751  0.7211
 2011TIP3    H227449   1.548   5.477   0.684 -1.0289  1.9086 -0.6869
 2012TIP3   OH227450   3.265   2.369   0.577 -0.0553 -0.0279  0.0869
 2012TIP3    H127451   3.254   2.326   0.662  1.6593 -0.7251  0.0095
 2012TIP3    H227452   3.288   2.459   0.599 -0.8973  0.1418  0.3153
 2013TIP3   OH227453   3.325   5.590  11.413 -0.1649 -0.0851 -0.5466
 2013TIP3    H127454   3.268   5.639  11.471  0.9015 -0.9339  1.3272
 2013TIP3    H227455   3.360   5.655  11.352 -0.3903  1.0954  0.5441
 2014TIP3   OH227456   4.552   6.635   0.219 -0.1867 -0.1899  0.2088
 2014TIP3    H127457   4.580   6.680   0.299 -1.2763 -0.5299  0.8037
 2014TIP3    H227458   4.634   6.610   0.175  0.4757 -1.4356  2.0377
 2015TIP3   OH227459   5.121   4.538  14.998 -0.4897 -0.4649  0.3220
 2015TIP3    H127460   5.058   4.471  14.971 -0.6811 -0.8246  1.5693
 2015TIP3    H227461   5.193   4.487  15.036 -0.2999  0.0133  0.6042
 2016TIP3   OH227462   0.376   4.889   2.452 -0.0074 -0.3865  0.0003
 2016TIP3    H127463   0.290   4.920   2.421 -0.0747  0.1183  0.6802
 2016TIP3    H227464   0.439   4.939   2.401 -0.0982 -1.5120 -1.2621
 2017TIP3   OH227465   1.109   6.592  14.757 -0.7008  0.1721  0.5251
 2017TIP3    H127466   1.040   6.638  14.805 -1.1382  2.0288 -1.7111
 2017TIP3    H227467   1.062   6.534  14.697 -0.4780  1.9894 -1.5412
 2018TIP3   OH227468   2.567   2.952  16.115 -0.2752  1.2358 -0.0484
 2018TIP3    H127469   2.485   2.911  16.145 -0.5307 -1.0637 -3.3930
 2018TIP3    H227470   2.631   2.929  16.182 -0.9596 -2.8840 -0.5416
 2019TIP3   OH227471   6.131   5.185  12.487  0.3325  0.1307  0.7983
 2019TIP3    H127472   6.213   5.210  12.445  0.3870  2.6305  2.1666
 2019TIP3    H227473   6.133   5.230  12.572 -2.3394  0.1051  0.9599
 2020TIP3   OH227474   3.973   2.856   0.855  0.2118  0.2791 -0.5401
 2020TIP3    H127475   3.999   2.896   0.772 -1.0309  1.8264 -0.2311
 2020TIP3    H227476   4.047   2.800   0.878  1.6319  1.6414 -1.5214
 2021TIP3   OH227477   4.718   1.901  12.316  0.0776  0.0251 -0.0573
 2021TIP3    H127478   4.644   1.870  12.264 -0.4605  0.0097  0.7065
 2021TIP3    H227479   4.751   1.977  12.269  1.0389 -1.3059 -1.6491
 2022TIP3   OH227480   1.483   6.667   2.828  0.6361  0.2962 -0.0479
 2022TIP3    H127481   1.496   6.747   2.878 -0.4965 -0.5415  1.6835
 2022TIP3    H227482   1.402   6.629   2.863  1.7536 -2.1914  0.0664
 2023TIP3   OH227483   0.752   2.358  16.643  0.0583  1.0550 -0.0110
 2023TIP3    H127484   0.704   2.387  16.566 -0.2792 -1.0345 -0.6674
 2023TIP3    H227485   0.684   2.334  16.706  0.1399 -1.3619 -0.7313
 2024TIP3   OH227486   6.671   4.623  10.871  0.1144 -0.3472  0.0395
 2024TIP3    H127487   6.666   4.528  10.882  1.7353 -0.3899  0.7183
 2024TIP3    H227488   6.596   4.645  10.815 -0.2791 -2.0193 -0.1392
 2025TIP3   OH227489   0.108   0.993   6.068  0.0106 -0.4376 -0.2780
 2025TIP3    H127490   0.032   1.042   6.037  1.0391  0.7476 -1.0909
 2025TIP3    H227491   0.172   1.004   5.997  1.1874 -0.7476  0.7127
 2026TIP3   OH227492   4.226   3.487  14.087 -0.1421 -0.3396  0.0378
 2026TIP3    H127493   4.176   3.567  14.074  0.2866 -0.0093  0.3832
 2026TIP3    H227494   4.312   3.517  14.117  0.2596 -0.8968 -0.5340
 2027TIP3   OH227495   2.291   3.312   1.630  0.1811 -0.4234 -0.4905
 2027TIP3    H127496   2.372   3.267   1.606  0.7213  0.9055 -1.2340
 2027TIP3    H227497   2.252   3.337   1.546  0.5755  1.6676 -0.0847
 2028TIP3   OH227498   2.131   2.117   1.974  0.1602 -0.3496  0.3757
 2028TIP3    H127499   2.224   2.138   1.972  0.0915 -0.0373 -1.3207
 2028TIP3    H227500   2.093   2.178   2.037  0.7916  1.0050 -0.5051
 2029TIP3   OH227501   3.285   6.755  11.923  0.0127 -0.2416 -1.0150
 2029TIP3    H127502   3.372   6.730  11.893  0.1239 -0.8152 -0.2533
 2029TIP3    H227503   3.289   6.743  12.018 -0.3152  1.5116 -0.7471
 2030TIP3   OH227504   0.385   0.818   3.158 -0.2360 -0.4057 -0.2102
 2030TIP3    H127505   0.421   0.796   3.244 -0.2811  0.3521  0.0086
 2030TIP3    H227506   0.312   0.758   3.146 -0.9802  0.2676  0.8065
 2031TIP3   OH227507   5.869   5.561   0.261  0.0413  0.3678  0.1828
 2031TIP3    H127508   5.926   5.612   0.319  0.1213  0.3047  0.1603
 2031TIP3    H227509   5.782   5.569   0.300  0.2387 -0.3940  0.8145
 2032TIP3   OH227510   3.713   0.280   2.099 -0.8932 -0.2480 -0.4989
 2032TIP3    H127511   3.754   0.209   2.051 -1.0865 -1.0046  0.4141
 2032TIP3    H227512   3.671   0.334   2.032 -0.3531 -0.7332 -1.2433
 2033TIP3   OH227513   1.856   3.665  11.795  0.1773 -0.5553  0.1363
 2033TIP3    H127514   1.933   3.719  11.811  0.8860 -1.6870  0.6864
 2033TIP3    H227515   1.786   3.728  11.777  0.3712  0.7216  3.1985
 2034TIP3   OH227516   0.189   6.181  12.467 -0.3651  0.4393  0.5615
 2034TIP3    H127517   0.193   6.110  12.402  1.9859  0.1203  0.9372
 2034TIP3    H227518   0.223   6.258  12.420 -0.3698  0.6565  0.9112
 2035TIP3   OH227519   1.542   4.596   4.139 -0.2554 -0.1698 -0.3324
 2035TIP3    H127520   1.489   4.676   4.131 -1.3117 -0.8586 -0.3969
 2035TIP3    H227521   1.590   4.592   4.056  0.4981  0.8583  0.0278
 2036TIP3   OH227522   6.616   3.489  15.700 -0.5221 -0.0406  0.2917
 2036TIP3    H127523   6.578   3.502  15.786  0.5904  1.1638  0.6365
 2036TIP3    H227524   6.642   3.396  15.699 -0.2597  0.0109  1.3768
 2037TIP3   OH227525   6.361   5.779   0.177 -0.1009 -0.2076  0.0820
 2037TIP3    H127526   6.370   5.840   0.251 -0.9488  1.4366 -1.0892
 2037TIP3    H227527   6.269   5.787   0.152 -0.2005 -1.9363 -0.1960
 2038TIP3   OH227528   6.038   0.018   1.602  0.3331  0.2631 -0.5817
 2038TIP3    H127529   6.127  -0.019   1.605 -0.9321 -3.1152  0.6515
 2038TIP3    H227530   6.016   0.032   1.694 -0.9636 -0.5357 -0.7517
 2039TIP3   OH227531   0.053   5.400   5.037  0.1618  0.1690 -0.4253
 2039TIP3    H127532   0.137   5.376   5.076 -0.5668 -1.1625  0.3817
 2039TIP3    H227533  -0.003   5.323   5.050 -0.7331  0.4331 -2.3227
 2040TIP3   OH227534   3.108   0.388   2.057  0.0777  0.0528 -0.0150
 2040TIP3    H127535   3.019   0.355   2.061  0.3339 -0.5481  0.9310
 2040TIP3    H227536   3.099   0.483   2.056 -0.5356  0.0468  1.9148
 2041TIP3   OH227537   4.996   6.606   0.747  0.0707  0.2056  0.2615
 2041TIP3    H127538   5.054   6.629   0.675 -2.3780 -1.4110 -2.4377
 2041TIP3    H227539   4.977   6.689   0.790  1.1701  1.3189 -1.3075
 2042TIP3   OH227540   3.175   2.494  13.416 -0.1559  0.4597 -0.6973
 2042TIP3    H127541   3.148   2.539  13.336 -1.0655 -1.5687 -1.5990
 2042TIP3    H227542   3.229   2.421  13.386 -0.8566 -0.5826  0.4785
 2043TIP3   OH227543   0.507   4.559   2.637 -0.6611 -0.3516  0.9923
 2043TIP3    H127544   0.499   4.653   2.654  0.6266 -0.0187 -0.0961
 2043TIP3    H227545   0.425   4.536   2.594 -0.1740  0.7388 -0.6166
 2044TIP3   OH227546   5.420   0.659   5.210  0.1984 -0.3093 -0.1060
 2044TIP3    H127547   5.469   0.619   5.138 -0.9205 -2.3075  0.1660
 2044TIP3    H227548   5.482   0.663   5.282  0.7167 -0.2886 -0.5467
 2045TIP3   OH227549   1.212   1.461  10.653  0.7218 -0.5236 -0.8165
 2045TIP3    H127550   1.230   1.511  10.573  2.3812 -2.4930 -1.7855
 2045TIP3    H227551   1.282   1.485  10.713  0.5645 -0.4482 -0.6622
 2046TIP3   OH227552   2.851   1.580   5.799  0.0756  0.6147 -0.1218
 2046TIP3    H127553   2.802   1.505   5.766 -0.9626  1.4278 -0.4840
 2046TIP3    H227554   2.861   1.637   5.723  0.4312  1.0608  0.2563
 2047TIP3   OH227555   4.819   5.490  11.355 -0.3804 -0.3061 -0.2307
 2047TIP3    H127556   4.913   5.474  11.342 -0.0911  1.5298 -0.5921
 2047TIP3    H227557   4.786   5.407  11.390  2.0423  0.0493  3.4183
 2048TIP3   OH227558   5.551   1.828  11.876 -0.3247 -0.0215 -0.6178
 2048TIP3    H127559   5.585   1.747  11.913 -0.1270  0.4227  0.2143
 2048TIP3    H227560   5.495   1.801  11.804  0.0444 -0.8732 -0.5913
 2049TIP3   OH227561   2.256   5.392   3.119  0.2571  0.1280 -0.3210
 2049TIP3    H127562   2.304   5.438   3.188 -0.5192  0.3983  0.0506
 2049TIP3    H227563   2.230   5.309   3.160  0.7638 -0.2096 -0.6615
 2050TIP3   OH227564   0.075   2.763  14.879  0.4415 -0.0926 -0.2040
 2050TIP3    H127565   0.110   2.674  14.885  2.8676  0.5617 -2.5511
 2050TIP3    H227566   0.023   2.763  14.798 -1.4430  0.1035  0.9584
 2051TIP3   OH227567   3.502   5.039  12.885  0.4207 -0.2451  0.5676
 2051TIP3    H127568   3.583   4.992  12.867  0.6881  0.1113  0.8224
 2051TIP3    H227569   3.490   5.096  12.809  2.0405  1.9421  1.8402
 2052TIP3   OH227570   3.006   1.843   2.600  0.1101 -0.2789  0.4542
 2052TIP3    H127571   2.994   1.764   2.547 -2.0343  1.0174 -1.1348
 2052TIP3    H227572   3.076   1.891   2.557 -1.2242  0.4877 -0.9426
 2053TIP3   OH227573   6.491   2.226  14.195 -0.0430  0.1412 -0.1339
 2053TIP3    H127574   6.583   2.200  14.190 -0.2693 -0.6406 -0.2654
 2053TIP3    H227575   6.483   2.270  14.279  0.6861  1.1645 -0.5690
 2054TIP3   OH227576   5.097   6.050   5.164 -0.8430  0.0400  0.3925
 2054TIP3    H127577   5.108   6.014   5.252 -0.4555 -0.1346  0.2758
 2054TIP3    H227578   5.051   5.982   5.115  0.9788 -0.8762 -0.1771
 2055TIP3   OH227579   1.836   3.733  12.232  0.9618  0.4976  0.0051
 2055TIP3    H127580   1.770   3.754  12.298  0.7303 -0.6368  0.1552
 2055TIP3    H227581   1.827   3.639  12.218  3.0282  0.1703  0.5523
 2056TIP3   OH227582   0.449   2.413   3.684  0.1897  0.6924 -0.3046
 2056TIP3    H127583   0.452   2.508   3.678  0.9245  0.5834 -2.2065
 2056TIP3    H227584   0.502   2.382   3.611 -1.1108 -1.1916 -0.5370
 2057TIP3   OH227585   2.037   5.489  13.436  0.6506 -0.1203 -0.4207
 2057TIP3    H127586   2.047   5.582  13.458  0.6563 -0.1669 -0.2248
 2057TIP3    H227587   2.002   5.450  13.516 -1.7764  0.1472 -1.2707
 2058TIP3   OH227588   5.723   5.632   3.615 -0.0910  0.3840 -0.2082
 2058TIP3    H127589   5.693   5.662   3.529 -1.6677  1.0350  0.5317
 2058TIP3    H227590   5.755   5.711   3.658  0.8137  0.0381 -0.2210
 2059TIP3   OH227591   2.411   3.174  11.923  0.0592 -0.6138 -0.5071
 2059TIP3    H127592   2.457   3.251  11.890 -1.3518  1.1997  1.4601
 2059TIP3    H227593   2.322   3.181  11.888  0.0621 -1.6968 -0.7817
 2060TIP3   OH227594   1.479   2.930   0.578 -1.0579 -0.0733 -0.5443
 2060TIP3    H127595   1.391   2.908   0.611 -1.2771  1.0815 -0.2858
 2060TIP3    H227596   1.509   2.851   0.533 -1.8969 -0.7598  0.0683
 2061TIP3   OH227597   4.623   4.525   5.405  0.1535  0.0176 -0.0017
 2061TIP3    H127598   4.574   4.454   5.364  0.1889  1.1750 -2.2054
 2061TIP3    H227599   4.628   4.593   5.337 -0.0488  2.2203  2.0745
 2062TIP3   OH227600   6.324   3.804   3.911 -0.1517 -0.0246 -0.2754
 2062TIP3    H127601   6.323   3.777   3.819  1.7884  0.6927 -0.5400
 2062TIP3    H227602   6.240   3.772   3.946 -1.5123  0.8098 -2.5895
 2063TIP3   OH227603   2.975   3.869  10.951 -0.1670  0.0882  0.5869
 2063TIP3    H127604   3.053   3.835  10.995 -0.0071  0.4600  0.5909
 2063TIP3    H227605   2.977   3.829  10.864  0.1074  0.2088  0.5365
 2064TIP3   OH227606   0.018   6.330   6.655  0.1970  0.1474  0.0155
 2064TIP3    H127607   0.022   6.258   6.592  1.1064  0.5941 -0.4496
 2064TIP3    H227608   0.091   6.313   6.715 -1.3407 -0.9220  1.6958
 2065TIP3   OH227609   0.867   0.594  13.172  0.2196  0.6186  0.2266
 2065TIP3    H127610   0.934   0.634  13.228  2.8759 -1.3035 -1.3246
 2065TIP3    H227611   0.877   0.638  13.088 -1.2121  0.9930  0.2328
 2066TIP3   OH227612   2.721   4.484  13.320 -0.1855 -0.2157 -0.7763
 2066TIP3    H127613   2.710   4.579  13.325  0.1249 -0.1753 -0.8533
 2066TIP3    H227614   2.687   4.452  13.403  3.3099  0.3048  1.0437
 2067TIP3   OH227615   5.216   3.479   0.019  0.1078 -0.4576 -0.2427
 2067TIP3    H127616   5.187   3.565  -0.010 -0.1301 -0.2729  0.5132
 2067TIP3    H227617   5.296   3.462  -0.032  1.2962  1.0994  0.9895
 2068TIP3   OH227618   2.726   4.193   0.071 -0.5088 -0.4398 -0.0836
 2068TIP3    H127619   2.816   4.170   0.050 -0.9186 -1.1419 -1.1071
 2068TIP3    H227620   2.732   4.283   0.103  0.4462 -0.1718 -0.9551
 2069TIP3   OH227621   3.133   6.444   4.531  0.2603 -0.2297  0.2522
 2069TIP3    H127622   3.228   6.435   4.533  0.2171 -0.6905  0.3761
 2069TIP3    H227623   3.107   6.409   4.446  0.1068 -1.1746  0.6650
 2070TIP3   OH227624   2.153   5.081   0.239 -0.2299  0.0028  0.0846
 2070TIP3    H127625   2.174   5.174   0.247 -0.7399 -0.0320  2.7609
 2070TIP3    H227626   2.058   5.078   0.233 -0.1653 -0.3336 -0.9668
 2071TIP3   OH227627   0.285   1.292   3.803  1.0280  0.0848 -0.9132
 2071TIP3    H127628   0.247   1.204   3.808 -0.3503  0.7348  2.0696
 2071TIP3    H227629   0.373   1.283   3.840  0.6318  0.0443  0.0483
 2072TIP3   OH227630   4.127   6.700   1.390 -0.7047 -0.3397  0.6313
 2072TIP3    H127631   4.142   6.624   1.446 -1.0919 -1.6677 -0.9916
 2072TIP3    H227632   4.179   6.683   1.312  0.8340  2.0738  1.0242
 2073TIP3   OH227633   5.486   5.300  15.342 -0.0641 -0.1653 -0.3283
 2073TIP3    H127634   5.567   5.297  15.292  1.5521 -3.8285  2.0777
 2073TIP3    H227635   5.508   5.349  15.421 -0.1518 -1.1764  0.3379
 2074TIP3   OH227636   4.704   0.567  11.566  0.0875 -0.0451 -0.4585
 2074TIP3    H127637   4.694   0.516  11.646  0.2719 -1.1697 -1.1376
 2074TIP3    H227638   4.635   0.536  11.507 -0.5339  1.3027 -0.4928
 2075TIP3   OH227639   0.952   3.030   3.724 -0.1823 -0.4006 -0.6258
 2075TIP3    H127640   1.034   3.072   3.697  0.1790 -0.0106  0.9568
 2075TIP3    H227641   0.890   3.052   3.655  0.3799  1.5259 -0.5835
 2076TIP3   OH227642   2.664   1.795  16.843 -0.0434 -0.2499  0.7328
 2076TIP3    H127643   2.629   1.746  16.769 -1.7296  2.0447 -0.0845
 2076TIP3    H227644   2.729   1.853  16.805  0.2104 -0.1491  1.3094
 2077TIP3   OH227645   2.514   0.992  16.174 -0.0114 -0.5469 -0.1745
 2077TIP3    H127646   2.545   0.911  16.213 -0.2697 -1.5871 -2.0173
 2077TIP3    H227647   2.583   1.016  16.111 -0.0425  0.5523  0.1920
 2078TIP3   OH227648   1.446   1.478   6.052  0.3083 -0.0541 -0.3953
 2078TIP3    H127649   1.488   1.409   6.000 -0.0092 -1.8172  1.5404
 2078TIP3    H227650   1.363   1.495   6.007 -0.4223 -2.2633 -0.0064
 2079TIP3   OH227651   1.601   2.520  16.611  0.6301 -0.2051 -0.0504
 2079TIP3    H127652   1.592   2.615  16.602  2.5572  0.0440  0.2686
 2079TIP3    H227653   1.558   2.500  16.694 -0.0119  0.3460 -0.2406
 2080TIP3   OH227654   6.709   0.206   5.219 -0.3239  0.1921  0.0021
 2080TIP3    H127655   6.784   0.266   5.217 -0.0318 -0.1459  0.5134
 2080TIP3    H227656   6.633   0.262   5.203  0.1233  0.3742 -1.8439
 2081TIP3   OH227657   2.973   2.107  13.589  0.2187 -0.0346 -0.2318
 2081TIP3    H127658   2.948   2.183  13.641  0.7365 -0.2410  0.3383
 2081TIP3    H227659   3.021   2.143  13.515 -2.0490  0.4010 -1.5702
 2082TIP3   OH227660   2.870   5.943  16.770 -0.2427  0.2301  0.6526
 2082TIP3    H127661   2.844   5.852  16.753  0.7062  0.0319  0.2028
 2082TIP3    H227662   2.965   5.941  16.772 -0.1848  1.3508 -0.1030
 2083TIP3   OH227663   4.129   5.326   0.619 -0.0449  0.1119 -0.9818
 2083TIP3    H127664   4.159   5.270   0.547  3.6988 -1.2515  1.3086
 2083TIP3    H227665   4.195   5.313   0.688 -0.9133  4.6708  1.0854
 2084TIP3   OH227666   6.707   4.874   0.076  0.2242  0.0984  0.1704
 2084TIP3    H127667   6.759   4.796   0.057 -1.7568 -1.4032  0.5430
 2084TIP3    H227668   6.671   4.858   0.164 -1.0658  0.9245 -0.1793
 2085TIP3   OH227669   2.653   3.253   3.472 -0.4245  0.5260 -0.0358
 2085TIP3    H127670   2.724   3.204   3.514  0.8810 -0.3068 -2.9762
 2085TIP3    H227671   2.573   3.222   3.517  0.8156 -0.3244  1.7175
 2086TIP3   OH227672   2.945   6.344   2.534  0.4633 -0.1901  0.0274
 2086TIP3    H127673   2.979   6.262   2.571 -1.6489 -0.1557  2.3403
 2086TIP3    H227674   2.878   6.316   2.472 -0.0657 -0.2423  0.6133
 2087TIP3   OH227675   2.782   3.105   1.247  1.0306 -0.3264 -0.0339
 2087TIP3    H127676   2.797   3.019   1.208 -0.8526 -0.5532 -0.3221
 2087TIP3    H227677   2.839   3.107   1.324  1.0664 -1.8495  0.0034
 2088TIP3   OH227678   4.974   5.367  15.985 -0.2936  0.2099 -0.2765
 2088TIP3    H127679   4.927   5.286  15.966  0.0696 -0.0440 -0.1072
 2088TIP3    H227680   5.060   5.355  15.945 -0.7243  1.1170 -1.5510
 2089TIP3   OH227681   3.564   6.693   4.488  0.1224  0.7558 -0.1723
 2089TIP3    H127682   3.509   6.615   4.481  2.4018 -1.0368  0.4225
 2089TIP3    H227683   3.521   6.747   4.554 -0.5494 -0.9040  0.8082
 2090TIP3   OH227684   6.734   0.960  16.501  0.3059 -0.1437  0.2879
 2090TIP3    H127685   6.759   0.917  16.583  0.5862  0.7096  0.6606
 2090TIP3    H227686   6.682   0.894  16.455 -0.4289 -0.4004  1.4383
 2091TIP3   OH227687   3.929   2.204  14.207 -0.0156  0.2878 -0.1823
 2091TIP3    H127688   3.987   2.238  14.276  0.5925  0.5995 -0.8336
 2091TIP3    H227689   3.931   2.271  14.139 -0.8865  0.1381 -0.3628
 2092TIP3   OH227690   4.301   0.028   0.105  0.1551 -0.2052 -0.1599
 2092TIP3    H127691   4.343   0.097   0.156  1.3218 -0.2643 -1.0029
 2092TIP3    H227692   4.374  -0.018   0.063 -0.6624 -1.3982 -0.2992
 2093TIP3   OH227693   2.473   2.312   4.979  0.2740 -0.4394 -0.3596
 2093TIP3    H127694   2.526   2.236   5.001  1.4697  0.4004 -0.1937
 2093TIP3    H227695   2.406   2.279   4.920  1.3510 -1.4521 -1.0635
 2094TIP3   OH227696   1.575   2.420  12.526  0.3455 -0.0888 -0.2619
 2094TIP3    H127697   1.551   2.451  12.439 -1.0909  0.5096  0.3199
 2094TIP3    H227698   1.570   2.325  12.520 -1.8220 -0.0139 -0.3141
 2095TIP3   OH227699   1.615   1.765  12.777 -0.2824  0.1192  0.2107
 2095TIP3    H127700   1.671   1.835  12.745 -1.0037 -0.0586 -1.5471
 2095TIP3    H227701   1.674   1.703  12.818  0.5329  1.0071  0.4072
 2096TIP3   OH227702   0.483   4.172   1.548 -0.0543  0.3468  0.4390
 2096TIP3    H127703   0.452   4.224   1.474 -2.6857  0.1427  1.3109
 2096TIP3    H227704   0.468   4.081   1.522  1.4131  0.1206  0.2602
 2097TIP3   OH227705   6.699   5.439  11.652 -0.2132 -0.7058 -0.2039
 2097TIP3    H127706   6.737   5.490  11.581 -1.6217 -1.3345 -1.4628
 2097TIP3    H227707   6.731   5.481  11.732 -0.2855  1.3183 -1.1871
 2098TIP3   OH227708   5.819   6.306   6.205 -0.5763 -0.8001  0.1004
 2098TIP3    H127709   5.828   6.302   6.110  0.0953 -1.2933  0.1689
 2098TIP3    H227710   5.804   6.215   6.231 -0.6468 -0.6842  0.4695
 2099TIP3   OH227711   5.769   2.510   3.899 -0.0434  0.1955  0.3456
 2099TIP3    H127712   5.764   2.429   3.951  2.1247  0.0780  0.4748
 2099TIP3    H227713   5.780   2.479   3.809 -1.1180  0.3924  0.1302
 2100TIP3   OH227714   2.712   6.441   3.392  0.0924 -0.0936 -0.2763
 2100TIP3    H127715   2.792   6.422   3.343  1.2380 -1.0160  1.8095
 2100TIP3    H227716   2.695   6.534   3.375  0.1822 -0.4575 -2.6678
 2101TIP3   OH227717   4.604   4.560  15.834 -0.4902 -0.1253 -0.3843
 2101TIP3    H127718   4.533   4.610  15.794  0.8270 -0.1241 -2.9194
 2101TIP3    H227719   4.589   4.470  15.804  1.7438  0.2318 -2.9906
 2102TIP3   OH227720   1.430   6.535  12.269  0.0717 -0.7899  0.4420
 2102TIP3    H127721   1.344   6.518  12.231  0.2760 -0.5256 -0.1596
 2102TIP3    H227722   1.476   6.585  12.202  0.5185 -0.4879  0.9662
 2103TIP3   OH227723   1.125   3.368  15.559  0.4444 -0.0807  0.3717
 2103TIP3    H127724   1.031   3.375  15.544  0.4418 -1.6155 -0.6349
 2103TIP3    H227725   1.153   3.456  15.584 -0.8738  0.9686 -1.5887
 2104TIP3   OH227726   6.257   6.684  11.879 -0.1424  0.1280 -0.2835
 2104TIP3    H127727   6.305   6.672  11.797 -0.1102 -2.2556  0.0289
 2104TIP3    H227728   6.173   6.641  11.864  0.0790 -0.8523  1.0908
 2105TIP3   OH227729   2.686   0.158   5.953 -0.3141  0.2875 -0.2170
 2105TIP3    H127730   2.691   0.216   6.030 -2.4587  2.5367 -1.6106
 2105TIP3    H227731   2.671   0.071   5.990  0.4237  1.0047  1.9283
 2106TIP3   OH227732   0.604   4.282   3.770 -0.1859 -0.2755  0.2551
 2106TIP3    H127733   0.650   4.200   3.755  1.5966  0.4504  1.3753
 2106TIP3    H227734   0.673   4.348   3.771 -1.5084  1.1588 -0.0304
 2107TIP3   OH227735   5.728   4.616  13.602  0.0822 -0.7040  0.8290
 2107TIP3    H127736   5.794   4.571  13.550 -1.9626 -1.2212 -1.5376
 2107TIP3    H227737   5.697   4.551  13.665 -0.1532 -1.3982  0.0120
 2108TIP3   OH227738   1.214   0.492  16.792  0.1052  0.1783  0.1674
 2108TIP3    H127739   1.177   0.571  16.752  0.0607  0.1438  0.1418
 2108TIP3    H227740   1.309   0.503  16.782  0.0659 -0.2297 -0.7019
 2109TIP3   OH227741   5.654   4.873  16.147 -0.3098 -0.0098 -0.1645
 2109TIP3    H127742   5.710   4.938  16.189  0.1476  1.9235 -3.4557
 2109TIP3    H227743   5.715   4.808  16.112 -0.6866 -1.5560  1.8152
 2110TIP3   OH227744   2.288   1.756   1.692  0.1709 -0.3777 -0.6419
 2110TIP3    H127745   2.333   1.673   1.702  1.3779  0.3665  0.3330
 2110TIP3    H227746   2.225   1.758   1.763 -0.2963 -0.7063 -1.0354
 2111TIP3   OH227747   3.229   0.949   4.633  0.3267 -0.2573  0.4035
 2111TIP3    H127748   3.134   0.957   4.638  0.1915 -1.3306 -0.1198
 2111TIP3    H227749   3.261   0.983   4.717 -0.4111  1.3239  0.0738
 2112TIP3   OH227750   0.906   3.488  10.954 -0.3329 -0.3651  0.2447
 2112TIP3    H127751   0.991   3.518  10.987 -0.2134  1.4206 -1.5068
 2112TIP3    H227752   0.928   3.427  10.883 -0.5006  0.4096 -0.4766
 2113TIP3   OH227753   0.485   5.177  12.553 -0.0449  0.3146 -0.0766
 2113TIP3    H127754   0.561   5.118  12.556 -0.4507 -0.2344 -0.4431
 2113TIP3    H227755   0.439   5.153  12.473  1.0461  2.7415 -1.5301
 2114TIP3   OH227756   0.863   3.184  12.797 -0.3590  0.1861  0.2992
 2114TIP3    H127757   0.939   3.136  12.830 -0.0676  0.1518 -0.3832
 2114TIP3    H227758   0.888   3.208  12.707 -0.9650  0.5959  0.2340
 2115TIP3   OH227759   3.278   1.358  13.242  0.1370  0.2673  0.5231
 2115TIP3    H127760   3.279   1.392  13.332 -1.2068  1.6823  0.0484
 2115TIP3    H227761   3.358   1.306  13.235 -0.4653 -1.1290  2.9846
 2116TIP3   OH227762   5.603   5.147  14.494  0.0905 -0.3233 -0.0467
 2116TIP3    H127763   5.565   5.151  14.582  3.6171 -0.1967  1.6432
 2116TIP3    H227764   5.663   5.072  14.497  0.8950  0.1664 -2.0717
 2117TIP3   OH227765   5.537   3.256   3.735 -0.0544 -0.0135 -0.0270
 2117TIP3    H127766   5.453   3.210   3.745 -0.9609  1.0914 -2.1510
 2117TIP3    H227767   5.513   3.347   3.719  1.5047  0.1556 -1.6434
 2118TIP3   OH227768   1.698   0.921  17.160  0.3893  0.3414  0.1569
 2118TIP3    H127769   1.734   1.010  17.163  0.0515  0.5364 -1.2322
 2118TIP3    H227770   1.685   0.898  17.252 -0.2636  2.0396  0.5246
 2119TIP3   OH227771   2.903   6.105   4.161 -0.1319 -0.3346 -0.4388
 2119TIP3    H127772   2.852   6.065   4.231  0.7534 -0.4741  0.1469
 2119TIP3    H227773   2.976   6.046   4.148  0.9978  0.8527  0.1814
 2120TIP3   OH227774   2.735   1.416  13.534  0.6326 -0.3299  0.1426
 2120TIP3    H127775   2.693   1.404  13.619  1.8023  0.5059  0.8652
 2120TIP3    H227776   2.793   1.490  13.546  1.4092 -0.6876 -1.1767
 2121TIP3   OH227777   3.380   3.896  15.075 -0.2138 -0.1807  0.3122
 2121TIP3    H127778   3.324   3.831  15.118  0.0483 -0.9741 -0.5267
 2121TIP3    H227779   3.391   3.965  15.141  3.0394 -2.9106  2.9333
 2122TIP3   OH227780   2.077   4.965   1.670 -0.1924 -0.5949  0.1161
 2122TIP3    H127781   2.023   5.040   1.695 -0.3315 -0.6765  0.0589
 2122TIP3    H227782   2.046   4.939   1.583  0.4809 -0.1359 -0.2736
 2123TIP3   OH227783   4.784   4.393  12.427 -0.4848  0.7926 -0.6667
 2123TIP3    H127784   4.857   4.368  12.370 -1.2980  1.1525 -1.8989
 2123TIP3    H227785   4.821   4.458  12.487  0.3232  0.6031 -0.9460
 2124TIP3   OH227786   2.529   5.197  16.969 -0.2171  0.1218  0.1398
 2124TIP3    H127787   2.510   5.243  16.887  0.8354 -2.5448 -1.7684
 2124TIP3    H227788   2.456   5.136  16.980 -0.6116  0.8116  1.5332
 2125TIP3   OH227789   4.785   6.424   2.455  0.0122  0.2401 -1.0143
 2125TIP3    H127790   4.743   6.482   2.392  1.0614  1.7589 -0.3898
 2125TIP3    H227791   4.868   6.400   2.413 -0.3149 -0.6529 -1.1709
 2126TIP3   OH227792   6.250   2.863  12.496  0.6664  0.2086 -0.2357
 2126TIP3    H127793   6.163   2.882  12.533  0.0535 -0.0517 -1.5092
 2126TIP3    H227794   6.301   2.942  12.515  0.4454  0.0311  1.2977
 2127TIP3   OH227795   0.623   2.999   4.032 -0.1016  0.4470 -1.1406
 2127TIP3    H127796   0.698   3.058   4.030  0.6556 -0.4218  0.4566
 2127TIP3    H227797   0.636   2.941   3.957  0.9697  0.1284 -0.7166
 2128TIP3   OH227798   2.466   0.243   1.633 -0.2266 -0.1723  0.0257
 2128TIP3    H127799   2.442   0.206   1.547 -1.4676 -0.0193  0.2781
 2128TIP3    H227800   2.481   0.336   1.615 -0.2081 -0.1931 -0.0711
 2129TIP3   OH227801   0.362   2.008   5.266 -0.4452  0.1468  0.2641
 2129TIP3    H127802   0.337   1.997   5.174  0.7254 -1.5295  0.0945
 2129TIP3    H227803   0.283   1.986   5.315 -0.3427 -1.7148 -0.3247
 2130TIP3   OH227804   5.219   5.644   1.294  0.1082 -0.0990  0.3105
 2130TIP3    H127805   5.204   5.730   1.333  0.9880 -0.0335  0.5138
 2130TIP3    H227806   5.231   5.585   1.368 -1.0426 -0.5234  0.1910
 2131TIP3   OH227807   1.492   0.159   1.598 -0.2024 -0.1097 -0.1641
 2131TIP3    H127808   1.553   0.085   1.604 -1.4534 -1.3362 -1.8706
 2131TIP3    H227809   1.545   0.230   1.563  0.7977 -0.4582  0.5923
 2132TIP3   OH227810   1.889   3.772  14.834 -0.2704  0.1509  0.1195
 2132TIP3    H127811   1.864   3.707  14.769  0.4924 -1.9382  1.8251
 2132TIP3    H227812   1.806   3.810  14.863 -0.7269 -0.0857 -0.8384
 2133TIP3   OH227813   3.606   4.406   4.024 -0.0150  0.4451 -0.3784
 2133TIP3    H127814   3.560   4.488   4.040 -3.0129 -1.2418  0.2816
 2133TIP3    H227815   3.614   4.365   4.110 -1.4703 -1.3275 -1.0214
 2134TIP3   OH227816   5.386   3.903   1.895 -0.3424 -0.3509  0.1330
 2134TIP3    H127817   5.455   3.922   1.958  0.3236 -0.8606 -0.4364
 2134TIP3    H227818   5.311   3.877   1.948 -0.0881  0.1512  0.7491
 2135TIP3   OH227819   5.552   6.213   5.706 -0.3123 -0.4007 -0.4214
 2135TIP3    H127820   5.610   6.264   5.650 -1.4692  1.3938 -0.0456
 2135TIP3    H227821   5.611   6.155   5.754  1.7433  3.4955  2.3404
 2136TIP3   OH227822   1.698   1.616  11.667 -0.0960  0.1294  0.0307
 2136TIP3    H127823   1.727   1.704  11.691  0.7434  0.1145 -0.9095
 2136TIP3    H227824   1.778   1.567  11.651 -0.5917 -0.3926 -0.9178
 2137TIP3   OH227825   3.741   0.888   2.885 -0.5765 -0.2067 -0.7103
 2137TIP3    H127826   3.746   0.919   2.795  1.5768 -1.7260 -1.1892
 2137TIP3    H227827   3.750   0.793   2.879  0.8946 -0.2565  1.1395
 2138TIP3   OH227828   2.548   6.744   6.084  0.0315 -0.1628  0.1674
 2138TIP3    H127829   2.558   6.792   6.165 -0.8985 -1.3912  1.0454
 2138TIP3    H227830   2.461   6.706   6.089  0.0269 -0.4063 -1.3306
 2139TIP3   OH227831   0.721   3.930  12.565 -0.4255  0.0229 -0.3117
 2139TIP3    H127832   0.786   4.001  12.571 -1.3554  0.8673  0.0914
 2139TIP3    H227833   0.771   3.855  12.532  0.2847  1.2708 -2.3203
 2140TIP3   OH227834   2.969   6.319  16.116 -0.9655 -0.0512 -0.1301
 2140TIP3    H127835   2.999   6.322  16.025 -0.5713  0.0379  0.0009
 2140TIP3    H227836   3.038   6.271  16.162 -2.2195 -2.1900 -0.2980
 2141TIP3   OH227837   6.770   1.516   6.636  0.7219  0.4044 -0.5441
 2141TIP3    H127838   6.813   1.589   6.682  0.2475 -0.9377  2.2862
 2141TIP3    H227839   6.785   1.441   6.693 -1.2816 -1.1080 -1.8948
 2142TIP3   OH227840   4.361   4.248   4.992  0.0602 -0.2119 -0.0487
 2142TIP3    H127841   4.394   4.160   5.013 -2.8383 -1.5052 -0.3569
 2142TIP3    H227842   4.382   4.260   4.900 -2.3094 -2.1270 -0.9705
 2143TIP3   OH227843   0.489   4.290   5.293  0.0361 -0.2695 -0.4949
 2143TIP3    H127844   0.483   4.378   5.255 -0.3628  0.5857  1.4721
 2143TIP3    H227845   0.414   4.243   5.256 -2.2007  1.4904  1.4845
 2144TIP3   OH227846   3.477   6.177  14.228 -0.0378  0.2011 -0.3080
 2144TIP3    H127847   3.414   6.122  14.275 -0.5634  1.4960  0.5571
 2144TIP3    H227848   3.561   6.133  14.240 -0.3082  0.0245  1.0927
 2145TIP3   OH227849   1.062   5.939  13.664 -0.3056  0.1808 -0.0108
 2145TIP3    H127850   1.142   5.989  13.679 -0.2458  0.0072  0.2502
 2145TIP3    H227851   1.092   5.856  13.626 -0.4776  0.7730 -1.5408
 2146TIP3   OH227852   6.126   0.911   3.504  0.5546 -0.1883  0.0480
 2146TIP3    H127853   6.142   0.822   3.536 -1.1421 -1.4625 -2.3849
 2146TIP3    H227854   6.086   0.900   3.418  0.9882  2.9710 -0.7043
 2147TIP3   OH227855   3.551   0.773   5.587 -0.2014  0.1021 -0.2281
 2147TIP3    H127856   3.506   0.822   5.518 -1.2682 -2.3810 -1.4024
 2147TIP3    H227857   3.586   0.841   5.645  0.3495  2.3079 -2.9164
 2148TIP3   OH227858   1.204   1.115   5.960  0.0323 -0.1065 -0.1976
 2148TIP3    H127859   1.162   1.201   5.956  1.8598  0.8861  0.6065
 2148TIP3    H227860   1.281   1.129   6.016  0.2209 -2.3402  0.1772
 2149TIP3   OH227861   2.201   0.218  15.591 -0.1616  0.1865 -0.1783
 2149TIP3    H127862   2.289   0.249  15.610 -0.1217  0.6320 -1.0224
 2149TIP3    H227863   2.143   0.289  15.619 -0.2324  0.0222  0.0950
 2150TIP3   OH227864   0.813   0.692  13.552 -0.0065 -0.1859 -0.0294
 2150TIP3    H127865   0.733   0.738  13.527  0.6923 -0.1761 -2.5319
 2150TIP3    H227866   0.796   0.601  13.529 -0.1562 -0.6156  1.7149
 2151TIP3   OH227867   6.675   3.139  11.059  0.2084  0.1143 -0.2621
 2151TIP3    H127868   6.657   3.189  10.979 -0.9777  1.2340  0.6539
 2151TIP3    H227869   6.610   3.170  11.122  2.3398  0.7385  1.7890
 2152TIP3   OH227870   2.931   2.459  17.087  0.3092  0.3851 -0.0156
 2152TIP3    H127871   2.892   2.462  17.174  2.3684 -0.3479  0.9972
 2152TIP3    H227872   3.009   2.404  17.097 -1.2917 -2.8432 -3.1302
 2153TIP3   OH227873   0.705   4.959  16.403  0.0529  0.2131 -0.7728
 2153TIP3    H127874   0.763   4.906  16.458 -0.3927  0.5040 -0.0102
 2153TIP3    H227875   0.764   5.019  16.358  0.3894  0.2781 -0.2572
 2154TIP3   OH227876   6.790   4.894   6.047 -0.4499  0.2256  0.3851
 2154TIP3    H127877   6.796   4.972   6.103 -1.0948  0.4149  0.1973
 2154TIP3    H227878   6.709   4.906   5.999 -0.5449 -0.5631  0.3458
 2155TIP3   OH227879   5.319   6.088  13.031  0.1715  0.3397 -0.3776
 2155TIP3    H127880   5.342   6.120  13.119  3.6044 -1.5806 -0.4218
 2155TIP3    H227881   5.309   5.994  13.041 -0.2976  0.1925 -1.9264
 2156TIP3   OH227882   0.431   4.843  14.470  0.3367 -0.2777  0.1723
 2156TIP3    H127883   0.418   4.862  14.377  1.0424  1.6929  0.4174
 2156TIP3    H227884   0.510   4.892  14.493 -0.8641  0.8353  2.2165
 2157TIP3   OH227885   3.141   4.009   0.570  0.3828 -0.2937 -0.2749
 2157TIP3    H127886   3.052   4.035   0.591  0.7690  0.4558  0.5128
 2157TIP3    H227887   3.132   3.922   0.531 -0.7237 -0.0206 -0.6820
 2158TIP3   OH227888   1.584   5.705  12.105  0.8649 -0.3826  0.7269
 2158TIP3    H127889   1.634   5.629  12.134  2.9437  0.5452 -0.1737
 2158TIP3    H227890   1.611   5.775  12.165 -0.4633 -0.1447  1.0928
 2159TIP3   OH227891   4.126   3.293  13.379 -0.5135 -0.0970 -0.7669
 2159TIP3    H127892   4.031   3.277  13.375 -0.6090 -0.1363  0.8533
 2159TIP3    H227893   4.156   3.236  13.450  0.9179 -0.8512 -1.9257
 2160TIP3   OH227894   1.622   3.123  10.425 -0.2937  0.1313  0.2710
 2160TIP3    H127895   1.705   3.169  10.413  0.2383 -0.2843  1.9729
 2160TIP3    H227896   1.646   3.042  10.472 -1.3410 -1.3449 -1.5976
 2161TIP3   OH227897   0.571   4.275  12.197  0.4431 -0.7337 -0.5742
 2161TIP3    H127898   0.579   4.267  12.102 -1.8734 -2.0824 -0.7171
 2161TIP3    H227899   0.477   4.281  12.214  0.7941 -0.4052  1.6376
 2162TIP3   OH227900   4.807   4.046  11.379 -0.5398 -0.0314 -0.0150
 2162TIP3    H127901   4.810   3.971  11.319 -3.3253  0.5970 -1.1331
 2162TIP3    H227902   4.894   4.085  11.373  0.7892 -2.7501  0.1195
 2163TIP3   OH227903   1.520   5.393   4.902  0.2055 -0.1665  0.0289
 2163TIP3    H127904   1.534   5.446   4.981  0.2383 -0.5954  0.3180
 2163TIP3    H227905   1.425   5.394   4.890  0.2410  0.3559 -0.2526
 2164TIP3   OH227906   0.267   3.063  15.414  0.3113  0.1548  0.0581
 2164TIP3    H127907   0.187   3.017  15.389  0.6032  0.3455 -1.3124
 2164TIP3    H227908   0.317   3.070  15.332  0.3536  2.7367  0.2171
 2165TIP3   OH227909   6.418   3.192  12.258 -0.6086  0.1264 -0.2213
 2165TIP3    H127910   6.463   3.178  12.175  0.1464  1.2456 -0.0161
 2165TIP3    H227911   6.480   3.164  12.325 -1.4371 -1.3489 -0.0180
 2166TIP3   OH227912   1.815   1.873  14.607  0.0331  0.1236 -0.4370
 2166TIP3    H127913   1.769   1.931  14.668  1.4854  0.0718  0.7921
 2166TIP3    H227914   1.893   1.847  14.655  0.9242 -0.4376 -2.1231
 2167TIP3   OH227915   1.856   4.536   0.851  0.1765 -0.5791  0.4968
 2167TIP3    H127916   1.906   4.591   0.911  2.5499 -1.4504 -0.5445
 2167TIP3    H227917   1.895   4.553   0.765 -2.2826 -0.3095 -0.6552
 2168TIP3   OH227918   3.357   2.780  16.165  0.5863  0.0196 -0.0076
 2168TIP3    H127919   3.365   2.788  16.070 -1.6800  0.3680 -0.2275
 2168TIP3    H227920   3.293   2.709  16.178  0.4092  0.3773  1.2150
 2169TIP3   OH227921   2.286   4.948  15.384 -0.0723  0.2757  0.0621
 2169TIP3    H127922   2.325   4.867  15.352 -0.1715  0.6500 -1.0484
 2169TIP3    H227923   2.218   4.919  15.445  0.1902 -0.4584  0.0169
 2170TIP3   OH227924   3.169   2.508   5.499  0.4250 -0.3819  0.1586
 2170TIP3    H127925   3.148   2.592   5.458  0.4016  0.1880  1.2869
 2170TIP3    H227926   3.134   2.515   5.588  1.6016 -1.0616  0.7061
 2171TIP3   OH227927   2.372   4.139   2.415  0.0570 -0.2732 -0.2576
 2171TIP3    H127928   2.457   4.164   2.453  0.2033 -0.7848 -0.2389
 2171TIP3    H227929   2.310   4.151   2.486  0.2741 -0.8684  0.0401
 2172TIP3   OH227930   2.691   0.334  15.319 -0.1653  0.2627 -0.5564
 2172TIP3    H127931   2.608   0.316  15.275 -1.1896 -0.2084  1.4232
 2172TIP3    H227932   2.703   0.429  15.310 -1.8445  0.6286  0.5422
 2173TIP3   OH227933   5.628   3.462   6.025 -0.0944  0.3837 -0.0666
 2173TIP3    H127934   5.681   3.412   6.087  1.4746  1.3313 -0.5753
 2173TIP3    H227935   5.556   3.496   6.078 -0.3672 -1.1395  0.5986
 2174TIP3   OH227936   6.295   1.327  12.049  0.2012  0.5468 -0.4769
 2174TIP3    H127937   6.266   1.268  12.119 -0.0145  0.2362 -0.8164
 2174TIP3    H227938   6.332   1.403  12.094 -0.9168  0.8421 -0.0223
 2175TIP3   OH227939   0.902   4.825   5.139  0.3923  0.6923  0.6567
 2175TIP3    H127940   0.969   4.893   5.134  0.6879  0.4282  0.9426
 2175TIP3    H227941   0.852   4.834   5.058  0.8833  0.7795  0.3587
 2176TIP3   OH227942   3.753   0.683   5.241 -0.6102 -0.4835  0.1274
 2176TIP3    H127943   3.787   0.747   5.179  2.2206 -1.5546  0.4522
 2176TIP3    H227944   3.690   0.631   5.191 -0.5081  0.4484 -1.0039
 2177TIP3   OH227945   1.990   4.839   5.903 -0.0277  0.1709  0.3269
 2177TIP3    H127946   1.957   4.857   5.814 -1.8873 -2.8880  0.2374
 2177TIP3    H227947   2.012   4.925   5.938 -2.0048  1.8247 -2.0856
 2178TIP3   OH227948   4.076   6.556   6.518 -0.2542  0.6113  0.2161
 2178TIP3    H127949   4.002   6.495   6.521 -0.0115  0.1961 -1.5296
 2178TIP3    H227950   4.040   6.639   6.550 -1.3340  0.2833 -0.1140
 2179TIP3   OH227951   3.148   1.679   5.927 -0.4041  0.4488  0.5161
 2179TIP3    H127952   3.104   1.622   5.990 -0.1888  1.1380  1.3065
 2179TIP3    H227953   3.102   1.762   5.934 -1.3008  0.1422 -1.2853
 2180TIP3   OH227954   6.660   3.243  16.268 -0.5706  0.8733 -0.0593
 2180TIP3    H127955   6.661   3.321  16.324 -1.6621  1.2987 -0.6020
 2180TIP3    H227956   6.752   3.226  16.250 -0.1273  0.3423  2.3574
 2181TIP3   OH227957   4.100   2.930  13.486  0.4810  0.2622  0.0246
 2181TIP3    H127958   4.019   2.980  13.482  1.0669  1.2706  0.2501
 2181TIP3    H227959   4.128   2.922  13.395  0.3692  0.3382 -0.0164
 2182TIP3   OH227960   6.491   2.915  11.612 -0.3128  0.2507 -0.0919
 2182TIP3    H127961   6.570   2.954  11.650 -0.2476  0.3308 -0.3090
 2182TIP3    H227962   6.431   2.906  11.686  0.3087 -0.8724  0.3116
 2183TIP3   OH227963   4.119   6.453   2.004 -0.4545 -0.0205  0.2702
 2183TIP3    H127964   4.215   6.453   2.005 -0.3668 -2.8569 -0.6106
 2183TIP3    H227965   4.095   6.462   2.096  0.7228 -0.7913  0.6897
 2184TIP3   OH227966   0.442   0.574   4.336 -0.1979  0.3410  0.4016
 2184TIP3    H127967   0.497   0.497   4.348 -1.5879 -0.9227 -0.8252
 2184TIP3    H227968   0.406   0.592   4.422  2.7704  1.8076  1.4646
 2185TIP3   OH227969   6.485   1.258  13.052  0.3829 -0.6719  0.0700
 2185TIP3    H127970   6.511   1.345  13.020  0.8501 -1.0371 -0.5871
 2185TIP3    H227971   6.389   1.259  13.050  0.3352  0.3805  1.6309
 2186TIP3   OH227972   6.361   6.399   1.262  0.4089 -0.2654  0.3731
 2186TIP3    H127973   6.354   6.437   1.349  0.0078 -0.7084  0.5417
 2186TIP3    H227974   6.270   6.390   1.232  0.5667  0.4218 -0.3313
 2187TIP3   OH227975   0.650   0.405  13.083 -0.2208  0.2506  0.2104
 2187TIP3    H127976   0.722   0.455  13.120  0.7227 -1.7388  1.2418
 2187TIP3    H227977   0.683   0.373  12.999  0.1292 -0.6441  0.6733
 2188TIP3   OH227978   3.950   3.057  11.799  0.1879 -0.0626 -0.4967
 2188TIP3    H127979   3.938   3.089  11.710  1.0276  0.4995 -0.4187
 2188TIP3    H227980   4.034   3.093  11.827  1.0493 -2.0978 -0.2837
 2189TIP3   OH227981   3.812   6.454   3.676 -0.2726  0.7153 -0.1994
 2189TIP3    H127982   3.785   6.394   3.607 -1.5469  1.3601 -0.2826
 2189TIP3    H227983   3.838   6.397   3.748 -0.6640  0.0598 -0.5619
 2190TIP3   OH227984   2.034   0.030  14.792  0.2575 -0.1828  0.5054
 2190TIP3    H127985   2.050   0.121  14.819 -0.3592  0.2890 -0.6489
 2190TIP3    H227986   2.001  -0.013  14.872 -2.2590  1.3505  0.4169
 2191TIP3   OH227987   6.172   6.528  14.925  0.0764  0.0030  0.3576
 2191TIP3    H127988   6.173   6.487  14.838 -0.6600 -0.4788  0.5707
 2191TIP3    H227989   6.238   6.479  14.974  1.1874  0.8928 -0.1875
 2192TIP3   OH227990   0.094   0.081   5.907 -0.2940 -0.7288  0.5305
 2192TIP3    H127991   0.100  -0.002   5.859  2.3834  0.5949 -1.6936
 2192TIP3    H227992   0.009   0.117   5.882  0.8016 -0.2816 -3.1808
 2193TIP3   OH227993   3.018   5.216  15.844  0.6387  0.0565  0.1964
 2193TIP3    H127994   2.962   5.141  15.825  0.2106  0.6998 -1.1733
 2193TIP3    H227995   3.082   5.218  15.774  1.1321  0.5183  0.6455
 2194TIP3   OH227996   4.838   3.047   0.402 -0.1595 -0.1266  0.4839
 2194TIP3    H127997   4.925   3.008   0.414  0.5286  1.3275  0.4687
 2194TIP3    H227998   4.856   3.139   0.385 -1.7552  0.3587  1.2594
 2195TIP3   OH227999   2.388   5.916   5.913 -1.0236 -0.0405  0.0608
 2195TIP3    H128000   2.320   5.981   5.899  0.2012  1.3415  0.2830
 2195TIP3    H228001   2.400   5.874   5.827 -1.9879 -0.1500 -0.0255
 2196TIP3   OH228002   0.472   3.112  14.664  0.5561  0.5597  0.3685
 2196TIP3    H128003   0.522   3.054  14.607 -0.0038  0.9423 -0.5390
 2196TIP3    H228004   0.399   3.058  14.695  0.5084  0.5329  0.2106
 2197TIP3   OH228005   4.265   2.561  17.115 -0.2572 -0.6837 -0.3140
 2197TIP3    H128006   4.201   2.589  17.050  0.2405 -2.1746 -1.4907
 2197TIP3    H228007   4.270   2.635  17.176 -1.2714  0.4609 -1.5412
 2198TIP3   OH228008   0.019   2.608  16.682 -0.1106  0.2638 -0.1445
 2198TIP3    H128009   0.062   2.692  16.697  0.4320  0.0826 -0.6291
 2198TIP3    H228010   0.016   2.600  16.586  0.6143 -0.6565 -0.0961
 2199TIP3   OH228011   2.926   6.139  12.350 -0.2934  0.4437  0.0917
 2199TIP3    H128012   2.992   6.151  12.282  1.6778 -1.5992  1.4755
 2199TIP3    H228013   2.845   6.123  12.303  1.3033 -2.6604 -1.9500
 2200TIP3   OH228014   1.826   3.136   0.375 -0.2811 -0.1236  0.0694
 2200TIP3    H128015   1.732   3.134   0.392 -0.5588 -1.5627 -1.4437
 2200TIP3    H228016   1.834   3.180   0.290  0.3596 -0.6306 -0.1404
 2201TIP3   OH228017   1.721   2.489  14.363  0.1922  0.0984  0.3340
 2201TIP3    H128018   1.741   2.530  14.447 -0.2713  0.5693  0.2209
 2201TIP3    H228019   1.789   2.521  14.304  0.2360  0.1582  0.4162
 2202TIP3   OH228020   6.300   5.409   2.161 -0.3195  0.1696 -0.2068
 2202TIP3    H128021   6.299   5.488   2.216 -0.2342 -0.5173  0.7918
 2202TIP3    H228022   6.236   5.351   2.201 -0.5156 -0.2096 -1.0481
 2203TIP3   OH228023   6.351   5.684  14.927  0.4740  0.1439 -0.5081
 2203TIP3    H128024   6.397   5.695  15.010  0.8006  0.0757 -0.6789
 2203TIP3    H228025   6.406   5.730  14.863  1.3865 -1.6515 -1.0766
 2204TIP3   OH228026   4.777   3.264  10.832  0.3924  0.2775 -0.8267
 2204TIP3    H128027   4.705   3.302  10.882  0.3873  2.1359 -2.1692
 2204TIP3    H228028   4.749   3.174  10.815 -1.0390  0.5893 -0.2414
 2205TIP3   OH228029   2.964   4.868   3.064  0.2054 -0.4172  0.3968
 2205TIP3    H128030   2.967   4.773   3.081  1.3310 -0.3420  0.6972
 2205TIP3    H228031   2.990   4.877   2.972  0.4348 -0.3679  0.4681
 2206TIP3   OH228032   5.482   1.299   3.655  0.2422 -0.5444  0.0201
 2206TIP3    H128033   5.509   1.226   3.710  0.0560 -0.9275 -0.3850
 2206TIP3    H228034   5.511   1.377   3.701 -0.9157 -0.8002  1.2256
 2207TIP3   OH228035   0.318   0.579  12.088  0.8035 -0.0486 -0.1438
 2207TIP3    H128036   0.305   0.667  12.053  2.1702 -0.5163 -1.9308
 2207TIP3    H228037   0.322   0.592  12.183 -0.8142  1.5477 -0.2333
 2208TIP3   OH228038   2.620   1.751   2.105 -0.3351  0.3299 -0.1333
 2208TIP3    H128039   2.706   1.757   2.145 -0.8496  0.8435  0.9499
 2208TIP3    H228040   2.567   1.816   2.152 -1.3535 -0.1033 -0.6458
 2209TIP3   OH228041   0.999   0.645  15.304  0.1849  0.2232 -0.3084
 2209TIP3    H128042   0.980   0.634  15.211  1.8932 -0.6133 -0.5995
 2209TIP3    H228043   1.025   0.736  15.314 -0.1874  0.3617 -0.6115
 2210TIP3   OH228044   0.309   4.579  14.274 -0.0344 -0.0556 -0.5842
 2210TIP3    H128045   0.397   4.591  14.309 -0.5632  1.0244  0.4332
 2210TIP3    H228046   0.310   4.491  14.236  1.4029 -0.1499 -0.3822
 2211TIP3   OH228047   0.537   0.705   3.411 -0.5028 -0.6270 -0.3656
 2211TIP3    H128048   0.590   0.666   3.341 -1.1873 -0.4443 -1.0026
 2211TIP3    H228049   0.569   0.795   3.419  1.2914 -1.3323  1.3178
 2212TIP3   OH228050   6.758   1.644  13.917  0.1322 -1.1551  0.2312
 2212TIP3    H128051   6.714   1.602  13.991  0.1665 -0.2217  0.7996
 2212TIP3    H228052   6.714   1.729  13.908 -1.2186 -2.0159 -2.1041
 2213TIP3   OH228053   4.898   5.144   4.657 -0.2157  1.1960  0.2773
 2213TIP3    H128054   4.809   5.116   4.678  0.3810 -0.0850  1.2773
 2213TIP3    H228055   4.911   5.117   4.566 -0.7781  1.1645  0.2059
 2214TIP3   OH228056   2.084   2.339   1.190  0.1579  0.2501 -0.3425
 2214TIP3    H128057   2.168   2.335   1.236  0.4812  3.4148 -0.4126
 2214TIP3    H228058   2.096   2.282   1.115  1.8743 -0.2002  0.2083
 2215TIP3   OH228059   6.033   3.554  16.308  0.3794  0.4492  0.1634
 2215TIP3    H128060   6.065   3.637  16.344  0.2354  0.3003  0.6407
 2215TIP3    H228061   5.944   3.546  16.342  0.4267  0.0512  0.1970
 2216TIP3   OH228062   2.522   5.093  16.656  0.4808  0.2307  0.4466
 2216TIP3    H128063   2.476   5.166  16.697 -0.0327  1.0529 -1.4810
 2216TIP3    H228064   2.565   5.132  16.580 -0.5315 -1.5965 -1.1414
 2217TIP3   OH228065   1.013   3.593  16.051 -0.1181 -0.3847  0.4307
 2217TIP3    H128066   1.070   3.590  16.127 -0.6863  1.0893  0.9382
 2217TIP3    H228067   1.066   3.634  15.982  0.1114 -0.9514  0.2564
 2218TIP3   OH228068   2.474   5.488   3.278 -0.0458 -0.3162 -0.1365
 2218TIP3    H128069   2.538   5.521   3.340  0.0010 -1.0035  0.1990
 2218TIP3    H228070   2.526   5.440   3.213 -0.1867 -0.5627 -0.0683
 2219TIP3   OH228071   4.813   6.156  13.726 -0.4519  0.3750  0.1476
 2219TIP3    H128072   4.746   6.184  13.664  0.2164  0.8899 -0.3618
 2219TIP3    H228073   4.827   6.232  13.782 -1.7290 -0.3880  1.5779
 2220TIP3   OH228074   6.605   0.282  15.683 -0.0757  0.2782  0.0360
 2220TIP3    H128075   6.670   0.316  15.622  0.5196 -0.0887  0.4677
 2220TIP3    H228076   6.583   0.357  15.739  1.8506 -0.2024  1.5246
 2221TIP3   OH228077   1.174   3.088   2.856 -1.0860  0.1918  0.1664
 2221TIP3    H128078   1.119   3.052   2.787  1.7773 -1.0471 -1.6615
 2221TIP3    H228079   1.138   3.175   2.872 -2.4022  0.2009 -2.3010
 2222TIP3   OH228080   1.004   6.373  11.299  0.3472  0.5309 -0.6342
 2222TIP3    H128081   0.975   6.433  11.368 -0.8258 -0.1450 -0.5201
 2222TIP3    H228082   1.074   6.322  11.340  1.8303  2.2294 -0.9361
 2223TIP3   OH228083   2.012   1.774   4.383  0.2323 -0.0958 -0.4347
 2223TIP3    H128084   1.998   1.817   4.468  0.4907  1.2671 -1.0616
 2223TIP3    H228085   1.929   1.728   4.367 -1.2094  2.5037 -1.0350
 2224TIP3   OH228086   0.164   5.718  16.569  0.2985 -0.1223 -0.1415
 2224TIP3    H128087   0.258   5.727  16.552  0.2494 -1.8104 -1.5775
 2224TIP3    H228088   0.124   5.792  16.522  0.7967 -0.3531 -0.9457
 2225TIP3   OH228089   1.079   4.820  12.446 -0.0580  0.9552 -0.2192
 2225TIP3    H128090   1.085   4.830  12.541 -2.3897  3.1596 -0.1902
 2225TIP3    H228091   1.037   4.735  12.433  2.1862 -0.3546  0.5464
 2226TIP3   OH228092   2.599   2.900   4.377 -0.1406  0.1448 -0.1402
 2226TIP3    H128093   2.539   2.840   4.334 -1.5755  0.6209  1.1038
 2226TIP3    H228094   2.685   2.859   4.367 -0.8831 -1.3811 -0.5793
 2227TIP3   OH228095   6.080   5.873   0.739 -0.0663  0.7024  0.2360
 2227TIP3    H128096   6.065   5.778   0.746  1.1670  0.4458 -0.3779
 2227TIP3    H228097   6.174   5.884   0.754  0.4897  1.4156 -2.9498
 2228TIP3   OH228098   1.715   2.993  10.882 -0.1437 -0.4496 -0.3124
 2228TIP3    H128099   1.715   3.062  10.816  0.1708 -0.4125 -0.2770
 2228TIP3    H228100   1.793   2.941  10.863 -0.1308 -0.5240 -0.0629
 2229TIP3   OH228101   2.930   4.283   0.325  0.7557 -0.1661  0.3827
 2229TIP3    H128102   2.971   4.331   0.397 -0.1327 -1.1480  1.5978
 2229TIP3    H228103   2.869   4.223   0.369 -0.7870  0.1383 -1.2693
 2230TIP3   OH228104   4.146   3.790   5.214 -0.3315  0.2557  0.1042
 2230TIP3    H128105   4.211   3.733   5.172  0.9803  2.7927 -1.5729
 2230TIP3    H228106   4.156   3.772   5.307  0.9873 -1.2638 -0.2791
 2231TIP3   OH228107   4.193   2.500   1.124  0.7988 -0.0553  0.2973
 2231TIP3    H128108   4.111   2.450   1.130 -0.1012  1.1102 -1.5106
 2231TIP3    H228109   4.230   2.495   1.212 -1.4332 -0.2437  1.3017
 2232TIP3   OH228110   5.616   1.459  13.075 -0.5300  0.0828  0.3073
 2232TIP3    H128111   5.680   1.524  13.047  1.2963 -1.5928  0.3931
 2232TIP3    H228112   5.624   1.457  13.170 -2.1336  1.1998  0.5089
 2233TIP3   OH228113   2.544   4.537   4.692  0.0444 -0.4999 -0.1317
 2233TIP3    H128114   2.550   4.625   4.654 -0.6594 -0.5438 -0.3563
 2233TIP3    H228115   2.476   4.545   4.760  1.0068 -0.5191  0.8565
 2234TIP3   OH228116   0.415   1.711  11.179  0.0362 -0.1234  0.0323
 2234TIP3    H128117   0.447   1.636  11.130  1.2443  0.5581 -0.2546
 2234TIP3    H228118   0.491   1.743  11.227 -0.4292  0.9851  0.0597
 2235TIP3   OH228119   1.518   6.379  13.030  0.1611 -0.2084  0.2139
 2235TIP3    H128120   1.457   6.380  12.956 -0.8012  1.1604  0.9866
 2235TIP3    H228121   1.541   6.471  13.043 -0.3643 -0.3260  2.1571
 2236TIP3   OH228122   1.664   5.093   2.189  0.4132  0.7193  0.2840
 2236TIP3    H128123   1.643   5.053   2.272  0.8575  0.7341  0.4068
 2236TIP3    H228124   1.701   5.179   2.212  1.8355  0.1669  0.1459
 2237TIP3   OH228125   6.688   1.435   2.095 -0.0310  0.3758 -0.4391
 2237TIP3    H128126   6.685   1.380   2.017  1.0704  0.2708 -0.4252
 2237TIP3    H228127   6.696   1.373   2.167  2.1170  0.5238 -0.4819
 2238TIP3   OH228128   5.948   5.853  13.804  0.2226  0.3068  0.0245
 2238TIP3    H128129   6.024   5.803  13.776  0.5931 -0.4011  2.1111
 2238TIP3    H228130   5.873   5.799  13.780  0.4098  0.5912 -1.2322
 2239TIP3   OH228131   3.542   6.091   3.330 -0.5180  0.4014  0.1843
 2239TIP3    H128132   3.453   6.069   3.301 -0.5052  1.1287 -0.4005
 2239TIP3    H228133   3.561   6.176   3.291 -0.4541  1.3851  2.2026
 2240TIP3   OH228134   4.857   5.833  15.223 -0.0777 -0.6377 -0.7078
 2240TIP3    H128135   4.849   5.760  15.285 -1.2655 -0.1913 -0.3068
 2240TIP3    H228136   4.819   5.908  15.269  0.3089  0.0353 -1.4567
 2241TIP3   OH228137   0.215   3.797   0.213  0.1977 -0.1580 -0.8135
 2241TIP3    H128138   0.293   3.798   0.157  0.1196  2.1332 -0.9689
 2241TIP3    H228139   0.143   3.778   0.154  0.5573 -1.9475 -0.7270
 2242TIP3   OH228140   0.720   2.689  16.995  0.0058  0.2730  0.5073
 2242TIP3    H128141   0.730   2.671  16.902 -0.4896 -0.0626  0.5152
 2242TIP3    H228142   0.799   2.652  17.035  0.0211  0.0466  0.2681
 2243TIP3   OH228143   1.436   4.551   1.628  0.2584 -0.0009  0.1341
 2243TIP3    H128144   1.519   4.555   1.675  0.3506  1.7459 -0.1122
 2243TIP3    H228145   1.456   4.504   1.547  1.0815  0.6499 -0.0515
 2244TIP3   OH228146   5.508   4.275   4.024 -0.2581  0.1875  0.4339
 2244TIP3    H128147   5.464   4.266   3.939  0.2603  1.8542 -0.0545
 2244TIP3    H228148   5.598   4.246   4.007 -0.4305 -0.5364  0.7155
 2245TIP3   OH228149   1.023   0.298   0.899 -0.7237  0.4153 -0.3216
 2245TIP3    H128150   1.040   0.209   0.929  0.7079  1.4154  2.1394
 2245TIP3    H228151   0.928   0.308   0.903 -1.0378 -1.3827 -2.0134
 2246TIP3   OH228152   3.226   3.044   1.599  0.2890  0.0946  0.1694
 2246TIP3    H128153   3.215   3.057   1.693 -2.1012 -0.2612 -0.0095
 2246TIP3    H228154   3.280   3.117   1.571  1.1165  0.1708  1.8036
 2247TIP3   OH228155   0.890   1.245  15.692  0.0906 -0.1146  0.1493
 2247TIP3    H128156   0.865   1.328  15.733 -0.6391  0.4694 -1.3953
 2247TIP3    H228157   0.839   1.179  15.739 -1.6858  0.6727 -0.5960
 2248TIP3   OH228158   3.520   2.174  11.387  0.4870  0.7051 -0.0754
 2248TIP3    H128159   3.557   2.121  11.316  2.5565  1.4048  0.4011
 2248TIP3    H228160   3.453   2.119  11.426  1.7408 -1.1070 -0.3544
 2249TIP3   OH228161   6.664   4.801  11.941 -0.5700  0.0253  0.3695
 2249TIP3    H128162   6.606   4.725  11.951 -1.4990  0.6810  0.0071
 2249TIP3    H228163   6.752   4.765  11.956 -1.1045 -0.8629  1.5400
 2250TIP3   OH228164   6.477   6.738   6.990  0.1356  0.3630  0.1703
 2250TIP3    H128165   6.551   6.772   7.040  1.3613 -1.9792  0.0694
 2250TIP3    H228166   6.469   6.797   6.915  1.2112  1.2464  0.7228
 2251TIP3   OH228167   6.095   2.207   0.798  0.4695  0.1326 -0.2188
 2251TIP3    H128168   6.188   2.227   0.788  0.5103 -0.4781 -1.2490
 2251TIP3    H228169   6.084   2.121   0.756 -0.2825 -0.5147  1.2185
 2252TIP3   OH228170   0.256   0.961   2.475  0.2990  0.3980 -0.3279
 2252TIP3    H128171   0.219   1.043   2.442  1.1322  1.1301  0.4909
 2252TIP3    H228172   0.238   0.962   2.569  0.7538 -0.1109 -0.2252
 2253TIP3   OH228173   0.519   4.009  11.621  0.2129  0.0773  0.4386
 2253TIP3    H128174   0.446   4.039  11.676 -0.1912 -0.4799  0.2208
 2253TIP3    H228175   0.477   3.955  11.554  0.5404  1.8079 -1.2348
 2254TIP3   OH228176   5.865   0.091   3.933 -0.2760 -0.2812 -0.5330
 2254TIP3    H128177   5.919   0.166   3.908 -1.1006  0.6530  0.4153
 2254TIP3    H228178   5.776   0.116   3.911 -0.7204 -0.4437  0.9413
 2255TIP3   OH228179   3.122   3.388  15.061  0.2364 -0.2621 -0.2815
 2255TIP3    H128180   3.144   3.303  15.098  2.0266 -0.4180 -1.6389
 2255TIP3    H228181   3.069   3.368  14.984  0.6164 -0.1393 -0.5740
 2256TIP3   OH228182   2.156   3.277  15.066  0.0230  0.1478  0.0854
 2256TIP3    H128183   2.064   3.267  15.042 -0.2250 -1.1715  1.4366
 2256TIP3    H228184   2.174   3.370  15.052 -0.6637 -0.0680 -2.9262
 2257TIP3   OH228185   1.704   1.994  15.427 -0.0729  0.7656 -0.4096
 2257TIP3    H128186   1.705   1.907  15.387 -0.8341 -0.3136  1.7392
 2257TIP3    H228187   1.722   1.978  15.520  0.1149  2.9631  0.0000
 2258TIP3   OH228188   3.488   6.366  13.710 -0.0582 -0.2819 -0.1785
 2258TIP3    H128189   3.394   6.378  13.715 -0.0794  0.5561 -1.9691
 2258TIP3    H228190   3.520   6.443  13.664  1.4766 -0.6650  0.1928
 2259TIP3   OH228191   0.267   0.794   2.260  0.0760 -0.3781 -0.5504
 2259TIP3    H128192   0.261   0.835   2.346 -2.1321  0.7312 -1.1550
 2259TIP3    H228193   0.227   0.708   2.272  0.4861 -0.5414 -0.3173
 2260TIP3   OH228194   3.916   5.197  16.512 -0.1526  0.4602 -0.1545
 2260TIP3    H128195   3.896   5.105  16.494 -1.4168  0.3725  1.4864
 2260TIP3    H228196   4.006   5.197  16.544 -0.1468 -0.2059 -0.1650
 2261TIP3   OH228197   1.720   6.671   5.422 -0.1596 -0.1317 -0.3254
 2261TIP3    H128198   1.794   6.619   5.454 -0.3199  0.1208  0.4847
 2261TIP3    H228199   1.657   6.670   5.494 -0.0688  1.3653 -0.1972
 2262TIP3   OH228200   1.316   4.327  15.944 -0.1129  0.1235 -0.1700
 2262TIP3    H128201   1.274   4.293  15.866  1.0011  0.1344 -0.7936
 2262TIP3    H228202   1.257   4.304  16.016 -0.5317 -0.9970 -0.8626
 2263TIP3   OH228203   3.295   1.841   4.112  0.1857 -0.1706 -0.5382
 2263TIP3    H128204   3.248   1.923   4.096  0.6111 -0.2513 -2.4545
 2263TIP3    H228205   3.304   1.801   4.025  1.3791 -1.4817  0.1478
 2264TIP3   OH228206   5.858   4.095  14.322 -0.3460 -0.3134  0.8768
 2264TIP3    H128207   5.787   4.034  14.301  0.6562 -1.5960  1.1048
 2264TIP3    H228208   5.852   4.106  14.417  0.4852 -1.3892  1.0727
 2265TIP3   OH228209   4.282   5.533  10.500  0.0434 -0.8836 -0.5592
 2265TIP3    H128210   4.334   5.602  10.541  1.2027 -1.1097 -1.5957
 2265TIP3    H228211   4.198   5.574  10.480 -0.3739 -0.6219  1.5168
 2266TIP3   OH228212   4.171   1.556  11.049 -0.4218  0.3618 -0.3956
 2266TIP3    H128213   4.093   1.530  11.000 -0.8866  0.4729  0.2820
 2266TIP3    H228214   4.138   1.590  11.132  0.3850 -0.1234  0.1354
 2267TIP3   OH228215   2.211   4.221   1.158  0.3604 -0.5308  0.0811
 2267TIP3    H128216   2.237   4.307   1.126  4.0186 -1.2731  0.6588
 2267TIP3    H228217   2.192   4.235   1.251  1.5657 -0.4187  0.3233
 2268TIP3   OH228218   0.560   5.775  13.513 -0.1231  0.5587  0.0578
 2268TIP3    H128219   0.590   5.820  13.434 -3.1916  2.5718 -0.1257
 2268TIP3    H228220   0.481   5.728  13.485 -0.3901  0.0317  1.5936
 2269TIP3   OH228221   6.003   1.087   3.956  0.1608  0.2959 -0.5734
 2269TIP3    H128222   6.014   1.182   3.958  0.6435  0.2496  1.4598
 2269TIP3    H228223   5.996   1.065   3.863  1.3624  2.1716 -1.1544
 2270TIP3   OH228224   1.027   4.201  15.548 -0.6188  0.2151 -0.0154
 2270TIP3    H128225   1.091   4.173  15.482 -1.1717 -1.5103  0.1334
 2270TIP3    H228226   1.080   4.219  15.626 -0.0679  1.3170 -0.6186
 2271TIP3   OH228227   5.261   5.055   0.370 -0.3602 -0.5583  0.4154
 2271TIP3    H128228   5.320   5.015   0.434 -0.5616 -0.4562  0.6679
 2271TIP3    H228229   5.221   4.982   0.324  1.5726 -0.6284 -1.2645
 2272TIP3   OH228230   4.787   4.701  11.840 -0.3789  0.2692  0.5328
 2272TIP3    H128231   4.734   4.777  11.817  1.0567  2.1766  3.0271
 2272TIP3    H228232   4.740   4.660  11.913 -1.1503 -1.3374 -0.7948
 2273TIP3   OH228233   5.557   4.771  16.910 -0.5530  0.0593  0.3952
 2273TIP3    H128234   5.543   4.763  17.005  1.7191 -0.1669  0.7720
 2273TIP3    H228235   5.627   4.708  16.891 -0.4714  0.6241 -1.2975
 2274TIP3   OH228236   0.285   6.104  14.738 -0.1558  0.1429 -0.2756
 2274TIP3    H128237   0.359   6.132  14.683 -0.7263 -0.0002 -1.1415
 2274TIP3    H228238   0.325   6.072  14.818  0.6313  1.5998 -0.0526
 2275TIP3   OH228239   2.662   2.161   6.282 -0.3848  0.2024  0.0667
 2275TIP3    H128240   2.622   2.099   6.343 -0.5878  1.2435  1.0231
 2275TIP3    H228241   2.729   2.205   6.333 -0.8788  1.4358 -0.3142
 2276TIP3   OH228242   1.770   0.223  15.210  0.3209  0.0218 -0.8442
 2276TIP3    H128243   1.825   0.271  15.272  0.1665  0.0031 -0.6913
 2276TIP3    H228244   1.805   0.247  15.124 -1.9768  3.2876 -1.0265
 2277TIP3   OH228245   6.494   4.615   6.048  0.1008  0.5925  0.3240
 2277TIP3    H128246   6.471   4.684   5.986 -0.2409 -0.4780 -0.7752
 2277TIP3    H228247   6.410   4.575   6.071  0.1373  1.4412  2.0734
 2278TIP3   OH228248   6.151   4.098  11.504  0.0256 -0.7863  0.1465
 2278TIP3    H128249   6.117   4.147  11.579  0.1137 -1.5493  0.6918
 2278TIP3    H228250   6.087   4.029  11.489  0.3833 -1.0846 -0.0135
 2279TIP3   OH228251   3.845   5.196   3.749 -0.5477 -0.2852 -0.3229
 2279TIP3    H128252   3.800   5.131   3.695 -0.0207 -1.0686  0.1661
 2279TIP3    H228253   3.816   5.177   3.838  0.6471 -0.7132 -0.0128
 2280TIP3   OH228254   1.218   0.398   1.088 -0.1201  0.0724 -0.0765
 2280TIP3    H128255   1.133   0.412   1.129 -0.0240 -2.2178  1.0681
 2280TIP3    H228256   1.200   0.337   1.016  0.2662  1.1792 -1.1269
 2281TIP3   OH228257   2.940   3.232   5.870  0.0842 -0.4046  0.2959
 2281TIP3    H128258   2.859   3.227   5.819 -0.0708  0.1445  0.4793
 2281TIP3    H228259   2.924   3.178   5.947 -0.0388 -0.4510  0.2366
 2282TIP3   OH228260   3.726   4.828  13.475 -0.5980  0.0492  0.3769
 2282TIP3    H128261   3.713   4.807  13.567 -0.9597  1.6485  0.7198
 2282TIP3    H228262   3.770   4.913  13.476  1.2946 -0.8416 -0.9111
 2283TIP3   OH228263   3.451   6.537   1.287 -0.6400  0.5359  0.1875
 2283TIP3    H128264   3.408   6.552   1.371  0.1129 -0.4020  0.7616
 2283TIP3    H228265   3.524   6.479   1.307  0.7079  1.8019 -0.8135
 2284TIP3   OH228266   2.941   3.855  13.134 -0.6517  0.4119  0.2887
 2284TIP3    H128267   2.975   3.860  13.045  1.9693 -1.3677  1.0695
 2284TIP3    H228268   2.935   3.761  13.152  1.8645  0.6066  2.9024
 2285TIP3   OH228269   2.369   1.434  14.786  0.1930 -0.1711 -0.1809
 2285TIP3    H128270   2.441   1.487  14.752 -0.5273  1.2004  0.3335
 2285TIP3    H228271   2.389   1.425  14.880 -0.0644 -0.1738 -0.1252
 2286TIP3   OH228272   4.302   0.518   4.640 -0.0654  0.0822 -0.8061
 2286TIP3    H128273   4.207   0.518   4.647 -0.0173 -1.1088  0.5094
 2286TIP3    H228274   4.321   0.464   4.563 -0.4562  0.4352 -1.1492
 2287TIP3   OH228275   3.071   5.395  10.826  0.0886  0.6605 -0.0565
 2287TIP3    H128276   3.090   5.481  10.789 -3.0976  0.8328 -1.6187
 2287TIP3    H228277   3.017   5.413  10.902  1.0151  0.0638  0.7612
 2288TIP3   OH228278   2.327   3.908  12.127 -0.1796  0.2315  0.4952
 2288TIP3    H128279   2.252   3.854  12.151 -0.8663 -0.3509 -2.5559
 2288TIP3    H228280   2.290   3.995  12.110  0.0666  0.3091  0.3461
 2289TIP3   OH228281   0.335   2.072   5.823 -0.1261  0.4759 -0.0307
 2289TIP3    H128282   0.385   2.019   5.885 -0.1164 -0.4650 -0.8065
 2289TIP3    H228283   0.249   2.030   5.820 -0.2292  0.7090 -0.3980
 2290TIP3   OH228284   6.707   0.327  14.797 -0.1327  0.7308 -0.1203
 2290TIP3    H128285   6.747   0.249  14.759  2.0477  0.8384  1.7643
 2290TIP3    H228286   6.750   0.400  14.752  0.4643  0.8382  0.6097
 2291TIP3   OH228287   1.242   3.268  13.322 -0.2259  0.3247 -0.0975
 2291TIP3    H128288   1.272   3.210  13.252  0.8933  0.3190  0.3712
 2291TIP3    H228289   1.301   3.251  13.395 -1.5346  0.1366  0.9613
 2292TIP3   OH228290   0.396   6.136   2.245  0.1638 -0.4717  0.0311
 2292TIP3    H128291   0.342   6.065   2.277  1.7783 -1.8042 -0.0736
 2292TIP3    H228292   0.469   6.141   2.306 -0.5295  1.9802  0.7714
 2293TIP3   OH228293   4.562   3.525  17.013 -0.5218  0.0557  0.2817
 2293TIP3    H128294   4.547   3.555  16.923  0.6974  1.2527  0.4517
 2293TIP3    H228295   4.638   3.467  17.007 -1.7633 -1.6199  0.2376
 2294TIP3   OH228296   0.938   2.402   0.324 -0.1661 -0.1692 -0.4096
 2294TIP3    H128297   0.855   2.369   0.357 -1.6643  2.2786 -1.3639
 2294TIP3    H228298   0.991   2.416   0.402 -1.9290  1.2629  0.6436
 2295TIP3   OH228299   0.298   1.698  10.144 -0.2941  0.7037 -0.3589
 2295TIP3    H128300   0.334   1.637  10.080  1.2199 -1.0652  2.0234
 2295TIP3    H228301   0.204   1.680  10.145 -0.0186 -0.8756 -0.4690
 2296TIP3   OH228302   0.293   4.322  16.570  0.1337  0.0791  0.6246
 2296TIP3    H128303   0.336   4.347  16.652 -2.5275  3.3196  1.2967
 2296TIP3    H228304   0.348   4.359  16.501  1.2763 -0.7762  1.0587
 2297TIP3   OH228305   0.912   4.837   5.613  0.5681 -0.2709  0.4412
 2297TIP3    H128306   0.975   4.908   5.616 -0.5093  0.6656  2.4170
 2297TIP3    H228307   0.931   4.792   5.530  0.8760  2.6550 -1.2176
 2298TIP3   OH228308   6.418   0.755   0.198 -0.0999 -0.1274  0.4819
 2298TIP3    H128309   6.428   0.659   0.198 -0.1105 -0.1286  0.4801
 2298TIP3    H228310   6.324   0.769   0.185 -0.4167 -0.1511  2.4447
 2299TIP3   OH228311   6.222   3.353   4.761 -0.5283  0.0697  0.2330
 2299TIP3    H128312   6.263   3.313   4.684  2.5814 -0.9613  2.2679
 2299TIP3    H228313   6.162   3.285   4.793 -1.1215  0.1369 -0.6808
 2300TIP3   OH228314   3.267   0.350  16.407 -0.0159 -0.0157 -0.2675
 2300TIP3    H128315   3.242   0.326  16.496  0.8222 -0.7455 -0.2176
 2300TIP3    H228316   3.199   0.312  16.352  0.2696 -0.8799 -0.0429
 2301TIP3   OH228317   1.183   4.555  13.599  0.2037  0.2665  0.0320
 2301TIP3    H128318   1.146   4.641  13.615 -0.8060  0.1420 -1.4242
 2301TIP3    H228319   1.123   4.494  13.643 -1.0920  0.1086 -1.8211
 2302TIP3   OH228320   0.812   2.593   5.303 -0.8171  0.2941  0.3754
 2302TIP3    H128321   0.851   2.680   5.295 -0.2006 -0.0960 -1.3293
 2302TIP3    H228322   0.823   2.554   5.216 -0.1305 -1.8810  1.3887
 2303TIP3   OH228323   1.254   2.095  14.920 -0.4828 -0.8426 -0.1279
 2303TIP3    H128324   1.304   2.165  14.878 -0.8040 -0.2126  0.5179
 2303TIP3    H228325   1.200   2.058  14.849 -1.1237  0.2997 -0.2542
 2304TIP3   OH228326   0.730   0.746  17.166 -0.2159  0.2679 -0.1829
 2304TIP3    H128327   0.700   0.660  17.194  1.2012 -0.2683 -0.2453
 2304TIP3    H228328   0.822   0.750  17.195 -0.3096  1.8318  0.0011
 2305TIP3   OH228329   6.542   2.647   1.539 -0.0453 -0.3442  0.2493
 2305TIP3    H128330   6.592   2.645   1.457  1.4340 -0.5203  1.1037
 2305TIP3    H228331   6.605   2.681   1.603 -0.6214 -1.8201  1.6500
 2306TIP3   OH228332   3.901   5.532  17.066 -0.2647 -0.6703 -0.2426
 2306TIP3    H128333   3.857   5.608  17.029  0.0816 -0.1655  0.3601
 2306TIP3    H228334   3.984   5.566  17.100 -1.1596 -0.7929  2.2917
 2307TIP3   OH228335   0.253   6.535  13.095  0.2628  0.0667  0.2888
 2307TIP3    H128336   0.245   6.461  13.035  1.2907  1.0228 -1.0892
 2307TIP3    H228337   0.239   6.497  13.181 -0.2439 -1.5444 -0.4568
 2308TIP3   OH228338   6.563   1.933   0.164 -0.0184  0.5917 -0.0075
 2308TIP3    H128339   6.490   1.963   0.110  0.3871 -0.0702 -0.9758
 2308TIP3    H228340   6.624   1.894   0.101  0.6735  0.1683  0.8962
 2309TIP3   OH228341   0.964   2.509  16.465  0.0753  0.8264 -0.2737
 2309TIP3    H128342   0.976   2.604  16.462 -1.7868  1.3138  2.8977
 2309TIP3    H228343   0.937   2.491  16.556 -0.7199 -2.5956 -1.0412
 2310TIP3   OH228344   0.133   6.463   3.693  0.4940 -0.7369 -0.3655
 2310TIP3    H128345   0.196   6.519   3.649  0.5311 -1.5113 -1.3339
 2310TIP3    H228346   0.088   6.521   3.755  1.4562  0.0393 -0.3708
 2311TIP3   OH228347   2.515   4.139   5.093 -0.3416 -0.1696  0.4665
 2311TIP3    H128348   2.525   4.232   5.114 -1.4870 -0.2455  1.4085
 2311TIP3    H228349   2.481   4.139   5.004  0.9055  0.2545 -0.0412
 2312TIP3   OH228350   2.998   6.031  14.726 -0.5822  0.3344  0.3451
 2312TIP3    H128351   2.916   5.993  14.694 -1.1997  0.2461  1.9592
 2312TIP3    H228352   2.981   6.125  14.726 -0.0491  0.4597 -0.9361
 2313TIP3   OH228353   5.608   4.898  12.640  0.1543 -0.5607  0.2408
 2313TIP3    H128354   5.643   4.834  12.701  0.4920  0.4916  1.1743
 2313TIP3    H228355   5.522   4.920  12.675 -0.4599 -1.3241 -0.7101
 2314TIP3   OH228356   4.188   1.487  11.403 -0.3014  0.5728  0.7763
 2314TIP3    H128357   4.207   1.580  11.416  1.2434  0.2168  1.3066
 2314TIP3    H228358   4.104   1.474  11.447 -0.9521  1.8672 -0.0161
 2315TIP3   OH228359   2.990   4.394  15.437 -0.3534 -0.0656 -0.1067
 2315TIP3    H128360   3.047   4.461  15.399  1.7529 -0.6218  1.8447
 2315TIP3    H228361   2.963   4.341  15.362  0.4370  1.1618 -1.3065
 2316TIP3   OH228362   5.719   6.035  16.384  0.5360 -0.1165  0.2398
 2316TIP3    H128363   5.778   6.105  16.413 -0.0923  0.0846  1.0422
 2316TIP3    H228364   5.725   6.038  16.289 -0.2079  1.6803  0.2000
 2317TIP3   OH228365   1.299   2.808   3.225 -0.4977  0.0165  0.3973
 2317TIP3    H128366   1.368   2.869   3.199 -0.7387 -0.7357 -2.3232
 2317TIP3    H228367   1.229   2.822   3.160  0.9487 -5.5966 -3.0456
 2318TIP3   OH228368   1.946   2.869   0.898 -0.0740  0.1385 -0.0535
 2318TIP3    H128369   1.945   2.774   0.889  0.0697  0.1554 -0.2572
 2318TIP3    H228370   1.867   2.898   0.852  0.2757  0.1703 -0.6490
 2319TIP3   OH228371   1.077   1.075   0.420 -0.8452  0.1808 -0.7089
 2319TIP3    H128372   1.019   1.091   0.345 -3.5190 -1.2981  0.8755
 2319TIP3    H228373   1.062   1.151   0.477 -1.3584 -0.2429 -0.2612
 2320TIP3   OH228374   2.191   0.187   1.110 -0.5529  0.2588  0.1635
 2320TIP3    H128375   2.200   0.115   1.172 -1.6520  1.2419  1.5082
 2320TIP3    H228376   2.263   0.173   1.048  2.5003  0.8547  3.2807
 2321TIP3   OH228377   1.853   2.449  12.419  1.0895 -0.6709  0.1155
 2321TIP3    H128378   1.854   2.523  12.359  0.6170 -1.9686 -1.6031
 2321TIP3    H228379   1.768   2.453  12.462  1.3324  0.1374  0.5258
 2322TIP3   OH228380   6.306   2.616  15.560 -0.1421 -0.5685 -0.5698
 2322TIP3    H128381   6.309   2.521  15.549 -0.9175 -1.0009  2.2447
 2322TIP3    H228382   6.225   2.643  15.515  0.1640 -1.1955 -1.5189
 2323TIP3   OH228383   3.508   1.545   1.358 -0.5157 -0.1141  0.2769
 2323TIP3    H128384   3.543   1.574   1.273 -1.3211 -0.4373 -0.1757
 2323TIP3    H228385   3.422   1.509   1.337 -0.0683 -1.6932  0.9999
 2324TIP3   OH228386   0.975   6.139  12.726  0.1080  0.8375  0.0185
 2324TIP3    H128387   0.944   6.049  12.734  0.2966  0.7463 -0.2446
 2324TIP3    H228388   0.917   6.178  12.661 -0.4118  1.1103  0.6319
 2325TIP3   OH228389   1.464   5.451  16.869 -0.6134 -0.3462  0.0179
 2325TIP3    H128390   1.488   5.517  16.805  0.4436  0.7189  1.4619
 2325TIP3    H228391   1.397   5.398  16.825 -0.6160  0.9274 -1.5880
 2326TIP3   OH228392   4.278   2.035  15.550  0.3494 -0.1262  0.1454
 2326TIP3    H128393   4.308   2.020  15.460  0.1211  1.2635 -0.1887
 2326TIP3    H228394   4.192   2.076  15.540  0.2151 -0.1866  1.0073
 2327TIP3   OH228395   0.747   1.765   4.480  0.2271 -0.1705 -0.1431
 2327TIP3    H128396   0.660   1.797   4.505  0.2793  1.4123 -1.7374
 2327TIP3    H228397   0.803   1.842   4.488  1.9426 -1.5355  2.5306
 2328TIP3   OH228398   6.077   4.754  15.810  0.1798  0.0400 -0.8483
 2328TIP3    H128399   6.165   4.731  15.779 -0.0450  0.4844 -1.8473
 2328TIP3    H228400   6.021   4.744  15.733 -0.3234  1.5907 -0.7089
 2329TIP3   OH228401   0.617   5.628   1.389  0.3572  0.4842  0.4207
 2329TIP3    H128402   0.591   5.720   1.382 -0.1193  0.3433  0.2916
 2329TIP3    H228403   0.614   5.609   1.483 -0.7966  0.2563  0.3561
 2330TIP3   OH228404   3.493   3.761   6.433  0.7435 -0.2061 -0.1193
 2330TIP3    H128405   3.509   3.678   6.388 -1.1857 -0.6386 -0.0893
 2330TIP3    H228406   3.414   3.796   6.393  1.8704  2.0010 -0.5871
 2331TIP3   OH228407   3.209   3.972   1.669  0.2020 -0.1625 -0.3638
 2331TIP3    H128408   3.212   4.039   1.737  0.4181  2.1403 -2.4957
 2331TIP3    H228409   3.155   3.902   1.706 -1.2288  1.7962  1.4731
 2332TIP3   OH228410   2.818   2.041   5.826 -0.3623 -1.0368 -0.6554
 2332TIP3    H128411   2.741   1.989   5.802 -2.2446  0.8399  0.9304
 2332TIP3    H228412   2.785   2.107   5.887  2.3561  0.4712 -0.6334
 2333TIP3   OH228413   1.875   1.287  16.344 -0.3325 -0.0763  0.3547
 2333TIP3    H128414   1.847   1.241  16.423  0.5563 -0.3448  0.5265
 2333TIP3    H228415   1.795   1.327  16.310 -0.4785  1.3722  2.2558
 2334TIP3   OH228416   5.977   5.618  16.231  0.2373 -0.3261 -0.1410
 2334TIP3    H128417   5.913   5.573  16.286 -0.2097 -0.9682 -1.1706
 2334TIP3    H228418   6.039   5.656  16.294 -0.8882 -0.0585  0.8566
 2335TIP3   OH228419   2.820   2.349  13.307  0.6621 -0.4670 -0.4730
 2335TIP3    H128420   2.894   2.307  13.263  2.1616  2.2485 -0.7668
 2335TIP3    H228421   2.789   2.414  13.245  0.2089  0.7172  0.9420
 2336TIP3   OH228422   0.850   6.125  12.239  0.0420  0.0384 -0.3061
 2336TIP3    H128423   0.826   6.197  12.181  1.2832  1.9332  1.3784
 2336TIP3    H228424   0.918   6.077  12.192 -2.6009 -1.7734 -2.5705
 2337TIP3   OH228425   1.686   2.819   5.153 -0.3998 -0.5022 -0.0932
 2337TIP3    H128426   1.631   2.853   5.223 -1.8793  0.4627 -1.6505
 2337TIP3    H228427   1.764   2.786   5.198 -1.0826  0.4832  1.9413
 2338TIP3   OH228428   6.116   3.592   2.789 -0.5532 -0.6096 -0.1608
 2338TIP3    H128429   6.150   3.503   2.782 -0.1632 -0.3921 -1.3499
 2338TIP3    H228430   6.031   3.589   2.746  0.0150 -0.1514 -1.3669
 2339TIP3   OH228431   4.619   5.535   1.298 -0.5852  0.2484 -0.6193
 2339TIP3    H128432   4.681   5.608   1.294 -0.9758  0.6736  0.5386
 2339TIP3    H228433   4.673   5.456   1.292 -0.0178  0.6270 -0.4885
 2340TIP3   OH228434   1.675   4.846   6.539  0.1284 -0.1167 -0.4124
 2340TIP3    H128435   1.594   4.803   6.565  0.1004 -0.0385 -0.3704
 2340TIP3    H228436   1.678   4.926   6.591  0.2517 -0.1384 -0.3851
 2341TIP3   OH228437   4.586   0.131   0.518 -0.3892 -0.0293 -0.0819
 2341TIP3    H128438   4.517   0.077   0.556  0.2581 -1.1256 -0.4220
 2341TIP3    H228439   4.662   0.116   0.573  0.1958 -0.6163 -1.0193
 2342TIP3   OH228440   3.883   0.445   1.386 -0.5144  0.7001 -0.0841
 2342TIP3    H128441   3.949   0.477   1.447 -0.5932  1.1647 -0.2375
 2342TIP3    H228442   3.932   0.403   1.315 -0.4269 -3.0320  1.9203
 2343TIP3   OH228443   4.344   5.868  13.219  0.4825  0.0222  0.0870
 2343TIP3    H128444   4.366   5.868  13.126  0.5591 -0.3932  0.1048
 2343TIP3    H228445   4.401   5.935  13.257 -0.9859  1.6763 -0.4897
 2344TIP3   OH228446   4.483   1.413  12.344 -0.6021 -0.9505  0.3588
 2344TIP3    H128447   4.439   1.329  12.351 -2.3070 -0.1139  0.2220
 2344TIP3    H228448   4.414   1.478  12.361  0.7351  0.4082  0.8224
 2345TIP3   OH228449   1.849   0.850   1.012  0.4411 -0.4244 -0.1735
 2345TIP3    H128450   1.772   0.795   1.026  0.1810 -0.0573 -0.1604
 2345TIP3    H228451   1.843   0.918   1.079 -1.1845  1.7683 -2.3734
 2346TIP3   OH228452   6.434   3.731   2.768 -0.0798 -0.1063 -0.4038
 2346TIP3    H128453   6.445   3.826   2.779  1.4997 -0.2053 -0.8768
 2346TIP3    H228454   6.396   3.701   2.850 -0.5267  0.9212 -0.2180
 2347TIP3   OH228455   0.429   3.374   1.019 -0.3024  0.1804  0.0709
 2347TIP3    H128456   0.491   3.314   0.978 -1.1115 -0.2074 -0.6159
 2347TIP3    H228457   0.474   3.459   1.017  0.3718 -0.1710 -0.0339
 2348TIP3   OH228458   5.115   3.269   4.179  0.3161 -0.3885 -0.0962
 2348TIP3    H128459   5.185   3.257   4.115  1.1926  0.2474  0.7061
 2348TIP3    H228460   5.155   3.245   4.263 -0.1927  0.6565  0.4679
 2349TIP3   OH228461   5.882   5.539   2.948 -0.3345 -0.1735  0.4592
 2349TIP3    H128462   5.850   5.598   2.880  0.3908  1.0359  1.1457
 2349TIP3    H228463   5.842   5.454   2.926  1.4696 -0.3755 -2.6808
 2350TIP3   OH228464   1.557   0.765   2.482  0.3120 -0.2356 -0.0193
 2350TIP3    H128465   1.607   0.788   2.404  0.2865  0.0827  0.0555
 2350TIP3    H228466   1.467   0.756   2.450  0.2794  0.0242 -0.0063
 2351TIP3   OH228467   6.480   5.253  13.873 -0.1250 -0.0066 -0.0066
 2351TIP3    H128468   6.468   5.182  13.937 -0.0316 -0.1303 -0.1244
 2351TIP3    H228469   6.570   5.243  13.842 -0.0408  0.2993  0.1362
 2352TIP3   OH228470   5.154   0.696  16.880 -0.3856 -0.4094 -0.1239
 2352TIP3    H128471   5.121   0.781  16.850 -1.4231 -0.9706 -0.5992
 2352TIP3    H228472   5.226   0.676  16.821 -1.6557 -0.9560 -1.5513
 2353TIP3   OH228473   5.764   1.577   0.596  0.0419 -0.4172  0.8879
 2353TIP3    H128474   5.670   1.585   0.585  0.1509  1.2593  0.8744
 2353TIP3    H228475   5.778   1.486   0.622 -1.8825  0.0421  4.0246
 2354TIP3   OH228476   3.344   1.100   6.146 -0.2681  0.2235  0.2882
 2354TIP3    H128477   3.300   1.141   6.221 -0.6206 -0.7229  0.6127
 2354TIP3    H228478   3.431   1.079   6.178 -0.6330 -0.7812  0.6584
 2355TIP3   OH228479   4.668   2.881  13.361  0.4988 -0.0445  0.1735
 2355TIP3    H128480   4.745   2.930  13.333 -0.3853  1.0030 -0.5494
 2355TIP3    H228481   4.664   2.892  13.456  2.0010 -1.3096  0.4190
 2356TIP3   OH228482   5.765   4.532  15.766  0.3948 -0.3376  0.1613
 2356TIP3    H128483   5.705   4.462  15.742 -0.2661 -0.1015  1.0588
 2356TIP3    H228484   5.801   4.562  15.683 -0.2310 -0.9316 -0.3369
 2357TIP3   OH228485   6.170   2.413  13.299  0.3677  0.0260 -0.5281
 2357TIP3    H128486   6.231   2.464  13.352  0.2830 -0.4641  0.0506
 2357TIP3    H228487   6.084   2.450  13.319  0.3104 -0.3147 -0.1365
 2358TIP3   OH228488   4.723   3.921  13.962  0.2060 -0.1958 -0.2805
 2358TIP3    H128489   4.633   3.954  13.967  0.4622  0.6313 -0.8743
 2358TIP3    H228490   4.727   3.876  13.878  1.1620  2.4178 -1.7378
 2359TIP3   OH228491   6.162   3.930   6.121 -0.2029 -0.0836  0.3185
 2359TIP3    H128492   6.196   3.996   6.182  1.8232 -1.3901  0.7130
 2359TIP3    H228493   6.071   3.918   6.147  0.6937 -0.9454  3.5205
 2360TIP3   OH228494   2.987   4.123  15.831  0.0909  0.1265 -0.7253
 2360TIP3    H128495   2.939   4.045  15.801  0.0540 -0.7113  1.3505
 2360TIP3    H228496   2.945   4.196  15.784 -1.6814 -0.8262 -0.7139
 2361TIP3   OH228497   4.474   1.052  12.938 -0.2714  0.1735  0.2685
 2361TIP3    H128498   4.444   1.082  12.853 -1.4534 -0.1029  0.5707
 2361TIP3    H228499   4.569   1.046  12.929 -0.2474  1.4445 -0.5992
 2362TIP3   OH228500   4.142   5.141  16.659 -0.4641  0.1350 -0.8017
 2362TIP3    H128501   4.236   5.143  16.639 -0.2576 -0.8021 -0.0059
 2362TIP3    H228502   4.120   5.048  16.661 -1.1233  0.2966  0.2193
 2363TIP3   OH228503   0.316   1.139   4.233  0.2656 -0.3281  0.0281
 2363TIP3    H128504   0.260   1.062   4.246  0.7892 -0.5255  1.2244
 2363TIP3    H228505   0.255   1.212   4.224 -0.1991 -0.5455  1.3042
 2364TIP3   OH228506   4.424   2.476   2.109  0.5054  0.2347  0.2386
 2364TIP3    H128507   4.421   2.517   2.196 -1.5047  0.6232  0.0300
 2364TIP3    H228508   4.367   2.531   2.055  1.2727 -0.3297 -1.2043
 2365TIP3   OH228509   4.032   6.130   1.685  0.7276  0.7959 -0.0219
 2365TIP3    H128510   3.989   6.215   1.692  0.5785  0.7090  0.1410
 2365TIP3    H228511   3.962   6.067   1.698  0.9862  0.6548  0.8099
 2366TIP3   OH228512   0.070   2.773  12.730  0.4255 -0.4434  0.0816
 2366TIP3    H128513   0.132   2.843  12.711  0.2955 -0.1749  0.6274
 2366TIP3    H228514   0.020   2.762  12.649 -0.7364  1.2941  0.5125
 2367TIP3   OH228515   0.069   6.033   2.941  0.2806  0.2943  0.2289
 2367TIP3    H128516  -0.026   6.032   2.943  0.2825  0.2182  0.2992
 2367TIP3    H228517   0.092   6.122   2.914  0.1647  0.0111 -0.8477
 2368TIP3   OH228518   2.381   1.245   4.299 -0.1381 -0.4040 -0.2666
 2368TIP3    H128519   2.341   1.254   4.385  0.1915  0.2111 -0.1730
 2368TIP3    H228520   2.384   1.334   4.264  2.7992 -0.1147  0.4866
 2369TIP3   OH228521   6.575   1.479   5.044  0.3255  0.5370 -0.1403
 2369TIP3    H128522   6.631   1.520   5.110 -0.4687  0.7763  0.4018
 2369TIP3    H228523   6.558   1.392   5.078  0.6620  0.3355 -0.4833
 2370TIP3   OH228524   3.928   2.361  14.906 -0.3073  0.0366 -0.0839
 2370TIP3    H128525   3.935   2.272  14.938 -0.1205 -0.5159 -1.5859
 2370TIP3    H228526   3.834   2.377  14.898 -0.3346 -0.1640 -0.1696
 2371TIP3   OH228527   0.895   0.961   4.873 -0.4469 -0.4225 -0.3102
 2371TIP3    H128528   0.851   1.002   4.799 -0.7778 -0.2467 -0.0185
 2371TIP3    H228529   0.859   1.005   4.950  0.9089  0.3629 -0.0930
 2372TIP3   OH228530   3.771   6.074   5.463 -0.3597 -0.2561  0.1472
 2372TIP3    H128531   3.865   6.072   5.445 -0.1831 -1.7589  1.0034
 2372TIP3    H228532   3.755   5.991   5.509 -1.9769  0.3093  0.6380
 2373TIP3   OH228533   1.809   1.627  13.179 -0.0131 -0.2216  0.3387
 2373TIP3    H128534   1.871   1.650  13.109  1.3883 -0.1475  1.5562
 2373TIP3    H228535   1.808   1.532  13.180  1.0238 -0.2473  1.0673
 2374TIP3   OH228536   3.213   5.090  12.012 -0.5232  0.2636  0.8380
 2374TIP3    H128537   3.298   5.068  12.051 -0.7718 -1.2954  0.5530
 2374TIP3    H228538   3.228   5.085  11.918 -1.5778 -3.0661  0.7176
 2375TIP3   OH228539   5.537   2.359  13.499 -0.3544 -0.5117 -0.1429
 2375TIP3    H128540   5.460   2.412  13.520  1.0857  1.8372 -0.4912
 2375TIP3    H228541   5.507   2.269  13.512 -2.5173  0.3728  1.8456
 2376TIP3   OH228542   4.748   3.351  12.322 -0.1811 -0.5227 -0.0013
 2376TIP3    H128543   4.704   3.382  12.401 -1.2188  0.1449 -0.8211
 2376TIP3    H228544   4.699   3.273  12.295 -1.2694  0.5315 -1.2207
 2377TIP3   OH228545   1.133   1.611   2.304  0.2536  0.2801 -0.1725
 2377TIP3    H128546   1.078   1.547   2.350 -0.5015 -0.5722 -2.1386
 2377TIP3    H228547   1.212   1.562   2.280 -0.6000 -0.2139 -2.2517
 2378TIP3   OH228548   6.570   5.409  12.160  0.7145  0.5547  0.0130
 2378TIP3    H128549   6.497   5.452  12.204  1.5735  2.1893 -0.0847
 2378TIP3    H228550   6.641   5.408  12.225  1.1665  0.5944 -0.4712
 2379TIP3   OH228551   4.666   4.130   5.491 -0.3342 -0.4608 -0.6267
 2379TIP3    H128552   4.611   4.163   5.562  1.8682 -0.8951  1.4058
 2379TIP3    H228553   4.669   4.035   5.505  2.5532 -0.2747  0.6743
 2380TIP3   OH228554   2.840   0.741   5.756  0.0722  0.1801  0.1846
 2380TIP3    H128555   2.873   0.770   5.671  0.9095  0.7412  0.6730
 2380TIP3    H228556   2.795   0.817   5.791  0.4679  0.2322  0.5941
 2381TIP3   OH228557   5.164   3.399   0.861  0.1497  0.0418  0.4367
 2381TIP3    H128558   5.074   3.366   0.861  0.6731 -1.4823 -0.3479
 2381TIP3    H228559   5.219   3.321   0.864  1.4599  0.7867 -1.5065
 2382TIP3   OH228560   1.189   1.052   1.111 -0.1600 -0.4728  0.0309
 2382TIP3    H128561   1.094   1.052   1.114 -0.2888  2.0953 -1.0444
 2382TIP3    H228562   1.211   0.981   1.049 -1.4885  0.0291 -1.0667
 2383TIP3   OH228563   2.230   2.636   4.963 -0.2027 -0.5565 -1.0620
 2383TIP3    H128564   2.136   2.654   4.952 -0.1589  0.0820 -0.4819
 2383TIP3    H228565   2.233   2.563   5.025 -0.3253 -1.0298 -1.6014
 2384TIP3   OH228566   1.458   3.485  12.191  0.0097  0.0542 -0.3663
 2384TIP3    H128567   1.467   3.543  12.116  0.6541  0.0550 -0.2880
 2384TIP3    H228568   1.508   3.407  12.167  1.8424  0.8002  0.8211
 2385TIP3   OH228569   6.666   3.456   1.655 -0.2802 -0.3961 -0.0935
 2385TIP3    H128570   6.687   3.545   1.683 -1.1328 -0.1316 -0.2721
 2385TIP3    H228571   6.735   3.434   1.592 -0.6184  0.5170 -0.8060
 2386TIP3   OH228572   5.099   2.863  14.166 -0.6397 -0.1011 -0.4396
 2386TIP3    H128573   5.087   2.958  14.171 -0.7736 -0.1814  0.9850
 2386TIP3    H228574   5.010   2.827  14.171 -0.5843 -0.3131 -0.9085
 2387TIP3   OH228575   4.328   5.434  14.192 -0.4031  0.7164  0.0259
 2387TIP3    H128576   4.388   5.365  14.219 -0.6137  0.3496 -0.4330
 2387TIP3    H228577   4.373   5.478  14.119 -1.0544 -0.1263 -0.9129
 2388TIP3   OH228578   1.018   5.286  16.101 -0.1061 -0.5055  0.1913
 2388TIP3    H128579   1.079   5.350  16.064  0.3688 -1.9812 -1.7437
 2388TIP3    H228580   1.040   5.204  16.057 -2.4475 -1.4431  0.6210
 2389TIP3   OH228581   1.304   5.781  13.394  0.1616 -0.2125  0.3670
 2389TIP3    H128582   1.209   5.780  13.391  0.1541 -1.2662 -2.3591
 2389TIP3    H228583   1.328   5.868  13.361  0.0963 -0.8014 -1.3061
 2390TIP3   OH228584   4.541   0.745   5.654 -0.5319 -0.5277 -0.0449
 2390TIP3    H128585   4.623   0.698   5.669 -0.2373  0.2580  0.8832
 2390TIP3    H228586   4.526   0.794   5.735 -0.1105  2.0469 -1.4001
 2391TIP3   OH228587   3.806   4.073  15.684 -0.2207 -0.0424 -0.0544
 2391TIP3    H128588   3.894   4.037  15.684 -0.7651 -1.4938  1.6390
 2391TIP3    H228589   3.787   4.090  15.591  0.4587 -3.2604 -0.8942
 2392TIP3   OH228590   3.875   4.177   3.936 -0.5205  0.1191  0.6615
 2392TIP3    H128591   3.894   4.103   3.994 -3.2981 -1.2875 -0.0036
 2392TIP3    H228592   3.797   4.218   3.975  0.0106  1.6986  0.1213
 2393TIP3   OH228593   3.935   3.459  15.226  0.3012  0.1007  0.1306
 2393TIP3    H128594   3.999   3.530  15.232  0.4251  0.2767 -2.3405
 2393TIP3    H228595   3.887   3.476  15.144 -1.8707 -0.8949  1.1073
 2394TIP3   OH228596   1.069   6.168   3.520 -0.1074  0.2033 -0.5069
 2394TIP3    H128597   1.076   6.124   3.604  0.0114  1.0790 -0.0477
 2394TIP3    H228598   1.156   6.204   3.504 -0.7025  2.0359  0.1314
 2395TIP3   OH228599   0.362   3.381  15.076  0.0520  0.1703  0.8083
 2395TIP3    H128600   0.415   3.365  14.998 -0.2147 -2.1163  1.0397
 2395TIP3    H228601   0.299   3.448  15.048  0.0623 -0.4763 -0.8898
 2396TIP3   OH228602   2.890   6.526  11.167 -0.0658  0.3549  0.2093
 2396TIP3    H128603   2.985   6.517  11.160 -0.1259 -0.4080  0.2713
 2396TIP3    H228604   2.875   6.621  11.173  0.9858  0.4463  3.9449
 2397TIP3   OH228605   2.731   0.890  14.083  0.0820 -0.1242 -0.3279
 2397TIP3    H128606   2.690   0.806  14.103 -1.2940  0.4713 -0.5124
 2397TIP3    H228607   2.780   0.912  14.162 -1.1452 -0.2029  0.4898
 2398TIP3   OH228608   5.921   6.645   3.196 -0.3025  0.5214  0.2977
 2398TIP3    H128609   5.897   6.563   3.239  0.2109 -0.1783 -0.7074
 2398TIP3    H228610   6.006   6.628   3.157 -0.5357  1.2764 -0.5819
 2399TIP3   OH228611   6.777   3.327  17.049 -0.1800 -0.0529  1.0533
 2399TIP3    H128612   6.791   3.286  16.963 -1.5262  0.7455  0.4157
 2399TIP3    H228613   6.862   3.364  17.072 -0.0815  0.8312 -0.5590
 2400TIP3   OH228614   5.254   1.925   5.172 -0.0443 -0.2110 -0.3979
 2400TIP3    H128615   5.168   1.939   5.211 -0.3819 -2.6279 -0.1201
 2400TIP3    H228616   5.316   1.955   5.238 -0.6585  0.4870 -0.1312
 2401TIP3   OH228617   4.890   0.943  16.205 -0.1700  0.3725 -0.2156
 2401TIP3    H128618   4.886   0.971  16.113 -0.1572  1.0983 -0.0035
 2401TIP3    H228619   4.869   1.022  16.255 -0.0038  0.0268  0.4127
 2402TIP3   OH228620   1.235   3.468  14.629  0.1339 -0.0042  0.2050
 2402TIP3    H128621   1.206   3.488  14.718 -2.4022 -0.9464 -0.3112
 2402TIP3    H228622   1.155   3.441  14.584  1.4724 -0.2362 -2.1780
 2403TIP3   OH228623   2.746   4.776   2.315 -0.0300 -0.2491 -0.9500
 2403TIP3    H128624   2.684   4.723   2.365 -0.5198  0.6609 -0.5760
 2403TIP3    H228625   2.694   4.849   2.282  0.7559  0.3118 -0.9687
 2404TIP3   OH228626   4.727   6.138   4.388  0.0164  0.3418  0.1347
 2404TIP3    H128627   4.810   6.186   4.381  0.6185 -0.7489 -0.3632
 2404TIP3    H228628   4.689   6.143   4.301 -0.0236  0.0934  0.1384
 2405TIP3   OH228629   5.665   5.005  15.477  0.0806  0.4037 -0.4581
 2405TIP3    H128630   5.570   5.017  15.474 -0.3177 -2.2677 -0.7334
 2405TIP3    H228631   5.697   5.086  15.517 -2.3715  1.0406  0.4573
 2406TIP3   OH228632   5.300   3.613  16.404  0.1447 -0.1324  0.6540
 2406TIP3    H128633   5.307   3.599  16.310 -0.3243  0.9472  0.4473
 2406TIP3    H228634   5.355   3.544  16.443  2.4151  0.9344 -0.4772
 2407TIP3   OH228635   2.054   3.095  13.628  1.0605 -0.4155  0.9039
 2407TIP3    H128636   2.141   3.098  13.669  0.5922 -0.0027  1.9078
 2407TIP3    H228637   1.993   3.094  13.702  0.1985 -0.2506  0.2109
 2408TIP3   OH228638   1.072   3.751  13.283 -0.2513 -0.1860  0.2039
 2408TIP3    H128639   1.081   3.655  13.288 -0.0127 -0.1372  0.9114
 2408TIP3    H228640   1.009   3.772  13.352  1.2008  0.3492  1.4280
 2409TIP3   OH228641   1.902   2.014   5.783  0.2527 -0.2435 -0.3721
 2409TIP3    H128642   1.885   2.055   5.699 -0.1521 -0.9673 -0.6520
 2409TIP3    H228643   1.997   2.016   5.792  0.2119  1.5099  0.0205
 2410TIP3   OH228644   6.269   5.608   6.384  0.4521 -0.2819  0.4215
 2410TIP3    H128645   6.223   5.688   6.410 -0.2695 -1.2424  2.2508
 2410TIP3    H228646   6.352   5.612   6.432  0.2835 -0.7691  0.7575
 2411TIP3   OH228647   6.635   1.695   2.138  0.3067  0.6566  0.0342
 2411TIP3    H128648   6.665   1.605   2.147  1.6983  1.2139  1.3073
 2411TIP3    H228649   6.653   1.717   2.046  0.7737 -0.0784 -0.0549
 2412TIP3   OH228650   4.694   2.934  17.167 -0.1727  0.8040  0.2076
 2412TIP3    H128651   4.785   2.903  17.164 -0.3863  0.2262 -1.5123
 2412TIP3    H228652   4.700   3.027  17.147 -0.1084  0.2116 -3.2017
 2413TIP3   OH228653   3.827   2.802  12.433  0.4690  0.0008 -0.5761
 2413TIP3    H128654   3.739   2.770  12.451  0.1637  1.9155  1.9531
 2413TIP3    H228655   3.825   2.830  12.342 -0.9585 -1.6090 -1.0931
 2414TIP3   OH228656   5.434   2.341  16.542 -0.3669 -0.1698  0.2237
 2414TIP3    H128657   5.369   2.296  16.489  1.1221 -2.6808  0.3455
 2414TIP3    H228658   5.513   2.343  16.488  0.2432  0.2598  1.0869
 2415TIP3   OH228659   2.419   5.486   1.118 -0.6464 -0.3233 -0.8198
 2415TIP3    H128660   2.377   5.555   1.168  0.8605 -0.9190  1.3966
 2415TIP3    H228661   2.459   5.531   1.043 -1.4230  0.8698 -0.5328
 2416TIP3   OH228662   6.130   6.391  12.713 -1.0605 -0.4165  0.0683
 2416TIP3    H128663   6.074   6.349  12.648  1.0335  0.4229 -2.4073
 2416TIP3    H228664   6.194   6.441  12.662  0.4782  0.6049  2.7904
 2417TIP3   OH228665   2.161   4.253  13.667 -0.3635 -0.1137  0.4682
 2417TIP3    H128666   2.201   4.340  13.673  0.6313 -0.5158 -0.1289
 2417TIP3    H228667   2.081   4.267  13.617 -0.8780  0.6700  1.4833
 2418TIP3   OH228668   3.939   6.317   3.879 -0.2671  0.1305 -0.3055
 2418TIP3    H128669   4.032   6.337   3.869  0.0381 -0.2659  1.5031
 2418TIP3    H228670   3.929   6.289   3.970 -1.6553 -2.5583 -1.1688
 2419TIP3   OH228671   3.842   5.815   3.030  0.1453 -0.5938 -0.1818
 2419TIP3    H128672   3.815   5.724   3.022  0.5001 -0.6931 -0.2512
 2419TIP3    H228673   3.792   5.849   3.105  0.7409 -1.1076  0.4503
 2420TIP3   OH228674   1.452   0.224   4.916  0.2493 -0.0135 -0.0968
 2420TIP3    H128675   1.460   0.237   4.821  0.0797  0.5076 -0.0456
 2420TIP3    H228676   1.502   0.297   4.954  1.0509 -0.7126  0.2188
 2421TIP3   OH228677   5.563   5.433   0.014  0.0044 -0.3284  0.2073
 2421TIP3    H128678   5.497   5.366   0.034 -0.6889  0.2827 -0.0008
 2421TIP3    H228679   5.569   5.485   0.094  0.8334 -0.8659  0.5084
 2422TIP3   OH228680   4.999   1.432   3.308 -0.2532 -0.6026  0.0049
 2422TIP3    H128681   5.086   1.423   3.272  0.1339 -0.2709  0.8265
 2422TIP3    H228682   4.946   1.469   3.237  0.7723  1.2487  0.1590
 2423TIP3   OH228683   3.433   1.780   5.564  0.1276  0.4733  0.1536
 2423TIP3    H128684   3.446   1.714   5.633 -0.9976 -1.2117 -1.1595
 2423TIP3    H228685   3.351   1.823   5.588  1.8865  3.0287  2.1707
 2424TIP3   OH228686   2.691   1.168  12.186 -0.4494  0.1050  0.0049
 2424TIP3    H128687   2.636   1.240  12.217 -1.9078 -0.6902 -0.6651
 2424TIP3    H228688   2.664   1.093  12.238 -0.2360 -0.3816 -0.5852
 2425TIP3   OH228689   5.074   5.425   5.206  0.1772  0.7199 -0.8603
 2425TIP3    H128690   5.102   5.335   5.224 -0.0599  0.7963 -0.0804
 2425TIP3    H228691   5.071   5.430   5.111 -1.2367 -0.5494 -0.9143
 2426TIP3   OH228692   5.074   0.375   5.992 -0.0689  0.1692 -0.6965
 2426TIP3    H128693   5.112   0.410   6.073 -2.7289 -1.1104  1.2766
 2426TIP3    H228694   5.112   0.288   5.983 -0.7620 -0.2284  0.0185
 2427TIP3   OH228695   0.934   5.357   3.762  0.2325  0.6506 -0.6659
 2427TIP3    H128696   0.887   5.343   3.844 -0.6187  0.0593 -1.2477
 2427TIP3    H228697   1.023   5.381   3.790  0.6966 -2.0315  0.4346
 2428TIP3   OH228698   5.677   5.933  11.259 -0.1640 -0.3064 -0.1194
 2428TIP3    H128699   5.696   5.853  11.308  0.9809 -0.7510 -1.2208
 2428TIP3    H228700   5.622   5.904  11.186  2.3179 -0.6467 -2.0064
 2429TIP3   OH228701   6.630   0.544  15.465  0.0579  0.3193 -0.0120
 2429TIP3    H128702   6.571   0.555  15.540 -0.1848  0.8524 -0.2738
 2429TIP3    H228703   6.717   0.539  15.503  0.0370  1.5653  0.2593
 2430TIP3   OH228704   6.260   5.167   4.787 -0.0798  0.8318  0.4367
 2430TIP3    H128705   6.274   5.191   4.879 -2.2107 -2.7765  1.8969
 2430TIP3    H228706   6.348   5.150   4.753  0.6079 -0.2292  2.5926
 2431TIP3   OH228707   2.462   4.212  17.066 -0.8652  0.0262  0.4939
 2431TIP3    H128708   2.484   4.130  17.022 -0.4639  0.7950 -0.8131
 2431TIP3    H228709   2.529   4.274  17.036 -1.9829  1.1911  0.2916
 2432TIP3   OH228710   1.156   3.586   4.311 -0.0782 -0.0937 -0.8247
 2432TIP3    H128711   1.101   3.657   4.278 -0.0828  0.2825 -0.0308
 2432TIP3    H228712   1.105   3.548   4.382  0.0079 -0.7765 -1.1214
 2433TIP3   OH228713   4.394   3.352  15.741  0.5754 -0.1138 -0.0099
 2433TIP3    H128714   4.358   3.419  15.800  1.1672  0.5043 -0.3370
 2433TIP3    H228715   4.482   3.334  15.776  0.5413 -0.4877 -0.1116
 2434TIP3   OH228716   3.404   2.983   1.805 -0.1330 -0.4102 -0.2322
 2434TIP3    H128717   3.482   3.017   1.762 -0.0737 -0.7721 -0.4173
 2434TIP3    H228718   3.415   2.888   1.804 -0.5319 -0.4620 -0.1799
 2435TIP3   OH228719   2.058   1.005  12.447  0.2504  0.1713 -0.7921
 2435TIP3    H128720   2.034   1.032  12.358 -2.0194  1.7082  0.1717
 2435TIP3    H228721   1.979   0.962  12.481  0.4646  1.0664  0.9745
 2436TIP3   OH228722   0.355   6.518  12.194 -0.2915  0.4931  0.1140
 2436TIP3    H128723   0.338   6.552  12.106 -0.4111  1.7352  0.5983
 2436TIP3    H228724   0.416   6.446  12.180 -0.5185  0.4932 -1.0094
 2437TIP3   OH228725   6.327   4.539  16.379  0.3879  0.0357 -0.2497
 2437TIP3    H128726   6.323   4.620  16.327 -0.2179 -0.5081 -1.0674
 2437TIP3    H228727   6.280   4.475  16.327  0.6387 -0.7891  0.5217
 2438TIP3   OH228728   0.515   5.900   1.345  0.4259  0.5747 -0.4565
 2438TIP3    H128729   0.446   5.887   1.280  0.3310  1.6217 -0.5773
 2438TIP3    H228730   0.540   5.992   1.336  0.6248  0.6600  0.7813
 2439TIP3   OH228731   5.720   4.655  10.941  0.1244  0.6354  0.2121
 2439TIP3    H128732   5.777   4.606  11.001  2.6571  1.8345 -1.0643
 2439TIP3    H228733   5.706   4.739  10.985  1.2489  1.1815 -0.4390
 2440TIP3   OH228734   1.971   2.581   3.411  0.0024  0.0519 -0.8661
 2440TIP3    H128735   2.030   2.633   3.357  0.3460 -0.0003 -0.5485
 2440TIP3    H228736   1.903   2.550   3.351  1.0365 -1.0050 -1.5321
 2441TIP3   OH228737   0.458   5.736  14.515  0.3920 -0.5161  0.2710
 2441TIP3    H128738   0.435   5.703  14.602  0.5485 -1.1623  0.0673
 2441TIP3    H228739   0.421   5.672  14.454  0.3543 -0.1100 -0.1382
 2442TIP3   OH228740   2.361   2.106  13.912 -0.2244 -0.0687  0.1169
 2442TIP3    H128741   2.437   2.048  13.921  1.4316  2.1484  1.8119
 2442TIP3    H228742   2.390   2.173  13.851 -1.0649  0.4501  0.2733
 2443TIP3   OH228743   3.672   0.274   5.967  0.8353 -0.2479  0.8694
 2443TIP3    H128744   3.602   0.273   5.902  0.2131  3.0367  1.3150
 2443TIP3    H228745   3.646   0.206   6.030 -0.0995 -1.4358 -0.7190
 2444TIP3   OH228746   3.395   6.203   1.188 -0.3658 -0.7092  0.1229
 2444TIP3    H128747   3.372   6.216   1.280 -0.2940  0.5008 -0.0197
 2444TIP3    H228748   3.399   6.291   1.151  0.9847 -1.0958 -0.7141
 2445TIP3   OH228749   0.913   5.872   3.173  0.1144  0.1382 -0.4158
 2445TIP3    H128750   0.912   5.962   3.140  0.8033  0.0960 -0.5701
 2445TIP3    H228751   1.005   5.846   3.168 -0.0297 -0.4561 -0.0460
 2446TIP3   OH228752   1.997   5.683  14.579  0.5538  0.4201 -0.5649
 2446TIP3    H128753   2.082   5.718  14.554  0.8815 -0.1461 -0.2642
 2446TIP3    H228754   1.941   5.699  14.503  0.9925  0.5775 -0.8570
 2447TIP3   OH228755   4.277   2.405   0.723 -0.0413  0.6103  0.2076
 2447TIP3    H128756   4.336   2.392   0.649 -0.7474 -1.7437 -0.0303
 2447TIP3    H228757   4.237   2.491   0.707  1.4859  1.1682 -0.8982
 2448TIP3   OH228758   1.292   2.810  13.633  0.1066 -0.2988 -0.0323
 2448TIP3    H128759   1.294   2.736  13.572  0.1480 -0.0776 -0.3055
 2448TIP3    H228760   1.378   2.851  13.623 -0.6474  1.0340 -1.4620
 2449TIP3   OH228761   4.924   0.171   6.756  0.1580  0.0192 -0.2949
 2449TIP3    H128762   5.018   0.189   6.750  0.4582 -1.1243  0.6638
 2449TIP3    H228763   4.918   0.078   6.775 -1.2407 -0.3415 -2.1519
 2450TIP3   OH228764   2.194   1.128  10.359  0.6226  0.1000 -0.0543
 2450TIP3    H128765   2.213   1.061  10.424 -0.2192  0.3375  0.4552
 2450TIP3    H228766   2.107   1.159  10.381 -0.0192 -0.3625 -1.7845
 2451TIP3   OH228767   6.544   4.028   1.343  0.1800 -0.0029  0.2250
 2451TIP3    H128768   6.571   4.120   1.350  0.7606 -0.0953 -0.6041
 2451TIP3    H228769   6.563   4.005   1.252  0.5747 -1.1035  0.5729
 2452TIP3   OH228770   4.430   5.355  15.140 -0.3400  0.0418  0.8686
 2452TIP3    H128771   4.464   5.306  15.064  0.5360  1.1614  0.5150
 2452TIP3    H228772   4.336   5.337  15.140 -0.0849 -1.4095  0.5850
 2453TIP3   OH228773   0.449   4.042  16.367 -0.3520 -0.0930 -0.1558
 2453TIP3    H128774   0.354   4.054  16.369 -0.6628 -2.1477  0.6589
 2453TIP3    H228775   0.470   4.025  16.275 -0.3832  2.5504 -0.7191
 2454TIP3   OH228776   4.162   0.299   2.629  0.0735 -0.6097 -0.0093
 2454TIP3    H128777   4.095   0.236   2.604 -0.7337 -0.3148  1.3592
 2454TIP3    H228778   4.173   0.287   2.723  1.2046  0.0735 -0.0300
 2455TIP3   OH228779   6.124   6.155   6.201  0.6446  0.2955 -0.1954
 2455TIP3    H128780   6.035   6.180   6.177  0.8541  0.3180 -0.9866
 2455TIP3    H228781   6.114   6.103   6.280  0.1303  2.1708  1.0175
 2456TIP3   OH228782   0.846   3.561   1.309  0.1764  0.1547 -0.1695
 2456TIP3    H128783   0.895   3.507   1.371 -0.7008  0.8556  1.1957
 2456TIP3    H228784   0.787   3.500   1.266  0.1768 -0.2104  0.3368
 2457TIP3   OH228785   3.735   5.179   5.627 -0.0606 -0.2233 -0.0972
 2457TIP3    H128786   3.796   5.253   5.628 -0.2378  0.0046 -1.8236
 2457TIP3    H228787   3.651   5.218   5.606 -1.7225 -0.0390  5.4542
 2458TIP3   OH228788   0.581   1.855  11.519  0.3382 -0.2713  0.0867
 2458TIP3    H128789   0.562   1.888  11.607  0.1069 -1.5213  0.5395
 2458TIP3    H228790   0.660   1.901  11.492  0.8266 -0.3776  1.2570
 2459TIP3   OH228791   4.927   4.054   3.441  0.0557  0.0476  0.0370
 2459TIP3    H128792   4.856   4.008   3.397  0.3141  1.5645 -2.1599
 2459TIP3    H228793   4.883   4.112   3.504 -0.5082 -0.4547  0.1147
 2460TIP3   OH228794   1.166   3.518   4.963  0.1633 -0.2436 -0.1953
 2460TIP3    H128795   1.152   3.450   4.897  0.2926  0.1853 -0.6715
 2460TIP3    H228796   1.087   3.572   4.960 -0.3780 -0.9467  0.8910
 2461TIP3   OH228797   5.474   1.798   3.750  0.6301 -0.3785  0.2201
 2461TIP3    H128798   5.533   1.859   3.705  2.8561 -1.4744  1.4755
 2461TIP3    H228799   5.444   1.846   3.827  0.0391  0.0917 -0.2876
 2462TIP3   OH228800   4.370   4.481   3.556  0.2362  0.5049  0.6203
 2462TIP3    H128801   4.349   4.473   3.463  1.3072  0.7094  0.3441
 2462TIP3    H228802   4.289   4.458   3.601  0.0489 -0.8227 -0.3354
 2463TIP3   OH228803   2.626   4.337   4.863 -0.1199  0.5529  0.7995
 2463TIP3    H128804   2.625   4.403   4.794  0.8784  1.6009  1.7445
 2463TIP3    H228805   2.560   4.273   4.836 -0.7830  1.6880 -0.3780
 2464TIP3   OH228806   2.192   2.002   5.801 -0.0576 -0.1873 -0.0867
 2464TIP3    H128807   2.254   2.012   5.728 -1.6100 -0.4005 -1.5170
 2464TIP3    H228808   2.234   1.940   5.860  1.8202  0.9667 -0.1245
 2465TIP3   OH228809   4.100   1.281   6.745  0.3441 -0.4382 -0.2919
 2465TIP3    H128810   4.129   1.372   6.738  1.2155 -0.7919 -1.4043
 2465TIP3    H228811   4.029   1.284   6.809  0.1567  1.0673 -0.5453
 2466TIP3   OH228812   4.682   4.644  16.880 -0.3608  0.9027  0.1784
 2466TIP3    H128813   4.778   4.644  16.880 -0.2721 -0.7124 -2.6217
 2466TIP3    H228814   4.657   4.557  16.911 -0.8863  0.7971 -0.5266
 2467TIP3   OH228815   4.755   4.365   4.865 -0.4780  0.0761  0.1501
 2467TIP3    H128816   4.735   4.387   4.956  0.5359  0.1646  0.3595
 2467TIP3    H228817   4.706   4.429   4.814 -2.1405 -0.8003  0.5722
 2468TIP3   OH228818   6.121   3.572  12.946 -0.2193  0.1335  0.2067
 2468TIP3    H128819   6.186   3.557  12.877 -0.3340  0.7311 -0.0352
 2468TIP3    H228820   6.053   3.626  12.904 -0.6380 -0.0854  0.5902
 2469TIP3   OH228821   3.418   1.759  14.799 -0.3076 -0.7981 -0.3798
 2469TIP3    H128822   3.511   1.754  14.821 -0.0892 -0.9409 -1.2628
 2469TIP3    H228823   3.383   1.829  14.853  0.2426 -0.9787  0.2113
 2470TIP3   OH228824   2.924   1.193   4.149  0.0206 -0.5623  0.4888
 2470TIP3    H128825   2.930   1.123   4.214 -0.3291 -0.2727  0.8378
 2470TIP3    H228826   3.003   1.183   4.095  0.4446 -0.6424  1.1228
 2471TIP3   OH228827   2.193   1.494  11.887  0.1329  0.2620  1.0819
 2471TIP3    H128828   2.240   1.469  11.966  2.6868 -0.2572 -0.4744
 2471TIP3    H228829   2.184   1.412  11.838  0.2201  0.8672  0.0337
 2472TIP3   OH228830   2.824   5.303  10.924 -0.3878 -0.0949 -0.0678
 2472TIP3    H128831   2.832   5.388  10.969 -0.4100 -0.4924  0.7007
 2472TIP3    H228832   2.730   5.286  10.921 -0.3645 -0.2407  0.0494
 2473TIP3   OH228833   5.617   1.650   1.831 -0.3160 -0.5228  0.2836
 2473TIP3    H128834   5.578   1.569   1.797  0.2786 -1.1781  1.1303
 2473TIP3    H228835   5.673   1.681   1.760 -0.1163 -1.1514  0.1615
 2474TIP3   OH228836   0.435   1.452   5.053  0.0579  0.4161  0.2956
 2474TIP3    H128837   0.487   1.517   5.006 -0.3102  1.0209  0.7006
 2474TIP3    H228838   0.498   1.387   5.082  0.1251 -0.7098 -2.1551
 2475TIP3   OH228839   4.387   5.238  12.333  0.3664 -0.0513 -0.1607
 2475TIP3    H128840   4.377   5.330  12.361 -1.4801 -0.6617  1.4627
 2475TIP3    H228841   4.481   5.221  12.340  0.5224  1.1637  1.5654
 2476TIP3   OH228842   5.266   0.672  15.174 -0.2238 -0.2670  0.3019
 2476TIP3    H128843   5.359   0.670  15.196 -0.3189  1.4124  0.9894
 2476TIP3    H228844   5.232   0.588  15.203  0.9185 -0.5642  0.8150
 2477TIP3   OH228845   0.083   6.341  11.735  0.0462  0.2711 -0.1541
 2477TIP3    H128846   0.077   6.339  11.830  0.2120  1.0814 -0.1150
 2477TIP3    H228847   0.018   6.278  11.705 -1.2570  1.2733  0.4716
 2478TIP3   OH228848   3.024   2.518   0.836  0.0033 -0.8259 -0.1378
 2478TIP3    H128849   3.103   2.550   0.881  0.3662 -2.0933  0.1658
 2478TIP3    H228850   3.055   2.445   0.783 -0.9792 -1.3782  0.0288
 2479TIP3   OH228851   3.750   6.623  15.083 -0.0776  0.1732  0.3447
 2479TIP3    H128852   3.772   6.561  15.152  0.1031 -0.3870 -0.2028
 2479TIP3    H228853   3.655   6.627  15.082 -0.0957 -0.2797  0.2277
 2480TIP3   OH228854   1.151   5.912   1.961 -0.1005  0.5480  0.1740
 2480TIP3    H128855   1.199   5.945   2.037  1.0048 -0.9210  0.1587
 2480TIP3    H228856   1.106   5.833   1.994  1.3026 -0.7599 -0.9136
 2481TIP3   OH228857   1.540   3.989   4.959  0.0697 -0.6498  0.0294
 2481TIP3    H128858   1.460   3.964   4.914  0.3757 -0.5353 -0.5877
 2481TIP3    H228859   1.609   3.978   4.894  0.2070  2.0633 -0.4162
 2482TIP3   OH228860   1.495   4.368   0.053 -0.7605 -0.1028 -0.0535
 2482TIP3    H128861   1.502   4.329  -0.034  0.7297 -0.6754  0.2798
 2482TIP3    H228862   1.550   4.446   0.049 -1.0559  0.1214  0.2402
 2483TIP3   OH228863   2.730   0.704   1.380  0.0071  0.0816 -0.3404
 2483TIP3    H128864   2.744   0.637   1.313  1.7813  1.2734 -1.2087
 2483TIP3    H228865   2.809   0.757   1.379 -0.7038  1.2812  1.4202
 2484TIP3   OH228866   2.514   5.681  13.317  0.2999 -0.4186 -0.5382
 2484TIP3    H128867   2.506   5.615  13.249 -0.2816 -0.8201 -0.0918
 2484TIP3    H228868   2.603   5.671  13.350  0.2985 -0.8103 -0.6484
 2485TIP3   OH228869   1.919   1.974   6.546  0.3388  0.2476  0.5739
 2485TIP3    H128870   1.875   2.024   6.615 -0.2447  3.0899 -1.6671
 2485TIP3    H228871   1.923   1.885   6.580 -1.6930  1.0945  3.4178
 2486TIP3   OH228872   3.045   2.617  12.752 -0.5959 -0.4386  0.8967
 2486TIP3    H128873   3.008   2.683  12.811 -1.9552 -1.3010  1.0647
 2486TIP3    H228874   2.993   2.624  12.672 -0.3654 -0.9103  0.6991
 2487TIP3   OH228875   2.341   2.882  13.087  0.2073 -0.1857 -0.0409
 2487TIP3    H128876   2.422   2.923  13.119 -0.0079 -2.0959  3.4543
 2487TIP3    H228877   2.272   2.943  13.111  0.3975  0.3756 -0.8921
 2488TIP3   OH228878   5.838   3.951  14.862 -0.5285  0.3514 -0.1157
 2488TIP3    H128879   5.772   3.923  14.798  0.5906 -1.6231 -0.4724
 2488TIP3    H228880   5.912   3.892  14.849  1.2882  2.3432  0.4011
 2489TIP3   OH228881   4.898   1.224   0.803  0.1757  0.4471 -0.1838
 2489TIP3    H128882   4.929   1.306   0.764 -0.1524  0.2481 -0.8806
 2489TIP3    H228883   4.849   1.251   0.880 -0.7749  0.9945 -0.9485
 2490TIP3   OH228884   1.275   0.599  12.253  0.3287  0.1713 -0.0454
 2490TIP3    H128885   1.217   0.525  12.273 -1.0628  0.7426 -1.7147
 2490TIP3    H228886   1.306   0.629  12.338  0.7841 -2.1988  0.7026
 2491TIP3   OH228887   3.886   4.655   0.371 -0.1406 -0.0934 -0.0368
 2491TIP3    H128888   3.961   4.650   0.311 -0.6080 -0.4990 -0.5933
 2491TIP3    H228889   3.863   4.748   0.374  1.1328  0.2229  1.0839
 2492TIP3   OH228890   2.825   0.056   5.678  0.2460 -0.2246  0.6176
 2492TIP3    H128891   2.862  -0.028   5.707 -0.4756 -0.1397  1.8583
 2492TIP3    H228892   2.821   0.109   5.758  1.0484  1.1445 -0.2208
 2493TIP3   OH228893   4.042   3.236   2.128 -0.1446  0.1029 -0.5515
 2493TIP3    H128894   3.981   3.310   2.139 -1.1593 -0.9792  1.7727
 2493TIP3    H228895   3.991   3.159   2.154  2.4908 -0.7333  2.8237
 2494TIP3   OH228896   5.667   2.510  17.004 -0.2191  0.1921  0.2804
 2494TIP3    H128897   5.631   2.587  17.048 -2.4732 -0.0886 -0.9159
 2494TIP3    H228898   5.725   2.545  16.936  0.4770  0.7279  1.1348
 2495TIP3   OH228899   2.258   0.777  16.215 -0.4474  0.4433 -0.2048
 2495TIP3    H128900   2.337   0.745  16.259 -0.6430  0.9485  0.5200
 2495TIP3    H228901   2.219   0.839  16.276 -2.4043 -1.1473  0.2658
 2496TIP3   OH228902   5.312   2.283  15.587  0.1917 -0.5044  0.3606
 2496TIP3    H128903   5.377   2.214  15.601  1.7535  0.9584  0.6341
 2496TIP3    H228904   5.306   2.328  15.672  1.7910  1.7849 -0.6299
 2497TIP3   OH228905   0.681   0.557   3.182  0.1063  0.1698  0.4439
 2497TIP3    H128906   0.695   0.465   3.161  1.2164  0.2902  0.5885
 2497TIP3    H228907   0.767   0.587   3.213 -0.2274  1.2702  0.3169
 2498TIP3   OH228908   0.461   5.131   1.910 -0.2346  0.1383 -0.0805
 2498TIP3    H128909   0.424   5.113   1.997  0.5409 -0.1601  0.1980
 2498TIP3    H228910   0.411   5.206   1.878  0.2025  0.9681  1.1045
 2499TIP3   OH228911   4.875   6.722   5.036  0.2350  0.3126  0.5165
 2499TIP3    H128912   4.951   6.760   4.992  0.4317 -1.4696 -0.8021
 2499TIP3    H228913   4.824   6.681   4.966 -0.6841 -0.6106  1.6713
 2500TIP3   OH228914   6.670   5.418  14.556 -0.2252  0.1035 -0.8238
 2500TIP3    H128915   6.651   5.511  14.542 -2.0130  0.1337  1.2363
 2500TIP3    H228916   6.664   5.406  14.650  1.1361 -1.9069 -0.9395
 2501TIP3   OH228917   3.421   1.250   4.325 -0.1091  0.2837 -0.1430
 2501TIP3    H128918   3.499   1.231   4.273 -0.6606 -2.0212 -0.2312
 2501TIP3    H228919   3.366   1.303   4.267  0.8010  0.7910 -0.5645
 2502TIP3   OH228920   4.475   2.132   4.882  0.5718 -0.1143 -0.0031
 2502TIP3    H128921   4.464   2.038   4.895  1.3217 -0.2215 -0.1487
 2502TIP3    H228922   4.471   2.144   4.787  1.1771 -0.0863 -0.0251
 2503TIP3   OH228923   2.177   2.108  11.427  0.2603  0.3293  0.4545
 2503TIP3    H128924   2.243   2.111  11.357 -0.1182  0.7527  0.1098
 2503TIP3    H228925   2.149   2.199  11.438 -1.4142 -0.0239 -0.5111
 2504TIP3   OH228926   3.592   3.936  12.006  0.2933 -0.3556 -0.6527
 2504TIP3    H128927   3.622   4.027  12.003  1.8239 -0.8662 -1.8988
 2504TIP3    H228928   3.663   3.889  12.049  0.9468 -1.4476 -2.8188
 2505TIP3   OH228929   3.173   4.034  11.899  0.2606  0.4363  0.6683
 2505TIP3    H128930   3.208   4.068  11.816  0.8361 -1.0784  0.2595
 2505TIP3    H228931   3.243   3.980  11.934 -1.5551 -2.7255 -0.1890
 2506TIP3   OH228932   3.590   1.681  15.847  0.5386  0.4996 -0.5832
 2506TIP3    H128933   3.579   1.776  15.842  0.0298  0.3990 -1.7414
 2506TIP3    H228934   3.685   1.668  15.843  0.6852  0.9905  0.7098
 2507TIP3   OH228935   4.677   1.312  14.095 -0.0305  0.1520  0.5623
 2507TIP3    H128936   4.586   1.282  14.090 -0.2239  0.4381  2.0915
 2507TIP3    H228937   4.723   1.241  14.140  0.4621  0.1174  0.0106
 2508TIP3   OH228938   4.284   4.362  14.917  0.2777  0.6673  0.3915
 2508TIP3    H128939   4.279   4.427  14.847  1.4179  0.5713  0.2032
 2508TIP3    H228940   4.370   4.376  14.958  0.3152 -0.3462  0.7061
 2509TIP3   OH228941   2.791   1.678   2.722 -0.1489  0.7401 -0.3799
 2509TIP3    H128942   2.846   1.647   2.650  0.1172  0.5743 -0.1131
 2509TIP3    H228943   2.835   1.757   2.754  0.6638 -0.0843  0.6516
 2510TIP3   OH228944   2.323   5.236  14.644 -0.0718  0.3509 -0.2977
 2510TIP3    H128945   2.352   5.327  14.634 -0.2525  0.4749  0.2701
 2510TIP3    H228946   2.287   5.212  14.558 -1.2443  1.2507 -0.0825
 2511TIP3   OH228947   4.937   4.926  14.130  0.2424  0.4553 -0.7676
 2511TIP3    H128948   4.974   4.976  14.057  1.0916  0.2639 -0.4786
 2511TIP3    H228949   5.012   4.907  14.186 -0.1474 -0.7158 -0.6170
 2512TIP3   OH228950   3.304   2.031  12.976  0.1392 -0.0349 -0.6260
 2512TIP3    H128951   3.304   2.001  13.067 -0.1231  1.1118 -0.2339
 2512TIP3    H228952   3.319   1.952  12.925 -0.2112 -0.7774  0.3877
 2513TIP3   OH228953   0.014   3.188   3.210  0.0340 -0.6641  0.2164
 2513TIP3    H128954  -0.068   3.230   3.184  0.8083 -0.5268 -2.2587
 2513TIP3    H228955   0.063   3.257   3.255  0.2745  0.3793 -1.5879
 2514TIP3   OH228956   6.703   4.146   5.530 -0.1736 -0.1281  0.1419
 2514TIP3    H128957   6.662   4.230   5.510 -2.2751 -1.4794 -1.7339
 2514TIP3    H228958   6.736   4.114   5.446  3.1087 -0.0133  1.2744
 2515TIP3   OH228959   5.573   3.008   4.024  0.2352  0.2090  0.0114
 2515TIP3    H128960   5.505   2.973   4.082 -0.8993  1.8159 -0.2636
 2515TIP3    H228961   5.597   2.934   3.968 -1.5605 -0.3335 -0.1040
 2516TIP3   OH228962   2.964   3.444   4.037 -0.2088 -0.1941  0.4423
 2516TIP3    H128963   3.048   3.418   3.999 -0.1741 -0.9882  1.0347
 2516TIP3    H228964   2.962   3.539   4.028 -0.1138 -0.3262 -1.3336
 2517TIP3   OH228965   3.545   2.467   3.247 -0.0950  0.1410  0.3458
 2517TIP3    H128966   3.624   2.520   3.239  0.5225 -0.7424  0.3523
 2517TIP3    H228967   3.532   2.457   3.342 -1.1161  1.5558  0.3806
 2518TIP3   OH228968   4.030   1.038  15.821 -0.0311  0.2503 -0.3034
 2518TIP3    H128969   4.030   0.989  15.739  1.4677  1.0843 -0.8404
 2518TIP3    H228970   3.997   0.976  15.886  0.4343 -0.9995 -1.2184
 2519TIP3   OH228971   5.477   3.423  11.373  0.0369  0.1728  0.3175
 2519TIP3    H128972   5.464   3.342  11.423 -0.7761  0.3552  0.4171
 2519TIP3    H228973   5.547   3.402  11.311 -0.5774 -0.8076 -0.0750
 2520TIP3   OH228974   4.003   5.686  14.471  0.2230  0.4791  0.3068
 2520TIP3    H128975   3.956   5.707  14.552  1.4067  0.6059  0.9799
 2520TIP3    H228976   3.970   5.600  14.445 -1.1798  1.0427  0.1524
 2521TIP3   OH228977   4.892   4.062  16.037  0.1727  0.2195  0.0547
 2521TIP3    H128978   4.806   4.042  16.074 -0.3971  0.9368 -0.8592
 2521TIP3    H228979   4.931   4.123  16.099 -1.4670  2.7818 -1.2677
 2522TIP3   OH228980   2.713   3.873  11.663 -0.0369  0.5733  0.0676
 2522TIP3    H128981   2.643   3.808  11.662  0.2575  0.0714 -3.6351
 2522TIP3    H228982   2.791   3.825  11.637  0.8123  1.8711  0.1289
 2523TIP3   OH228983   6.370   3.319  11.471 -0.4029 -0.8930  0.2107
 2523TIP3    H128984   6.314   3.332  11.548  0.5248 -0.3822  0.8099
 2523TIP3    H228985   6.441   3.381  11.482  0.5635 -1.8790 -0.2942
 2524TIP3   OH228986   1.809   6.638   3.884  0.3584 -0.1639 -0.1173
 2524TIP3    H128987   1.769   6.652   3.798  0.4500 -0.9723 -0.3051
 2524TIP3    H228988   1.737   6.650   3.945 -0.1672 -1.4068 -0.4425
 2525TIP3   OH228989   4.543   4.124   4.313 -0.7200  0.0113  0.6778
 2525TIP3    H128990   4.523   4.080   4.230 -1.0267  1.2527  0.0645
 2525TIP3    H228991   4.496   4.075   4.379 -1.1919 -0.4711 -0.0120
 2526TIP3   OH228992   2.863   5.421   0.530  0.4161 -0.0731  0.1140
 2526TIP3    H128993   2.897   5.337   0.560  1.2505  0.1820 -0.0791
 2526TIP3    H228994   2.842   5.468   0.610  1.4514  0.1287  0.2799
 2527TIP3   OH228995   4.412   6.430  11.623  0.2661  0.2883 -0.2613
 2527TIP3    H128996   4.448   6.480  11.550  1.0677  0.8287  0.4887
 2527TIP3    H228997   4.398   6.342  11.587  1.8580  0.1951 -0.7203
 2528TIP3   OH228998   1.361   3.278   5.645  0.1249  0.3912 -0.4892
 2528TIP3    H128999   1.329   3.344   5.706  1.9452  0.2179  0.7131
 2528TIP3    H229000   1.390   3.327   5.569 -1.1856  0.6973 -0.8155
 2529TIP3   OH229001   4.612   0.254  12.036 -0.0089  0.3164  0.3483
 2529TIP3    H129002   4.646   0.316  12.100  0.3418 -1.0183  1.5082
 2529TIP3    H229003   4.518   0.272  12.033  0.1283  1.0923  0.4377
 2530TIP3   OH229004   5.774   5.198   2.407  0.1556 -0.0832 -0.3283
 2530TIP3    H129005   5.801   5.155   2.326 -0.2486 -0.6262 -0.1825
 2530TIP3    H229006   5.741   5.126   2.462  2.1890 -0.0225  1.0766
 2531TIP3   OH229007   4.363   4.404  12.490 -0.3574 -0.0873  0.3886
 2531TIP3    H129008   4.298   4.337  12.469  0.5170 -0.7004 -0.4529
 2531TIP3    H229009   4.444   4.355  12.504 -0.2006  0.6042  2.0799
 2532TIP3   OH229010   3.844   5.874   2.390 -0.0931  0.3530 -0.3146
 2532TIP3    H129011   3.820   5.838   2.304 -0.7315 -0.2640  0.1118
 2532TIP3    H229012   3.760   5.894   2.431  0.1558 -0.7733  0.7688
 2533TIP3   OH229013   5.694   3.236   0.426  0.0030  0.3138 -0.2785
 2533TIP3    H129014   5.703   3.283   0.509 -1.6885  1.0040 -0.4483
 2533TIP3    H229015   5.782   3.206   0.405  0.4727  0.2147  1.7110
 2534TIP3   OH229016   5.373   4.105  15.774  0.1444  0.0683 -0.3677
 2534TIP3    H129017   5.322   4.185  15.781  1.5117  1.1492 -1.9476
 2534TIP3    H229018   5.310   4.038  15.749 -1.1281  0.4748  1.5171
 2535TIP3   OH229019   3.460   3.087   3.601  0.0106  0.1629  0.4627
 2535TIP3    H129020   3.500   3.000   3.590  0.2128  0.4481 -1.5515
 2535TIP3    H229021   3.412   3.082   3.683  2.8661 -0.7322  2.2228
 2536TIP3   OH229022   5.752   5.037  14.214 -0.0731  0.1464  0.1526
 2536TIP3    H129023   5.721   5.125  14.237 -0.3640 -0.3200  1.6590
 2536TIP3    H229024   5.789   5.003  14.295  0.8393 -0.7987 -0.6446
 2537TIP3   OH229025   6.559   4.863   4.515 -0.2365  0.0038  0.4202
 2537TIP3    H129026   6.509   4.797   4.466  0.2352  0.2005 -0.3414
 2537TIP3    H229027   6.492   4.922   4.549 -0.5305  0.4638 -0.8936
 2538TIP3   OH229028   0.029   2.073  12.181 -0.4478 -0.0893  0.3962
 2538TIP3    H129029   0.084   2.059  12.258  0.2838 -0.3434 -0.1665
 2538TIP3    H229030  -0.060   2.081  12.217 -0.2905 -1.4205  1.1699
 2539TIP3   OH229031   5.881   5.846  15.399  0.3349 -0.4257  0.2163
 2539TIP3    H129032   5.928   5.929  15.412 -0.2435  0.1102 -1.0070
 2539TIP3    H229033   5.818   5.864  15.330  0.7062 -2.0971 -0.6065
 2540TIP3   OH229034   1.532   1.905   1.139 -0.1854 -0.1820 -0.0538
 2540TIP3    H129035   1.628   1.907   1.147  0.0202 -0.5046 -1.8882
 2540TIP3    H229036   1.509   1.813   1.148 -0.3030 -0.1356  0.1310
 2541TIP3   OH229037   6.487   1.844   2.831 -0.8071  0.2624 -0.5239
 2541TIP3    H129038   6.417   1.889   2.878  0.4500  0.5761  1.1467
 2541TIP3    H229039   6.550   1.913   2.809  1.9691 -0.5998  3.5279
 2542TIP3   OH229040   6.543   3.882  14.283 -0.1996 -0.1644  0.3259
 2542TIP3    H129041   6.485   3.954  14.306 -1.4074 -1.4898  1.5677
 2542TIP3    H229042   6.627   3.906  14.322  0.3171  1.9911 -1.8839
 2543TIP3   OH229043   3.461   0.727   0.357 -0.4930 -0.2881 -0.2196
 2543TIP3    H129044   3.448   0.747   0.449 -0.5916  0.3377 -0.3600
 2543TIP3    H229045   3.550   0.758   0.338 -0.3321 -0.7632 -0.2421
 2544TIP3   OH229046   2.526   4.411  13.749 -0.1776 -0.5325  0.0974
 2544TIP3    H129047   2.524   4.471  13.824  0.0810  0.5689 -0.7520
 2544TIP3    H229048   2.448   4.435  13.698  1.0916  0.6415 -1.3969
 2545TIP3   OH229049   0.704   0.932  11.372 -0.4968 -0.2727  0.1135
 2545TIP3    H129050   0.745   0.913  11.457 -1.5357  0.4739  0.8086
 2545TIP3    H229051   0.763   0.893  11.308  1.8075  1.5186  0.9825
 2546TIP3   OH229052   1.789   0.458   5.358 -0.0832  0.3646  0.3017
 2546TIP3    H129053   1.726   0.529   5.341 -0.6232 -0.3282 -0.6644
 2546TIP3    H229054   1.746   0.404   5.425 -0.1149  0.3816  0.2951
 2547TIP3   OH229055   3.254   1.460   2.140 -0.0915  0.0757 -0.6364
 2547TIP3    H129056   3.273   1.454   2.233  2.1131  0.1534 -1.0170
 2547TIP3    H229057   3.195   1.387   2.122  0.4979 -0.7348  0.5909
 2548TIP3   OH229058   1.874   5.920   1.627  0.0701 -0.5820  0.0441
 2548TIP3    H129059   1.784   5.949   1.638  0.7618  1.8553  0.0666
 2548TIP3    H229060   1.869   5.826   1.615 -2.5643 -0.3698 -1.0799
 2549TIP3   OH229061   4.131   2.941   0.610  0.2862  0.7647 -0.1148
 2549TIP3    H129062   4.181   2.987   0.678 -1.4457  2.2248  0.2486
 2549TIP3    H229063   4.102   3.010   0.551  1.4140 -0.4339 -2.1787
 2550TIP3   OH229064   0.658   5.569  12.425  0.2307 -0.2177  0.1578
 2550TIP3    H129065   0.719   5.547  12.355  1.6530 -1.5061  1.7192
 2550TIP3    H229066   0.676   5.660  12.445  0.0681  0.0554 -0.8798
 2551TIP3   OH229067   6.020   5.920  14.531  0.2591  0.0476  0.1412
 2551TIP3    H129068   5.967   5.842  14.514  1.0409 -0.3311 -0.6385
 2551TIP3    H229069   6.109   5.888  14.541  0.6041  0.8412 -0.2691
 2552TIP3   OH229070   1.734   5.246  14.101  0.0029 -0.3596 -0.4949
 2552TIP3    H129071   1.828   5.230  14.108 -0.0760 -0.1263  2.1531
 2552TIP3    H229072   1.694   5.177  14.155 -1.1761  0.9166  0.3182
 2553TIP3   OH229073   1.485   0.148   1.273 -0.2289 -0.1453  0.6875
 2553TIP3    H129074   1.396   0.179   1.257 -0.4882 -0.5467  1.2914
 2553TIP3    H229075   1.521   0.211   1.336 -0.1581 -0.0884  0.5885
 2554TIP3   OH229076   5.441   2.245   0.414  0.3049 -0.1956  0.3414
 2554TIP3    H129077   5.467   2.240   0.322  0.2707 -2.7379  0.4007
 2554TIP3    H229078   5.515   2.286   0.458 -0.0593  1.9299 -0.9052
 2555TIP3   OH229079   1.598   2.537  16.227 -0.4881 -0.4632 -0.0669
 2555TIP3    H129080   1.535   2.479  16.269  0.4993 -2.2497 -0.9690
 2555TIP3    H229081   1.545   2.610  16.194 -2.0394 -1.7230 -0.4683
 2556TIP3   OH229082   5.821   6.236  15.933  0.3696 -0.0208  0.7125
 2556TIP3    H129083   5.726   6.227  15.927  0.4713 -0.8554  0.1322
 2556TIP3    H229084   5.841   6.314  15.882  0.2513 -1.4965 -1.7462
 2557TIP3   OH229085   4.918   1.521   2.236 -0.3860  0.4819  0.5418
 2557TIP3    H129086   4.952   1.604   2.202 -0.1912 -0.0920 -0.6899
 2557TIP3    H229087   4.840   1.504   2.183 -0.9593  0.3380  1.4180
 2558TIP3   OH229088   3.161   3.801   2.874  0.2813  0.0054 -0.2339
 2558TIP3    H129089   3.190   3.720   2.833 -0.6622 -0.1408 -0.6494
 2558TIP3    H229090   3.199   3.870   2.821 -0.8128 -0.1844 -1.3002
 2559TIP3   OH229091   2.912   1.002  13.225  0.3646 -0.6095 -0.4034
 2559TIP3    H129092   2.876   0.914  13.236 -2.3743  0.4791  0.1998
 2559TIP3    H229093   2.906   1.042  13.312  2.4839 -0.1046 -0.4469
 2560TIP3   OH229094   4.694   6.350   3.953 -0.1674 -0.2120  0.7456
 2560TIP3    H129095   4.719   6.326   3.864 -2.0019 -0.7597  0.3316
 2560TIP3    H229096   4.776   6.377   3.995  0.9169 -1.0623 -0.7376
 2561TIP3   OH229097   0.500   3.650  16.071 -0.2429  0.0406 -0.1470
 2561TIP3    H129098   0.456   3.611  15.996 -0.1681  2.1285 -1.3803
 2561TIP3    H229099   0.589   3.669  16.040 -0.2694  1.1284  0.3725
 2562TIP3   OH229100   0.796   3.936   4.027  0.1773  0.1117  0.1317
 2562TIP3    H129101   0.876   3.885   4.018 -0.4339 -1.1937  1.5370
 2562TIP3    H229102   0.818   4.005   4.090  0.5748  0.6345 -0.5724
 2563TIP3   OH229103   0.241   0.168  12.817 -0.5288 -0.4774  0.5071
 2563TIP3    H129104   0.160   0.210  12.786  0.6125  1.3796 -0.1199
 2563TIP3    H229105   0.211   0.102  12.880 -2.4983  0.7071  0.9068
 2564TIP3   OH229106   2.997   5.433  14.537 -0.0168 -0.8168  0.2537
 2564TIP3    H129107   3.039   5.419  14.621  1.2034 -0.0599 -0.2009
 2564TIP3    H229108   3.041   5.511  14.501 -2.1322  0.3248 -0.0402
 2565TIP3   OH229109   3.052   1.392  12.639 -1.1578 -0.4286  0.5494
 2565TIP3    H129110   3.129   1.408  12.584 -0.3725 -1.2090  1.3868
 2565TIP3    H229111   2.998   1.331  12.588 -1.9306  1.1773 -0.6439
 2566TIP3   OH229112   2.883   0.682  15.837 -0.1247  0.5535 -0.1248
 2566TIP3    H129113   2.942   0.660  15.909 -1.1568  2.5310  1.4232
 2566TIP3    H229114   2.816   0.615  15.840 -0.7240  1.1570  1.5140
 2567TIP3   OH229115   2.516   2.467  11.617 -0.4243 -0.3040  0.3455
 2567TIP3    H129116   2.504   2.388  11.564 -1.7892 -1.3449  2.1013
 2567TIP3    H229117   2.598   2.454  11.663 -0.8926 -0.9673  1.0143
 2568TIP3   OH229118   5.897   1.798  12.577 -0.2565 -0.3318 -0.5909
 2568TIP3    H129119   5.871   1.846  12.655  0.1062  1.1839 -1.3575
 2568TIP3    H229120   5.843   1.718  12.578 -1.2200  0.3050  0.4812
 2569TIP3   OH229121   6.219   2.903  16.908  0.6025  0.3380 -0.3755
 2569TIP3    H129122   6.244   2.816  16.940 -3.2076 -2.0112 -2.9265
 2569TIP3    H229123   6.144   2.928  16.963  0.6576  1.2408 -0.6946
 2570TIP3   OH229124   5.348   4.997   3.466  0.2868 -0.0180 -0.0584
 2570TIP3    H129125   5.329   5.083   3.429  1.3014 -0.2854 -1.2689
 2570TIP3    H229126   5.426   5.011   3.519 -1.3649  0.4426  2.3999
 2571TIP3   OH229127   0.909   6.312  13.801 -0.6165  0.3152 -0.3365
 2571TIP3    H129128   0.851   6.238  13.820  0.2232 -0.0350  0.9924
 2571TIP3    H229129   0.881   6.380  13.862  0.8717 -0.1485  0.9222
 2572TIP3   OH229130   2.613   3.538  13.648 -0.0725  0.0248 -0.3721
 2572TIP3    H129131   2.699   3.495  13.651 -0.0887 -0.0043 -0.3267
 2572TIP3    H229132   2.558   3.477  13.599 -0.1843 -0.1673 -0.0153
 2573TIP3   OH229133   4.995   3.859   0.098 -0.7084  0.9391 -0.3574
 2573TIP3    H129134   5.002   3.930   0.162 -0.6538  0.4304  0.2120
 2573TIP3    H229135   5.073   3.806   0.113 -0.0198  1.5072 -1.7226
 2574TIP3   OH229136   2.621   3.027  12.015 -0.4939 -0.1779 -0.5243
 2574TIP3    H129137   2.585   2.955  12.067 -1.1692 -1.0952 -2.1814
 2574TIP3    H229138   2.546   3.059  11.964  0.2577  0.3126 -1.3399
 2575TIP3   OH229139   0.679   0.950  13.915 -0.5343 -0.1782  0.0194
 2575TIP3    H129140   0.625   0.895  13.858 -0.2794 -1.8276  1.2956
 2575TIP3    H229141   0.664   0.915  14.003  0.6490  0.9939  0.7197
 2576TIP3   OH229142   2.369   4.026   3.138  0.2429 -0.1366  0.0759
 2576TIP3    H129143   2.382   4.028   3.233  1.7170 -0.8456 -0.0743
 2576TIP3    H229144   2.413   3.946   3.110  1.7849  1.1564 -1.4436
 2577TIP3   OH229145   1.455   3.231   3.463  0.6338 -0.6230 -0.4432
 2577TIP3    H129146   1.388   3.297   3.481 -0.9415 -2.0093 -0.9387
 2577TIP3    H229147   1.531   3.261   3.512  0.2372  1.9304 -1.2083
 2578TIP3   OH229148   5.050   5.383   4.550  0.2927 -0.1254 -0.0871
 2578TIP3    H129149   4.981   5.442   4.520  0.4766 -0.6355 -1.6237
 2578TIP3    H229150   5.004   5.314   4.597 -0.2034 -0.1868 -0.6528
 2579TIP3   OH229151   1.977   4.087  12.968  0.2094 -0.0035 -0.4749
 2579TIP3    H129152   2.022   4.151  13.023  0.3703  0.0391 -0.6603
 2579TIP3    H229153   2.007   4.104  12.879 -1.9515  1.5897 -0.9700
 2580TIP3   OH229154   1.788   5.118  13.590 -0.1381  0.0887 -0.5784
 2580TIP3    H129155   1.711   5.149  13.543 -1.7679 -2.1352  0.4762
 2580TIP3    H229156   1.844   5.081  13.522 -0.1429  1.3465 -1.3047
 2581TIP3   OH229157   3.210   6.253  13.666  0.0221 -0.6537  0.3037
 2581TIP3    H129158   3.169   6.317  13.608  0.0597 -2.7270 -2.1954
 2581TIP3    H229159   3.190   6.168  13.626  1.6387 -2.1116  2.3604
 2582TIP3   OH229160   2.083   0.498  15.650  0.3419  0.0983  0.5990
 2582TIP3    H129161   2.150   0.565  15.635 -0.1899  0.3700 -0.6925
 2582TIP3    H229162   2.013   0.544  15.696 -1.4206  1.3879 -2.9704
 2583TIP3   OH229163   2.954   6.523   4.740  0.2812 -1.0211 -0.3412
 2583TIP3    H129164   3.010   6.490   4.671 -0.1102  0.4665 -1.4310
 2583TIP3    H229165   2.985   6.612   4.756  0.5050 -1.3914  1.5775
 2584TIP3   OH229166   0.970   6.496  17.230  0.2179 -0.1556 -0.2651
 2584TIP3    H129167   1.054   6.543  17.230 -0.1396  0.4951  0.3712
 2584TIP3    H229168   0.990   6.412  17.270  0.6236 -0.1137 -0.3680
 2585TIP3   OH229169   0.278   2.386   3.125  0.2237 -0.1744 -0.1778
 2585TIP3    H129170   0.311   2.453   3.185  0.5126  1.0198 -1.6265
 2585TIP3    H229171   0.206   2.428   3.079  0.5426 -0.7776 -1.2662
 2586TIP3   OH229172   0.648   1.877  14.268 -0.5495  0.7315 -0.0542
 2586TIP3    H129173   0.655   1.815  14.341 -1.1418  1.1365  0.3603
 2586TIP3    H229174   0.592   1.832  14.205 -0.2658  0.4940 -0.1404
 2587TIP3   OH229175   4.820   5.970  14.130  0.2455  0.2553  0.0124
 2587TIP3    H129176   4.808   5.955  14.036  3.1812  0.8776 -0.5445
 2587TIP3    H229177   4.795   5.887  14.170  1.2863 -0.8977 -1.5779
 2588TIP3   OH229178   3.025   3.826   4.888 -0.5713  0.3103 -0.3318
 2588TIP3    H129179   2.930   3.834   4.900 -0.5941 -0.7307  0.3460
 2588TIP3    H229180   3.041   3.731   4.891  0.3994  0.4375 -1.1999
 2589TIP3   OH229181   2.155   4.026   3.999 -0.1465  0.0807  0.0684
 2589TIP3    H129182   2.118   3.992   4.080  0.4223 -1.3467 -0.2491
 2589TIP3    H229183   2.246   4.046   4.020  0.5870 -2.1759 -0.6651
 2590TIP3   OH229184   0.456   4.010  14.802 -0.2718 -0.1374  0.0711
 2590TIP3    H129185   0.527   3.951  14.828  0.5391  0.6963 -0.1981
 2590TIP3    H229186   0.478   4.093  14.843  0.2028  0.7915 -1.9680
 2591TIP3   OH229187   4.058   4.000   5.519 -0.2937 -0.2137 -0.9053
 2591TIP3    H129188   4.092   4.053   5.447 -0.5093  0.4738 -0.5082
 2591TIP3    H229189   3.964   3.995   5.501 -0.1167 -1.4587 -1.5792
 2592TIP3   OH229190   1.216   4.624   0.619 -0.1896 -0.4929  0.3483
 2592TIP3    H129191   1.159   4.587   0.686  0.1834 -1.2312  0.2739
 2592TIP3    H229192   1.300   4.637   0.663 -0.5998  1.2976  0.6583
 2593TIP3   OH229193   3.499   4.155  11.312  0.4452  0.1043 -0.2813
 2593TIP3    H129194   3.494   4.069  11.355 -0.7211  1.1174  1.7181
 2593TIP3    H229195   3.589   4.184  11.329  0.3895 -0.0731  0.3589
 2594TIP3   OH229196   5.596   4.833  14.705  0.5772  0.4226  0.1782
 2594TIP3    H129197   5.630   4.884  14.779  0.6678  0.1752  0.3086
 2594TIP3    H229198   5.663   4.766  14.690  1.0906  1.1460 -0.8480
 2595TIP3   OH229199   5.990   4.248  11.273  0.2612 -0.2747  0.0593
 2595TIP3    H129200   5.993   4.333  11.228 -1.0804 -0.4568 -0.4447
 2595TIP3    H229201   5.954   4.268  11.359 -1.2605 -0.4508 -0.4955
 2596TIP3   OH229202   0.837   6.350   5.350 -0.5446  0.0998  0.1139
 2596TIP3    H129203   0.809   6.259   5.342 -0.0670  0.0843 -1.9270
 2596TIP3    H229204   0.756   6.400   5.361 -0.9266 -0.4282 -0.2947
 2597TIP3   OH229205   4.778   3.142  16.386  0.1477 -0.2359  0.1135
 2597TIP3    H129206   4.768   3.220  16.442  1.7548 -1.0444  1.6074
 2597TIP3    H229207   4.690   3.104  16.384 -0.0631  0.0747  1.7353
 2598TIP3   OH229208   5.542   3.071   3.064 -0.1086 -0.1373 -0.4188
 2598TIP3    H129209   5.599   3.022   3.124 -0.0986  1.0913  0.6091
 2598TIP3    H229210   5.456   3.029   3.073  0.0535 -0.3925 -0.0523
 2599TIP3   OH229211   0.690   2.362  13.348  0.3119 -0.1312  0.0286
 2599TIP3    H129212   0.647   2.291  13.300  0.4494 -0.5311  0.4940
 2599TIP3    H229213   0.736   2.412  13.280  1.2745 -1.2280 -0.1524
 2600TIP3   OH229214   4.618   4.173   5.187 -0.4631  0.0722  0.1350
 2600TIP3    H129215   4.549   4.151   5.250  0.2260 -1.3709  0.4300
 2600TIP3    H229216   4.594   4.126   5.107  0.2439 -0.5876  0.2951
 2601TIP3   OH229217   1.428   3.533   1.837  0.4693 -0.4242  0.3494
 2601TIP3    H129218   1.369   3.509   1.909  1.3465  2.4916  2.2326
 2601TIP3    H229219   1.510   3.557   1.881  0.3733  3.6571 -1.2382
 2602TIP3   OH229220   3.163   5.209  11.740 -0.4267 -0.5288 -0.5756
 2602TIP3    H129221   3.081   5.162  11.724 -0.4902  0.0670 -2.1838
 2602TIP3    H229222   3.142   5.269  11.812 -0.9474 -1.4550  0.0567
 2603TIP3   OH229223   0.571   0.669  11.935 -0.4700  0.5033  0.5782
 2603TIP3    H129224   0.563   0.708  11.848  4.0403 -3.0814 -1.9271
 2603TIP3    H229225   0.496   0.610  11.942 -1.1275  1.1561 -0.7525
 2604TIP3   OH229226   0.112   3.045   2.093 -0.2429  0.3171  0.4046
 2604TIP3    H129227   0.042   3.016   2.152 -0.5081 -1.2789 -0.6223
 2604TIP3    H229228   0.186   3.064   2.150 -0.4298 -1.3707  1.2545
 2605TIP3   OH229229   6.499   6.243   4.561 -0.1459 -0.3150  0.1441
 2605TIP3    H129230   6.432   6.311   4.554  0.3402  0.2215  0.5557
 2605TIP3    H229231   6.470   6.174   4.501  0.1419  0.9271 -1.4891
 2606TIP3   OH229232   6.548   6.092  15.510  0.0052 -0.3028  0.2187
 2606TIP3    H129233   6.518   6.151  15.579  1.3616  0.0978  0.4792
 2606TIP3    H229234   6.643   6.093  15.517  0.0847 -1.8723 -0.3255
 2607TIP3   OH229235   3.936   2.782  16.493  0.1429  0.3171 -0.2170
 2607TIP3    H129236   3.877   2.774  16.568 -0.3674 -0.1311 -0.6484
 2607TIP3    H229237   3.951   2.692  16.464 -0.4141  0.5154 -1.2008
 2608TIP3   OH229238   1.121   0.448   1.888 -0.2958  0.0962  0.1076
 2608TIP3    H129239   1.208   0.416   1.914 -0.5326  0.2474  1.0920
 2608TIP3    H229240   1.139   0.510   1.817  0.1134 -3.1982 -3.0085
 2609TIP3   OH229241   2.350   6.449   5.750  0.4316  0.3712  0.2130
 2609TIP3    H129242   2.424   6.507   5.765 -0.2638  1.4566 -0.4043
 2609TIP3    H229243   2.325   6.465   5.659  0.2844 -0.9934 -0.0139
 2610TIP3   OH229244   1.858   3.058  12.108  0.1583 -0.2605 -0.0190
 2610TIP3    H129245   1.854   3.084  12.016  3.4523 -0.3419 -0.3315
 2610TIP3    H229246   1.820   3.131  12.156 -1.2270 -0.0286 -1.4049
 2611TIP3   OH229247   3.372   6.078  17.195 -1.1440  0.2108  0.3066
 2611TIP3    H129248   3.289   6.030  17.204 -1.9272  1.3801 -0.4024
 2611TIP3    H229249   3.380   6.126  17.278 -0.1864 -1.3191  1.1631
 2612TIP3   OH229250   2.349   4.931   2.618  0.6558 -0.3112  1.0433
 2612TIP3    H129251   2.265   4.974   2.602 -0.1468 -1.5692  1.6741
 2612TIP3    H229252   2.344   4.902   2.709  0.5330 -2.9991  0.2611
 2613TIP3   OH229253   1.757   3.213   2.403  0.3446  0.1136 -0.1712
 2613TIP3    H129254   1.780   3.196   2.312 -0.0547 -0.8748 -0.0981
 2613TIP3    H229255   1.672   3.172   2.415  1.1263 -1.2456  1.0916
 2614TIP3   OH229256   1.246   4.743   1.587  0.0208 -0.2792 -0.7017
 2614TIP3    H129257   1.330   4.699   1.601 -0.3258 -1.2970 -1.6284
 2614TIP3    H229258   1.241   4.809   1.657  0.9161 -1.1916  0.2632
 2615TIP3   OH229259   0.670   3.594  11.019  0.0997 -0.3011 -0.1213
 2615TIP3    H129260   0.750   3.545  11.004  2.6874  3.5131 -0.1454
 2615TIP3    H229261   0.646   3.629  10.932 -0.6524 -0.0728  0.1630
 2616TIP3   OH229262   4.419   6.611  15.465 -0.0479  0.6208  0.5536
 2616TIP3    H129263   4.479   6.686  15.457  0.4786  0.1645  0.1743
 2616TIP3    H229264   4.335   6.645  15.434 -0.0323  1.3122  1.2334
 2617TIP3   OH229265   3.026   1.378   5.473 -0.2784  0.4093  0.1469
 2617TIP3    H129266   2.984   1.398   5.389  0.1665  0.5890 -0.0368
 2617TIP3    H229267   3.103   1.326   5.449 -1.8430 -2.3776  0.6451
 2618TIP3   OH229268   2.894   4.448   2.252 -0.0334  0.0816  0.0464
 2618TIP3    H129269   2.833   4.493   2.310 -0.3300 -1.4559  0.9909
 2618TIP3    H229270   2.977   4.447   2.299 -0.0333 -0.3458  0.0464
 2619TIP3   OH229271   0.520   1.774   2.186  0.1513 -0.1715 -0.4067
 2619TIP3    H129272   0.572   1.794   2.264  1.9339 -0.3488 -1.4927
 2619TIP3    H229273   0.584   1.744   2.121 -1.2649  0.0057 -1.9607
 2620TIP3   OH229274   2.982   4.159  14.602 -0.0700 -0.0358  0.2722
 2620TIP3    H129275   3.016   4.070  14.596 -0.4483 -0.2771  1.4450
 2620TIP3    H229276   2.900   4.150  14.650 -0.5074  0.8564 -0.2814
 2621TIP3   OH229277   6.383   2.480   2.368 -0.4984 -0.1620  0.2012
 2621TIP3    H129278   6.429   2.564   2.375 -0.6254  0.0304 -1.0396
 2621TIP3    H229279   6.308   2.489   2.428  0.3691 -0.0159  1.2942
 2622TIP3   OH229280   3.074   5.696   5.342  0.0688 -0.1208  0.1561
 2622TIP3    H129281   3.059   5.668   5.251 -0.2012 -0.5715  0.3354
 2622TIP3    H229282   3.035   5.627   5.395 -1.5802  1.1111  0.6216
 2623TIP3   OH229283   3.713   3.776  11.243 -0.5993  0.3247 -0.5646
 2623TIP3    H129284   3.777   3.780  11.172  0.1836 -0.4130  0.0718
 2623TIP3    H229285   3.633   3.812  11.206  0.5240  2.5626 -1.0034
 2624TIP3   OH229286   3.709   3.443  15.908  0.2513  0.9014 -0.4772
 2624TIP3    H129287   3.682   3.381  15.976  0.5056  0.8799 -0.3965
 2624TIP3    H229288   3.669   3.409  15.828  1.1242  0.1339 -0.5983
 2625TIP3   OH229289   3.590   5.154  13.446  0.2144 -0.0584  0.0565
 2625TIP3    H129290   3.642   5.144  13.526  0.0152 -0.2021  0.1668
 2625TIP3    H229291   3.499   5.143  13.474  0.0752  0.7553 -0.0414
 2626TIP3   OH229292   4.840   1.514   3.072  0.1045  0.4676  0.7547
 2626TIP3    H129293   4.789   1.584   3.032  0.2503 -0.1918 -0.6843
 2626TIP3    H229294   4.895   1.481   3.000 -1.3299 -2.3630  0.8139
 2627TIP3   OH229295   4.287   1.146  14.744  0.0567  0.3051 -1.1308
 2627TIP3    H129296   4.371   1.102  14.729 -0.8202 -1.6048 -0.7353
 2627TIP3    H229297   4.293   1.182  14.832  0.3335 -0.1434 -0.9660
 2628TIP3   OH229298   2.859   3.576  13.102  0.7095 -0.0587 -0.4187
 2628TIP3    H129299   2.812   3.513  13.157  1.0790  1.4890  1.8199
 2628TIP3    H229300   2.794   3.605  13.038 -0.5467 -0.1166  0.7798
 2629TIP3   OH229301   3.346   2.707   3.321  0.5712  0.1065 -0.1930
 2629TIP3    H129302   3.374   2.634   3.376 -1.3441  1.2225  2.4572
 2629TIP3    H229303   3.264   2.677   3.281 -0.1789  0.7040  0.8409
 2630TIP3   OH229304   4.028   2.244   5.928 -0.1480  0.3517 -0.1619
 2630TIP3    H129305   4.074   2.287   6.000 -1.4079  2.1027 -0.3152
 2630TIP3    H229306   4.037   2.304   5.854 -1.9016  0.3755 -0.4150
 2631TIP3   OH229307   4.027   4.542   1.581 -0.3119  0.5999  0.0766
 2631TIP3    H129308   4.012   4.613   1.643 -3.2169  1.3556 -1.3230
 2631TIP3    H229309   4.116   4.555   1.550  0.1035  2.0576  1.7534
 2632TIP3   OH229310   4.328   2.712   3.021  0.9304 -0.1674 -0.4508
 2632TIP3    H129311   4.275   2.792   3.021  2.5730  1.0217  1.2528
 2632TIP3    H229312   4.403   2.734   2.965  1.3450 -0.5442 -0.0449
 2633TIP3   OH229313   4.079   4.408   4.001 -0.3013  0.0129  0.0185
 2633TIP3    H129314   3.989   4.399   3.970 -0.2527 -0.3312 -0.0294
 2633TIP3    H229315   4.113   4.483   3.952 -1.1468  1.3734  1.4456
 2634TIP3   OH229316   3.995   0.009   3.343  0.0121 -0.0939  0.3820
 2634TIP3    H129317   3.989  -0.020   3.434 -0.5149  1.2090  0.7774
 2634TIP3    H229318   4.055   0.084   3.346 -1.3161  1.0147 -0.0587
 2635TIP3   OH229319   3.395   4.841  13.064  0.2850  0.2814  0.0275
 2635TIP3    H129320   3.427   4.867  13.150 -0.5008 -1.1913  0.8100
 2635TIP3    H229321   3.424   4.911  13.005  1.0709  1.1842  1.4284
 2636TIP3   OH229322   3.740   2.638  15.494 -0.1503 -0.3611  0.2685
 2636TIP3    H129323   3.739   2.730  15.467  0.2715 -1.0486 -2.4165
 2636TIP3    H229324   3.663   2.628  15.549 -0.6090  1.4468  0.0058
 2637TIP3   OH229325   5.157   3.061   6.640 -0.5324 -0.0342 -0.9015
 2637TIP3    H129326   5.221   3.131   6.627 -0.4942  0.0435 -0.3368
 2637TIP3    H229327   5.081   3.106   6.677 -0.6245 -0.2447 -0.8368
 2638TIP3   OH229328   3.123   2.184   3.836 -1.0240 -0.4691  0.1677
 2638TIP3    H129329   3.099   2.267   3.796 -0.4156 -0.6189 -0.5245
 2638TIP3    H229330   3.069   2.119   3.790 -0.7318 -0.5766 -0.0247
 2639TIP3   OH229331   5.430   3.657   3.163  0.3056 -1.1263  0.2481
 2639TIP3    H129332   5.473   3.622   3.242 -1.2676  1.5226  2.4562
 2639TIP3    H229333   5.355   3.599   3.150  1.0307 -2.0744  0.1806
 2640TIP3   OH229334   3.173   1.969  10.427  0.4584  0.4871 -0.5393
 2640TIP3    H129335   3.117   2.024  10.481  0.2933 -1.5268  1.4892
 2640TIP3    H229336   3.114   1.905  10.388  0.7676  1.1342 -2.1763
 2641TIP3   OH229337   3.283   2.262   5.845  0.1652  0.5174  0.0946
 2641TIP3    H129338   3.312   2.299   5.762 -1.2289  1.2512 -0.0898
 2641TIP3    H229339   3.195   2.229   5.828  0.3018 -0.3833  0.9917
 2642TIP3   OH229340   5.443   2.186  16.775 -0.4491  0.9596 -0.4009
 2642TIP3    H129341   5.466   2.234  16.695  0.3436  0.1123 -0.7088
 2642TIP3    H229342   5.520   2.192  16.830 -0.7353  0.9470  0.0016
 2643TIP3   OH229343   1.245   5.060  17.030  0.0067 -0.1394 -0.4193
 2643TIP3    H129344   1.251   4.975  17.073  1.0210  0.8234  1.4737
 2643TIP3    H229345   1.193   5.114  17.089  0.0269  0.7807 -1.2108
 2644TIP3   OH229346   6.270   1.415  16.238 -0.4609 -0.0037 -0.0698
 2644TIP3    H129347   6.230   1.391  16.155  0.5262  0.1561 -0.5989
 2644TIP3    H229348   6.274   1.333  16.288 -0.6970 -0.1702 -0.3254
 2645TIP3   OH229349   0.617   5.495   3.397  0.3849  0.2806 -0.2325
 2645TIP3    H129350   0.603   5.430   3.466 -3.4625  1.0413 -0.0830
 2645TIP3    H229351   0.679   5.557   3.435  0.3206 -0.6648  1.5327
 2646TIP3   OH229352   3.240   2.759  13.756  0.4060  0.0676 -0.6231
 2646TIP3    H129353   3.307   2.805  13.806  1.4200 -2.0239  0.0703
 2646TIP3    H229354   3.274   2.755  13.667  0.5541  0.2117 -0.5728
 2647TIP3   OH229355   4.933   0.121   2.954  0.0858  0.2387  0.3465
 2647TIP3    H129356   4.863   0.063   2.924 -0.1483  0.8347 -0.3023
 2647TIP3    H229357   4.944   0.184   2.882 -0.3230  1.5558  1.4032
 2648TIP3   OH229358   3.962   3.362   3.624  0.3097 -0.2830 -0.0677
 2648TIP3    H129359   3.973   3.457   3.636  0.1297 -0.5332  2.6701
 2648TIP3    H229360   3.875   3.344   3.660  0.2675 -1.4882 -0.7255
 2649TIP3   OH229361   1.861   1.721  12.371  0.1299  0.2152 -0.1509
 2649TIP3    H129362   1.929   1.787  12.359  1.0573 -0.7571 -0.2883
 2649TIP3    H229363   1.853   1.711  12.466 -0.2276  0.7300 -0.1212
 2650TIP3   OH229364   3.316   4.694   2.527 -0.1293  0.3183  0.1058
 2650TIP3    H129365   3.375   4.693   2.602  2.6601 -0.6186 -1.9195
 2650TIP3    H229366   3.359   4.752   2.464 -2.0826  0.6182 -1.0472
 2651TIP3   OH229367   3.250   2.833  15.031 -0.4172  0.1797  0.8001
 2651TIP3    H129368   3.304   2.853  15.108 -0.5805  0.5965  0.8069
 2651TIP3    H229369   3.310   2.787  14.972  0.0134  0.8269  0.7175
 2652TIP3   OH229370   2.481   1.447  15.034 -0.1115 -0.0976  0.5188
 2652TIP3    H129371   2.564   1.493  15.024 -0.7590  1.5632  2.0910
 2652TIP3    H229372   2.466   1.446  15.129 -0.1497 -3.6914  0.6356
 2653TIP3   OH229373   4.077   1.498  10.365 -0.3965  0.2221  0.0604
 2653TIP3    H129374   4.165   1.492  10.327 -0.7040  0.7918 -0.7734
 2653TIP3    H229375   4.079   1.578  10.417  0.2470 -0.9241  1.9131
 2654TIP3   OH229376   6.622   5.254   3.034 -0.1551 -0.2351 -0.5603
 2654TIP3    H129377   6.642   5.346   3.052 -0.0374 -0.4434  0.4736
 2654TIP3    H229378   6.702   5.219   2.996  0.2384 -0.1995  0.2087
 2655TIP3   OH229379   1.388   2.094  12.301  0.0507 -0.0420 -0.6593
 2655TIP3    H129380   1.354   2.076  12.389  0.5292 -0.1824 -0.4996
 2655TIP3    H229381   1.311   2.118  12.250  0.1161  4.0212  0.7627
 2656TIP3   OH229382   2.392   4.175   4.862  0.0201 -0.2253  0.5304
 2656TIP3    H129383   2.298   4.194   4.861  0.2174  0.9207 -1.2979
 2656TIP3    H229384   2.405   4.112   4.792  0.5882 -0.5857  0.9503
 2657TIP3   OH229385   5.125   4.519  13.934  0.0552 -0.0829  0.0605
 2657TIP3    H129386   5.036   4.554  13.942 -0.7942 -2.0114 -0.4669
 2657TIP3    H229387   5.179   4.580  13.984 -1.6259  0.8794  0.7844
 2658TIP3   OH229388   1.206   5.372   5.311  0.2743 -0.3303 -0.8168
 2658TIP3    H129389   1.278   5.319   5.345 -0.6760 -1.0149  0.2071
 2658TIP3    H229390   1.177   5.423   5.387 -0.6678 -0.4783 -1.0704
 2659TIP3   OH229391   3.585   4.868   5.564 -0.5635  0.2699  0.1364
 2659TIP3    H129392   3.670   4.840   5.600 -0.9053 -2.9230 -1.1566
 2659TIP3    H229393   3.579   4.822   5.480 -3.2296  1.0718 -0.1953
 2660TIP3   OH229394   5.988   6.431   4.536 -0.4861 -0.3046 -0.0548
 2660TIP3    H129395   6.082   6.443   4.549 -0.7318  0.9520  0.7357
 2660TIP3    H229396   5.976   6.437   4.441  0.4704 -2.6471 -0.3861
 2661TIP3   OH229397   0.616   6.737  16.015 -0.7728  0.0007 -0.5551
 2661TIP3    H129398   0.663   6.808  15.972 -0.0168 -1.6736 -2.6497
 2661TIP3    H229399   0.681   6.697  16.073 -0.0190 -1.2596 -2.1906
 2662TIP3   OH229400   5.255   6.066  13.782 -0.1315  0.0530  0.6836
 2662TIP3    H129401   5.196   6.009  13.831  0.7923 -2.5841 -1.0759
 2662TIP3    H229402   5.253   6.032  13.693  2.6855  0.9346  0.1911
 2663TIP3   OH229403   6.179   0.853   4.260 -0.3327 -0.2424 -0.1953
 2663TIP3    H129404   6.110   0.786   4.257 -1.7712  1.1524  0.1049
 2663TIP3    H229405   6.138   0.926   4.306  1.9471  0.0203  1.5707
 2664TIP3   OH229406   5.737   6.723   3.598 -0.1663 -0.2896 -0.3064
 2664TIP3    H129407   5.702   6.735   3.687  1.1614  0.2725  0.1605
 2664TIP3    H229408   5.685   6.783   3.544  1.7738  2.6422  0.8409
 2665TIP3   OH229409   4.814   4.176   0.425 -0.2061  0.0980 -0.1378
 2665TIP3    H129410   4.738   4.195   0.370 -0.9495 -0.8991  0.5023
 2665TIP3    H229411   4.781   4.186   0.514 -0.4020 -3.0089  0.2380
 2666TIP3   OH229412   3.704   5.519   1.764  0.3005 -0.4239  0.3595
 2666TIP3    H129413   3.709   5.453   1.834  4.5572 -2.9759 -1.8878
 2666TIP3    H229414   3.783   5.572   1.776  0.3057  0.0662 -1.5747
 2667TIP3   OH229415   6.759   5.466  12.751  0.6150  0.7315  0.4752
 2667TIP3    H129416   6.739   5.484  12.843  1.4647  1.5883  0.5004
 2667TIP3    H229417   6.820   5.535  12.725  0.1839  0.6625 -0.8134
 2668TIP3   OH229418   4.896   5.623   0.053 -0.6894  0.0207 -0.2643
 2668TIP3    H129419   4.968   5.574   0.093  0.2724  1.0460 -0.7195
 2668TIP3    H229420   4.903   5.711   0.089 -1.9378  0.0486 -0.0474
 2669TIP3   OH229421   3.008   4.612   4.333  0.1694 -0.6178 -0.0598
 2669TIP3    H129422   3.091   4.575   4.301 -0.2433 -1.5599 -0.0798
 2669TIP3    H229423   3.032   4.658   4.413  1.0692  1.0158 -1.1954
 2670TIP3   OH229424   0.870   1.638  14.741 -0.1156 -0.3663 -0.6170
 2670TIP3    H129425   0.793   1.582  14.750 -1.8391  1.9015 -0.3101
 2670TIP3    H229426   0.871   1.663  14.649 -1.9224  2.3497 -0.0178
 2671TIP3   OH229427   1.197   3.597   2.886  0.3471  0.3630  0.4074
 2671TIP3    H129428   1.209   3.504   2.867  2.0487  0.2946  1.6424
 2671TIP3    H229429   1.264   3.641   2.834  0.2728  0.8024  0.6766
 2672TIP3   OH229430   5.201   1.111  13.442  0.7779  0.4879  0.4648
 2672TIP3    H129431   5.202   1.033  13.499 -0.0783  1.3788  1.7644
 2672TIP3    H229432   5.234   1.181  13.498 -0.8287  1.5573  0.1229
 2673TIP3   OH229433   3.158   0.905  12.576 -0.3763 -0.8409 -0.1027
 2673TIP3    H129434   3.161   0.987  12.626 -1.0100 -0.5582 -0.5103
 2673TIP3    H229435   3.079   0.861  12.608 -0.3986 -0.9803 -0.3518
 2674TIP3   OH229436   2.662   2.023  13.283 -0.5164 -0.0861  0.5738
 2674TIP3    H129437   2.581   1.989  13.245  0.1674 -1.8640  0.6313
 2674TIP3    H229438   2.718   2.043  13.208 -1.2998  2.0801  0.4863
 2675TIP3   OH229439   3.843   1.831  11.904 -0.1378  0.4162 -0.5210
 2675TIP3    H129440   3.767   1.851  11.959  0.2478  0.0161  0.1730
 2675TIP3    H229441   3.847   1.903  11.841 -0.2715  1.1598  0.3145
 2676TIP3   OH229442   5.984   0.730  12.801  0.0717 -0.7127 -0.0010
 2676TIP3    H129443   6.035   0.804  12.836 -0.3489 -0.7580  0.7270
 2676TIP3    H229444   6.032   0.652  12.828  0.5842 -0.7138 -0.8787
 2677TIP3   OH229445   2.654   6.550  16.619 -0.0510 -0.9059  0.4193
 2677TIP3    H129446   2.626   6.640  16.638  0.3524 -0.0561 -2.5971
 2677TIP3    H229447   2.742   6.544  16.657 -0.2025 -0.1389  0.9245
 2678TIP3   OH229448   2.989   6.728  11.568 -0.1929  0.5582  0.1455
 2678TIP3    H129449   2.996   6.694  11.478 -0.5273 -1.3391  0.7939
 2678TIP3    H229450   2.900   6.704  11.596 -0.2594  1.5467  0.8432
 2679TIP3   OH229451   3.276   5.195   5.419  0.7710  0.1180  0.2676
 2679TIP3    H129452   3.236   5.242   5.346 -1.5979  0.1679  1.4778
 2679TIP3    H229453   3.323   5.122   5.379  0.6492  0.9151 -1.3693
 2680TIP3   OH229454   5.534   2.738  16.720  0.6440 -0.1948 -0.6438
 2680TIP3    H129455   5.455   2.684  16.721 -0.3991  1.2603 -1.2403
 2680TIP3    H229456   5.524   2.796  16.795  2.5377 -1.8295  0.9816
 2681TIP3   OH229457   6.430   5.066  15.932  0.6688 -0.7980  0.3462
 2681TIP3    H129458   6.375   5.144  15.928  1.9226  0.0558 -1.3336
 2681TIP3    H229459   6.450   5.055  16.025  0.4628  0.8656  0.6112
 2682TIP3   OH229460   3.136   5.399  15.365  0.2747 -0.0867 -0.4065
 2682TIP3    H129461   3.213   5.456  15.367 -0.7867  1.3951 -0.5518
 2682TIP3    H229462   3.092   5.420  15.283  0.1794 -1.5874 -0.7701
 2683TIP3   OH229463   5.700   1.616  15.768  0.2299  0.1732 -0.2474
 2683TIP3    H129464   5.606   1.622  15.782  0.5987  1.5391  2.2414
 2683TIP3    H229465   5.722   1.697  15.722  0.3295  0.4673  0.3057
 2684TIP3   OH229466   0.286   1.170  12.164  0.0003 -0.4354 -0.0858
 2684TIP3    H129467   0.315   1.093  12.213  1.2862  0.3338  0.4301
 2684TIP3    H229468   0.333   1.243  12.205 -1.4023  0.6667 -0.3770
 2685TIP3   OH229469   6.086   3.921  16.770 -0.5233  0.3036 -0.1689
 2685TIP3    H129470   6.022   3.993  16.768  0.4847  1.2790  1.0122
 2685TIP3    H229471   6.033   3.843  16.786 -1.7282  0.6344 -2.1348
 2686TIP3   OH229472   5.879   6.572  13.255  0.2163  0.3053 -0.2947
 2686TIP3    H129473   5.972   6.591  13.264  0.2867 -0.4122  0.5739
 2686TIP3    H229474   5.872   6.477  13.263 -0.6890  0.4319  0.5751
 2687TIP3   OH229475   4.375   3.850   2.174  0.4909  0.1069  0.3409
 2687TIP3    H129476   4.449   3.841   2.234 -0.1747  2.7038  1.7205
 2687TIP3    H229477   4.347   3.941   2.185 -2.5483 -0.6158 -0.5645
 2688TIP3   OH229478   2.062   2.106   4.147 -1.0080  0.3059 -0.1541
 2688TIP3    H129479   2.052   2.053   4.226  0.5068  0.5996  0.2603
 2688TIP3    H229480   2.116   2.053   4.089 -1.0456  0.6273 -0.4856
 2689TIP3   OH229481   1.939   5.769  12.136  0.4374 -0.7484  0.1114
 2689TIP3    H129482   1.869   5.821  12.174  0.9905 -0.7951  1.2169
 2689TIP3    H229483   1.992   5.832  12.086  1.1911 -0.1915  1.5685
 2690TIP3   OH229484   2.421   4.903   5.261 -0.6455 -0.0067  0.4272
 2690TIP3    H129485   2.406   4.918   5.354 -1.8964 -0.3015  0.2884
 2690TIP3    H229486   2.335   4.883   5.225 -0.2074  0.2285 -0.8240
 2691TIP3   OH229487   6.216   2.976  14.352  0.1260 -0.5911 -0.1374
 2691TIP3    H129488   6.294   2.921  14.348  0.5792 -0.1756  1.8517
 2691TIP3    H229489   6.148   2.919  14.389  0.7408  0.2307  2.4546
 2692TIP3   OH229490   1.558   0.524   5.491 -0.4783 -0.0068 -0.6656
 2692TIP3    H129491   1.520   0.605   5.526 -1.0796 -0.2634 -0.7121
 2692TIP3    H229492   1.573   0.469   5.567  0.8314  0.5130 -0.5346
 2693TIP3   OH229493   0.782   6.484  13.981 -0.3823 -0.3740 -0.2403
 2693TIP3    H129494   0.784   6.426  14.057  0.1696  0.3707  0.3310
 2693TIP3    H229495   0.815   6.567  14.014 -3.4159  1.0376 -0.4045
 2694TIP3   OH229496   6.109   3.918  14.237 -0.3622 -0.2714 -1.4183
 2694TIP3    H129497   6.153   3.990  14.193  0.1579  0.4686  0.2290
 2694TIP3    H229498   6.019   3.948  14.247 -0.1756  0.1121 -0.8464
 2695TIP3   OH229499   1.297   5.075  15.569 -0.1079  0.0852  0.0659
 2695TIP3    H129500   1.219   5.095  15.620 -1.4516  0.3869 -1.9829
 2695TIP3    H229501   1.266   5.017  15.499  1.6468 -0.3687 -0.4020
 2696TIP3   OH229502   1.247   0.224  16.188 -0.5411  0.1784  0.1618
 2696TIP3    H129503   1.163   0.183  16.165 -0.0423 -0.6072 -0.3192
 2696TIP3    H229504   1.273   0.181  16.269  0.7744 -1.7342 -1.1791
 2697TIP3   OH229505   6.516   3.233  13.962  0.0851  0.1164  0.5362
 2697TIP3    H129506   6.607   3.243  13.934  0.3717 -0.6468  1.1827
 2697TIP3    H229507   6.493   3.144  13.937 -0.0886 -0.1142  1.4821
 2698TIP3   OH229508   5.971   5.530   2.073  0.2698  0.1142  0.9979
 2698TIP3    H129509   5.963   5.440   2.106 -1.0439  0.1428  0.8202
 2698TIP3    H229510   6.049   5.528   2.017 -1.8307 -2.0149 -2.2588
 2699TIP3   OH229511   0.049   6.327   2.097  0.1142 -0.3722 -0.7957
 2699TIP3    H129512   0.092   6.377   2.166  0.6654  1.9516 -2.7074
 2699TIP3    H229513   0.026   6.244   2.139  2.3450  0.0694  1.5598
 2700TIP3   OH229514   1.435   1.331  16.611 -0.2028 -0.0836 -0.6086
 2700TIP3    H129515   1.368   1.265  16.627 -0.0979  0.1510  0.9263
 2700TIP3    H229516   1.388   1.404  16.570 -0.6099 -0.4700 -0.8350
 2701TIP3   OH229517   3.581   1.537  17.111 -0.1665 -0.1486  0.0266
 2701TIP3    H129518   3.588   1.486  17.031  1.9963  1.6739 -1.0857
 2701TIP3    H229519   3.640   1.493  17.172  0.1276 -0.1423 -0.2478
 2702TIP3   OH229520   5.510   2.618   0.145  0.2404  0.7191 -0.2501
 2702TIP3    H129521   5.464   2.563   0.082  1.6315 -2.6604  1.4361
 2702TIP3    H229522   5.452   2.694   0.158 -1.9998 -0.4714 -2.4520
 2703TIP3   OH229523   4.653   5.360  15.957 -0.0398 -0.1663  0.0921
 2703TIP3    H129524   4.719   5.302  15.918  0.1203  0.8522 -1.2353
 2703TIP3    H229525   4.649   5.435  15.897 -3.3597 -0.7638 -0.6324
 2704TIP3   OH229526   3.161   1.966   3.611  0.0667  0.1981  0.2795
 2704TIP3    H129527   3.125   1.928   3.530  0.9018 -0.2982  0.1280
 2704TIP3    H229528   3.090   1.960   3.674 -1.1360  2.0143 -0.8318
 2705TIP3   OH229529   1.885   4.844  14.498  0.2842  0.1191  0.0386
 2705TIP3    H129530   1.828   4.921  14.496 -0.8068 -0.5847  1.5346
 2705TIP3    H229531   1.824   4.770  14.497  1.2387 -0.6825  0.2869
 2706TIP3   OH229532   3.618   5.913   2.676 -0.5546 -0.1816 -0.0581
 2706TIP3    H129533   3.557   5.840   2.686 -0.5499 -0.2272 -0.3474
 2706TIP3    H229534   3.622   5.928   2.581 -0.4072  0.0668 -0.0130
 2707TIP3   OH229535   6.768   2.490   2.436 -0.0210 -0.5070 -0.7537
 2707TIP3    H129536   6.698   2.551   2.413  0.9927  0.0222 -2.5779
 2707TIP3    H229537   6.837   2.506   2.372  1.3091 -1.8435  0.2618
 2708TIP3   OH229538   6.618   6.787  12.146 -0.1088  0.2078  0.3752
 2708TIP3    H129539   6.677   6.788  12.221  0.7679  0.7107 -0.2944
 2708TIP3    H229540   6.643   6.709  12.096  0.3442  0.6892 -0.1683
 2709TIP3   OH229541   3.944   2.777  16.936  0.5706 -0.2696 -0.3960
 2709TIP3    H129542   3.994   2.841  16.989 -0.6132 -0.2674  0.7666
 2709TIP3    H229543   3.988   2.694  16.953  0.1524 -0.2833  0.6864
 2710TIP3   OH229544   1.714   6.740   1.608  0.2508 -0.2342 -0.4074
 2710TIP3    H129545   1.717   6.668   1.546 -0.3389 -0.1123 -0.5756
 2710TIP3    H229546   1.691   6.699   1.692 -2.2635  0.0104 -0.9134
 2711TIP3   OH229547   1.983   4.905  13.194  0.3619  0.5957  0.6206
 2711TIP3    H129548   1.910   4.862  13.238 -0.2064  0.6384 -0.2513
 2711TIP3    H229549   2.011   4.974  13.254 -1.2413  1.5158  0.3815
 2712TIP3   OH229550   1.859   5.270  12.264 -0.2391 -0.3207 -0.1879
 2712TIP3    H129551   1.945   5.294  12.299 -0.5547 -1.2035  1.2913
 2712TIP3    H229552   1.818   5.354  12.241 -0.5487  0.5600  2.9945
 2713TIP3   OH229553   6.576   6.712   5.834 -0.0622  0.9078  0.2048
 2713TIP3    H129554   6.488   6.688   5.863 -0.0861  1.4878  0.6322
 2713TIP3    H229555   6.574   6.807   5.827 -0.0132  0.8001 -1.6119
 2714TIP3   OH229556   6.309   3.109   3.441 -0.2366  0.4801  0.4975
 2714TIP3    H129557   6.392   3.061   3.443  0.7514  2.0689 -0.5253
 2714TIP3    H229558   6.307   3.157   3.524  0.3612  1.2187  0.0905
 2715TIP3   OH229559   3.748   3.796  12.716  0.4938 -0.5367  0.3015
 2715TIP3    H129560   3.699   3.843  12.649 -1.8390  0.5217  2.5490
 2715TIP3    H229561   3.729   3.704  12.701  0.2300 -0.3414 -0.6074
 2716TIP3   OH229562   4.769   6.018  13.290 -0.1981  0.1293  0.1273
 2716TIP3    H129563   4.758   6.006  13.196  0.7408  2.2797 -0.3098
 2716TIP3    H229564   4.856   5.981  13.309  0.8063  2.1241 -0.4007
 2717TIP3   OH229565   4.524   6.026   0.663 -0.2484  0.2423 -0.0552
 2717TIP3    H129566   4.524   6.055   0.572  2.2890  0.1220 -0.1699
 2717TIP3    H229567   4.513   6.106   0.715  2.4360  0.9479 -0.4464
 2718TIP3   OH229568   4.735   2.193  16.431 -0.5701 -0.2305 -0.3802
 2718TIP3    H129569   4.652   2.194  16.478 -0.0828 -1.1346  0.5284
 2718TIP3    H229570   4.722   2.255  16.358 -1.7268  0.2977  0.2506
 2719TIP3   OH229571   0.212   1.144  12.540  0.1855 -0.2493  0.1025
 2719TIP3    H129572   0.180   1.067  12.587  0.1611 -0.7581 -0.7247
 2719TIP3    H229573   0.160   1.217  12.575  0.0819 -0.6366  0.7606
 2720TIP3   OH229574   2.650   3.645   6.321  0.1716  0.2638 -0.0272
 2720TIP3    H129575   2.626   3.593   6.398  1.7814 -0.6810 -0.1298
 2720TIP3    H229576   2.710   3.589   6.271  0.0981  1.3223 -1.3703
 2721TIP3   OH229577   2.870   6.368   0.467 -0.4019  0.2914 -0.1273
 2721TIP3    H129578   2.844   6.372   0.375  0.5796 -0.8413 -0.4691
 2721TIP3    H229579   2.789   6.387   0.515 -1.0741  0.2344 -1.2065
 2722TIP3   OH229580   3.368   4.778   4.766  0.4241  0.5914  0.2936
 2722TIP3    H129581   3.290   4.754   4.716  0.5537 -1.8422  1.1139
 2722TIP3    H229582   3.371   4.873   4.762  0.4409  0.6134 -4.2953
 2723TIP3   OH229583   3.518   0.631   3.225 -0.4049 -0.2463 -0.4985
 2723TIP3    H129584   3.594   0.688   3.214 -0.5295  0.2350  1.0022
 2723TIP3    H229585   3.462   0.651   3.150 -1.3973  3.1002  0.9520
 2724TIP3   OH229586   4.674   3.272   0.688  0.1441 -0.3089 -0.4125
 2724TIP3    H129587   4.617   3.262   0.764 -0.1661  2.1889 -0.2284
 2724TIP3    H229588   4.619   3.250   0.613  0.3653 -2.4877  0.0057
 2725TIP3   OH229589   4.567   1.333   2.900  0.4311 -0.2066  0.1701
 2725TIP3    H129590   4.597   1.280   2.826  1.1951 -1.2004  1.1657
 2725TIP3    H229591   4.646   1.373   2.935  0.2161 -0.4673  0.9948
 2726TIP3   OH229592   4.027   0.188   5.273 -0.7390  0.2542 -0.2061
 2726TIP3    H129593   3.972   0.125   5.226  0.9514  0.4760 -2.6152
 2726TIP3    H229594   4.116   0.157   5.259 -0.0288  1.6188  1.0119
 2727TIP3   OH229595   6.193   2.815   5.644 -0.1578  0.2791 -0.1450
 2727TIP3    H129596   6.244   2.799   5.724 -0.5177 -0.8299 -0.1130
 2727TIP3    H229597   6.132   2.885   5.667  0.1103  0.3418  0.3796
 2728TIP3   OH229598   0.247   1.633   5.648  0.0974 -0.3274  0.5483
 2728TIP3    H129599   0.228   1.539   5.641  0.5769 -0.4338  0.6513
 2728TIP3    H229600   0.282   1.643   5.737 -1.8382  0.2833  1.3176
 2729TIP3   OH229601   2.178   2.441  13.845 -0.1547 -0.2144 -0.0141
 2729TIP3    H129602   2.134   2.402  13.770  0.4048 -0.7806 -0.0538
 2729TIP3    H229603   2.122   2.419  13.920 -1.1751  1.0816 -0.3431
 2730TIP3   OH229604   6.383   0.382   4.463  0.2080  0.4449 -0.0573
 2730TIP3    H129605   6.373   0.289   4.487 -0.7347  0.9096  1.5571
 2730TIP3    H229606   6.329   0.393   4.385 -0.4327 -0.1770  0.2886
 2731TIP3   OH229607   3.385   5.766   1.178  0.1390  0.1402  0.5399
 2731TIP3    H129608   3.301   5.727   1.201  0.0206  0.6398  0.9795
 2731TIP3    H229609   3.434   5.695   1.137 -0.8467  0.0852 -0.5891
 2732TIP3   OH229610   1.628   3.323  15.941 -0.6021  0.1070  0.5368
 2732TIP3    H129611   1.589   3.373  16.013 -1.1778 -0.2536  0.4826
 2732TIP3    H229612   1.633   3.233  15.974 -1.0003 -0.0884  0.0808
 2733TIP3   OH229613   5.739   2.827   5.251  0.1606  0.0162 -0.2677
 2733TIP3    H129614   5.705   2.867   5.171 -0.5246  0.5546  0.2828
 2733TIP3    H229615   5.779   2.899   5.299  0.8420 -0.3604 -0.2625
 2734TIP3   OH229616   4.219   3.641   1.906  0.1773 -0.0274  0.8633
 2734TIP3    H129617   4.165   3.633   1.985 -0.0353  1.6599  0.9308
 2734TIP3    H229618   4.169   3.597   1.838  0.0834 -0.9802  1.5219
 2735TIP3   OH229619   2.707   6.431  14.029 -0.0270 -0.4567  0.3913
 2735TIP3    H129620   2.645   6.360  14.047 -1.9729  1.1893  0.5587
 2735TIP3    H229621   2.769   6.428  14.101 -0.5881 -1.4589  0.8507
 2736TIP3   OH229622   2.899   1.799  12.664  0.0790  0.0001 -0.2859
 2736TIP3    H129623   2.819   1.839  12.628  0.1406 -0.9101 -1.4868
 2736TIP3    H229624   2.873   1.710  12.688  0.6994 -0.2763 -0.6081
 2737TIP3   OH229625   4.162   0.223  13.407  0.0764  0.2661  0.2468
 2737TIP3    H129626   4.252   0.200  13.432  0.2503  0.9750  0.3024
 2737TIP3    H229627   4.155   0.195  13.315  0.2951  0.0381  0.2986
 2738TIP3   OH229628   4.985   6.306   1.585  0.0533 -0.3658 -0.1368
 2738TIP3    H129629   4.976   6.276   1.675 -1.3789 -0.5923 -0.3282
 2738TIP3    H229630   4.912   6.265   1.539  1.1813 -0.8329 -1.5734
 2739TIP3   OH229631   2.011   1.206  13.908  1.1315 -0.5102 -0.1670
 2739TIP3    H129632   1.958   1.177  13.982  0.7087  0.6333 -0.0027
 2739TIP3    H229633   2.064   1.129  13.885  0.0551 -1.3959  0.2337
 2740TIP3   OH229634   4.911   6.729   1.808 -0.0725 -0.8992 -0.3085
 2740TIP3    H129635   4.939   6.815   1.838 -0.1920 -0.4985 -1.3181
 2740TIP3    H229636   4.836   6.707   1.863 -1.1280  0.4100 -1.1894
 2741TIP3   OH229637   4.347   4.360   4.564 -0.9647 -0.3474 -0.6322
 2741TIP3    H129638   4.342   4.449   4.600  1.3916 -0.1319 -0.6581
 2741TIP3    H229639   4.336   4.371   4.470  0.9620  0.1943 -0.8371
 2742TIP3   OH229640   0.317   3.241   0.455  0.4659 -0.1091 -0.6664
 2742TIP3    H129641   0.251   3.178   0.426  0.6151 -1.0718  0.9240
 2742TIP3    H229642   0.297   3.255   0.548 -0.1504  2.9819 -1.1547
 2743TIP3   OH229643   2.653   1.484   2.157 -0.1836 -0.2030 -0.0898
 2743TIP3    H129644   2.662   1.576   2.132 -1.0628  0.1438  0.7987
 2743TIP3    H229645   2.577   1.452   2.107 -0.0895 -0.3526 -0.1395
 2744TIP3   OH229646   0.052   2.979   1.831  0.4616 -1.0525  0.5850
 2744TIP3    H129647   0.053   3.016   1.919 -1.4015  0.0100  0.1952
 2744TIP3    H229648   0.093   3.047   1.776  0.2077 -1.0497  0.3981
 2745TIP3   OH229649   0.173   0.968  14.399 -0.0851 -0.0345  0.3199
 2745TIP3    H129650   0.167   1.030  14.472 -0.8633 -0.2289  0.4301
 2745TIP3    H229651   0.231   1.010  14.337 -0.7041  0.8773  0.3349
 2746TIP3   OH229652   3.712   2.161  11.765  0.1051 -0.5074  0.5188
 2746TIP3    H129653   3.660   2.105  11.708  1.1160 -1.3294  0.3734
 2746TIP3    H229654   3.680   2.142  11.853 -0.2346 -0.5643  0.3839
 2747TIP3   OH229655   5.950   1.219  15.555  0.5646  0.0310 -0.0266
 2747TIP3    H129656   5.909   1.294  15.511  0.5354 -0.9901 -1.8286
 2747TIP3    H229657   5.931   1.233  15.648 -1.9630  0.7675 -0.5567
 2748TIP3   OH229658   3.393   3.390  14.840  0.1552  0.2314 -0.8861
 2748TIP3    H129659   3.448   3.468  14.844 -0.1772  0.4073  0.7857
 2748TIP3    H229660   3.312   3.420  14.798  0.4810  0.4824 -1.3496
 2749TIP3   OH229661   6.730   0.904   5.252  0.2053 -0.3793  0.7238
 2749TIP3    H129662   6.679   0.985   5.244  0.6855 -0.2434 -1.8679
 2749TIP3    H229663   6.694   0.846   5.186  2.5079 -0.7501 -0.3014
 2750TIP3   OH229664   4.736   2.496  13.842 -0.2193  0.6627 -0.0106
 2750TIP3    H129665   4.701   2.421  13.890 -1.4560  1.2447  0.0573
 2750TIP3    H229666   4.804   2.531  13.899 -1.4529  1.1611  1.2302
 2751TIP3   OH229667   2.412   2.384  11.974  0.0059 -0.0151 -0.0126
 2751TIP3    H129668   2.389   2.333  11.897  0.2445 -0.0585 -0.0547
 2751TIP3    H229669   2.361   2.344  12.045  0.5922 -0.6518  0.0589
 2752TIP3   OH229670   5.731   4.885  15.824  0.2434  0.1243 -0.5252
 2752TIP3    H129671   5.799   4.948  15.848  1.1785  0.7284 -4.0599
 2752TIP3    H229672   5.779   4.804  15.806 -0.3690 -0.2857 -0.3450
 2753TIP3   OH229673   1.396   0.460  13.462 -0.0087 -0.4062 -0.3447
 2753TIP3    H129674   1.407   0.538  13.407  0.0508  0.1533  0.4465
 2753TIP3    H229675   1.335   0.488  13.531  2.2828 -0.1072  1.6803
 2754TIP3   OH229676   0.171   6.163   2.573  0.1412  0.4629 -0.8774
 2754TIP3    H129677   0.152   6.219   2.648  1.6497  0.4596 -0.4578
 2754TIP3    H229678   0.147   6.216   2.497 -0.5045  0.8313 -0.4243
 2755TIP3   OH229679   4.960   4.990  16.886  0.3463  0.0574  0.1623
 2755TIP3    H129680   4.987   4.912  16.934  0.3177 -0.9614 -1.3860
 2755TIP3    H229681   4.872   5.008  16.917  0.2795 -0.6564  0.4154
 2756TIP3   OH229682   0.862   1.058  10.448 -0.1166 -0.6658 -0.0086
 2756TIP3    H129683   0.924   1.125  10.478 -0.1703 -0.9192  0.6788
 2756TIP3    H229684   0.778   1.088  10.481 -0.1754 -0.9590  0.1056
 2757TIP3   OH229685   6.232   3.259  12.671  0.3233 -0.3530  0.0543
 2757TIP3    H129686   6.264   3.168  12.676  2.0012  0.1797 -0.3414
 2757TIP3    H229687   6.148   3.252  12.625  0.3494 -1.7190  0.1666
 2758TIP3   OH229688   3.569   2.312   4.449  0.0690  0.1872 -0.2164
 2758TIP3    H129689   3.563   2.247   4.379 -1.1266  1.2030 -1.0813
 2758TIP3    H229690   3.519   2.274   4.521  0.7028 -0.5417 -0.1462
 2759TIP3   OH229691   4.600   1.222   3.964  0.2695  0.6895  0.0252
 2759TIP3    H129692   4.694   1.226   3.984  0.1604 -0.0936  0.7112
 2759TIP3    H229693   4.574   1.314   3.956  0.8006  0.9679  1.2225
 2760TIP3   OH229694   2.901   3.983   0.359 -0.6102 -0.1913 -0.3539
 2760TIP3    H129695   2.827   3.966   0.300 -0.3035 -1.7122 -0.3197
 2760TIP3    H229696   2.866   3.967   0.446 -0.2923 -0.7889 -0.3292
 2761TIP3   OH229697   0.543   0.169  16.265  0.0511  0.9488 -0.9075
 2761TIP3    H129698   0.465   0.211  16.303  1.0778  1.3317  0.8892
 2761TIP3    H229699   0.566   0.225  16.191 -1.8865  0.3014 -2.0841
 2762TIP3   OH229700   6.389   3.380  14.892  0.1157 -0.0444  0.2690
 2762TIP3    H129701   6.433   3.303  14.855  0.5778 -1.8141  4.0115
 2762TIP3    H229702   6.310   3.345  14.933 -0.8275  1.8830  0.2021
 2763TIP3   OH229703   2.999   5.974  13.954 -0.0891 -0.2887  0.0002
 2763TIP3    H129704   3.057   5.907  13.917 -0.7772  0.0242 -1.7885
 2763TIP3    H229705   3.025   6.055  13.910  0.3206  0.5242  1.6747
 2764TIP3   OH229706   2.920   5.039  14.639  0.2797 -0.0123  0.0376
 2764TIP3    H129707   2.993   5.084  14.680 -1.0797  0.2002  2.3707
 2764TIP3    H229708   2.955   4.953  14.615  1.3653  0.1900  0.8410
 2765TIP3   OH229709   3.640   0.454  11.685  0.0041 -0.7047  0.0575
 2765TIP3    H129710   3.555   0.496  11.690  0.6436  0.6528 -0.0199
 2765TIP3    H229711   3.666   0.462  11.593  1.7742  2.2070  0.6895
 2766TIP3   OH229712   6.239   2.145  12.713  0.3058  0.0135 -0.7541
 2766TIP3    H129713   6.252   2.175  12.623 -0.6558  3.7293  0.1962
 2766TIP3    H229714   6.326   2.151  12.752  0.5913 -0.9313 -1.2117
 2767TIP3   OH229715   3.067   6.717  15.711  0.3176  0.1114  0.7086
 2767TIP3    H129716   3.101   6.737  15.624  0.2062  0.7415  0.8040
 2767TIP3    H229717   3.127   6.650  15.745 -0.1214 -0.7485 -0.1640
 2768TIP3   OH229718   1.394   0.192  10.675 -0.2645 -0.3834 -0.3592
 2768TIP3    H129719   1.405   0.161  10.765 -0.2956 -1.0467 -0.5756
 2768TIP3    H229720   1.324   0.137  10.640 -0.2610 -0.1188 -0.7823
 2769TIP3   OH229721   0.095   2.306  12.791  0.4430  0.5121  1.0013
 2769TIP3    H129722   0.113   2.357  12.712 -1.2697  0.6779  0.6737
 2769TIP3    H229723   0.171   2.249  12.800  1.0212  1.0143 -0.3341
 2770TIP3   OH229724   5.792   5.070  12.219 -0.5617 -0.3210  0.1068
 2770TIP3    H129725   5.792   4.977  12.198 -0.9389 -1.0201  2.8425
 2770TIP3    H229726   5.705   5.087  12.254 -0.4426  1.0233 -0.2014
 2771TIP3   OH229727   6.291   5.169   0.612 -0.1894 -0.0807 -0.2937
 2771TIP3    H129728   6.336   5.181   0.696  1.4960  0.0378 -1.1675
 2771TIP3    H229729   6.217   5.112   0.633  0.0687  0.1233  1.3092
 2772TIP3   OH229730   0.298   5.016  15.318 -0.6128  0.2749 -0.5175
 2772TIP3    H129731   0.327   5.047  15.404  0.8254  2.5323 -1.7350
 2772TIP3    H229732   0.294   4.921  15.327  0.9534  0.3494  1.6268
 2773TIP3   OH229733   1.195   5.527   1.834  0.3030 -0.3572  0.3572
 2773TIP3    H129734   1.114   5.565   1.867  1.3652  0.9387  1.5986
 2773TIP3    H229735   1.247   5.602   1.805  0.4804 -1.2788 -1.8664
 2774TIP3   OH229736   1.757   5.359   5.286 -0.2614 -0.0909  0.5622
 2774TIP3    H129737   1.827   5.413   5.250 -0.0046 -0.1979  0.8962
 2774TIP3    H229738   1.708   5.418   5.344 -1.3451  0.3795 -0.7893
 2775TIP3   OH229739   3.675   6.192   0.050 -0.4305  0.5434 -0.1449
 2775TIP3    H129740   3.673   6.260   0.117  0.5045  1.2719 -0.8328
 2775TIP3    H229741   3.633   6.232  -0.026 -0.2581  0.2087 -0.4170
 2776TIP3   OH229742   2.899   2.115   1.622  0.2367  0.2785 -0.1184
 2776TIP3    H129743   2.907   2.069   1.539  0.3768  1.7003 -0.9313
 2776TIP3    H229744   2.968   2.078   1.676 -1.1407 -2.1395  0.1543
 2777TIP3   OH229745   2.802   3.393   1.752 -0.2853  0.0039 -0.1719
 2777TIP3    H129746   2.885   3.436   1.772 -0.7741  1.3844 -0.9517
 2777TIP3    H229747   2.758   3.452   1.691 -1.5211 -1.0585 -0.3717
 2778TIP3   OH229748   0.312   3.097   1.064 -0.5575 -0.0774  0.6457
 2778TIP3    H129749   0.347   3.032   1.125  1.2078  0.1504 -0.0596
 2778TIP3    H229750   0.312   3.179   1.113  0.6520  0.0619  0.4501
 2779TIP3   OH229751   2.644   2.245  17.064  0.0815  0.4110  0.6219
 2779TIP3    H129752   2.554   2.272  17.083 -0.5144 -1.8403  1.3052
 2779TIP3    H229753   2.662   2.280  16.977 -1.7807  0.1783  0.1027
 2780TIP3   OH229754   4.546   6.351   2.553 -0.3416  0.3328 -0.4594
 2780TIP3    H129755   4.634   6.385   2.538 -0.8137  1.7230 -0.3058
 2780TIP3    H229756   4.506   6.415   2.613 -1.0889 -0.8578  0.3714
 2781TIP3   OH229757   3.434   0.646  11.655  0.5127  0.3767  0.2759
 2781TIP3    H129758   3.456   0.731  11.693 -3.0084  1.3725  0.4566
 2781TIP3    H229759   3.366   0.611  11.713 -1.0128 -0.6275 -1.9917
 2782TIP3   OH229760   0.474   1.208   4.763  0.3806  0.0616 -0.5893
 2782TIP3    H129761   0.427   1.151   4.702  0.1470  2.2826 -2.6336
 2782TIP3    H229762   0.448   1.177   4.850 -2.1819 -0.9658 -1.6192
 2783TIP3   OH229763   1.119   2.385  11.776 -0.6532  0.3632 -0.1845
 2783TIP3    H129764   1.108   2.466  11.825  1.6897  0.4859  0.2941
 2783TIP3    H229765   1.060   2.323  11.819 -1.3941  1.4366  0.3887
 2784TIP3   OH229766   2.436   3.006  12.858  0.0869 -0.3165  0.0182
 2784TIP3    H129767   2.428   2.929  12.914 -0.3847  0.2745  0.7931
 2784TIP3    H229768   2.450   3.078  12.919  1.6745  0.0811 -0.7508
 2785TIP3   OH229769   4.461   0.180   5.916 -0.5588  0.2015  0.4254
 2785TIP3    H129770   4.384   0.233   5.894  0.3210  2.0367  1.5233
 2785TIP3    H229771   4.431   0.122   5.986 -1.4500 -0.5502 -0.5505
 2786TIP3   OH229772   0.772   1.474  15.835  0.1817 -0.1366 -0.0662
 2786TIP3    H129773   0.820   1.453  15.915  0.9098 -0.4108 -0.5660
 2786TIP3    H229774   0.685   1.500  15.865  0.1416 -1.1634  0.7580
 2787TIP3   OH229775   3.354   5.313  14.861  0.0328 -0.0320  0.0826
 2787TIP3    H129776   3.356   5.356  14.947  0.9449  1.7979 -0.7992
 2787TIP3    H229777   3.443   5.282  14.848 -0.1047 -0.3138 -0.1927
 2788TIP3   OH229778   3.531   2.127   1.234 -0.3132  0.3466 -0.2660
 2788TIP3    H129779   3.540   2.082   1.150 -1.6441 -0.7706  0.1572
 2788TIP3    H229780   3.450   2.177   1.227 -0.7942 -0.2854  0.5700
 2789TIP3   OH229781   0.809   5.258  14.136  0.1662 -0.4204 -0.3363
 2789TIP3    H129782   0.736   5.266  14.075  2.0097 -0.5164 -2.7088
 2789TIP3    H229783   0.881   5.303  14.093  1.8946 -1.5510  1.2155
 2790TIP3   OH229784   0.704   4.374   5.126 -0.6924  0.6520  0.4796
 2790TIP3    H129785   0.699   4.295   5.180 -0.9946  0.6840  0.5029
 2790TIP3    H229786   0.687   4.343   5.037 -1.3517  0.7669  0.5611
 2791TIP3   OH229787   3.396   4.630   5.060  0.1383 -0.2379 -0.2688
 2791TIP3    H129788   3.334   4.596   4.995  2.1496 -0.3292 -2.2439
 2791TIP3    H229789   3.409   4.722   5.034  1.6754 -0.5343 -0.6351
 2792TIP3   OH229790   4.894   1.023  16.881 -0.0777 -0.0751 -0.0963
 2792TIP3    H129791   4.842   0.954  16.922 -1.0808  0.8689  0.2833
 2792TIP3    H229792   4.863   1.025  16.790  0.2495 -0.3916 -0.2182
 2793TIP3   OH229793   2.924   1.758   1.780 -0.6337  0.6529  0.9603
 2793TIP3    H129794   2.962   1.844   1.793  0.4943 -0.0885  3.0350
 2793TIP3    H229795   2.927   1.716   1.866  0.5078 -2.1047 -0.2817
 2794TIP3   OH229796   4.090   0.938   1.096 -0.2183  0.0486 -1.4574
 2794TIP3    H129797   4.118   0.896   1.015 -0.3168 -1.1048 -0.9165
 2794TIP3    H229798   4.001   0.905   1.110  0.3805 -1.1012 -0.0398
 2795TIP3   OH229799   4.195   2.952  14.894 -0.2358 -0.0187  0.7042
 2795TIP3    H129800   4.231   3.033  14.930 -1.2486  1.3717 -1.2571
 2795TIP3    H229801   4.104   2.951  14.925 -0.6608  0.4040 -0.4722
 2796TIP3   OH229802   6.290   3.479   5.496 -0.1806  0.3405 -0.2193
 2796TIP3    H129803   6.228   3.410   5.522 -0.9642  0.7976 -0.8382
 2796TIP3    H229804   6.294   3.538   5.572 -0.0496  0.0014  0.0416
 2797TIP3   OH229805   2.670   3.377  12.108 -0.0266 -0.2434  0.4713
 2797TIP3    H129806   2.666   3.338  12.020 -0.5463  0.0630  0.3585
 2797TIP3    H229807   2.657   3.471  12.094  0.7512 -0.0788  0.7919
 2798TIP3   OH229808   3.927   0.751   4.162  0.2931 -0.2989 -0.1514
 2798TIP3    H129809   3.849   0.765   4.108 -1.0478 -1.5742  1.3325
 2798TIP3    H229810   3.948   0.659   4.150  1.3763 -0.0484 -0.2517
 2799TIP3   OH229811   5.597   2.660  12.497 -0.2061  0.3680 -0.3044
 2799TIP3    H129812   5.676   2.678  12.446  0.2204 -1.1469 -0.2305
 2799TIP3    H229813   5.583   2.740  12.548  1.5874  0.4922  0.0839
 2800TIP3   OH229814   5.825   6.159   2.645 -0.5852 -0.0505  0.5801
 2800TIP3    H129815   5.878   6.203   2.711  1.8562 -2.1683  0.2119
 2800TIP3    H229816   5.809   6.226   2.578  4.7948  0.1462 -1.0434
 2801TIP3   OH229817   6.162   5.453   3.702  0.1578 -0.4746  0.3211
 2801TIP3    H129818   6.102   5.488   3.636  0.2129 -0.8176  0.0925
 2801TIP3    H229819   6.247   5.491   3.680 -0.0055  0.1741  0.7644
 2802TIP3   OH229820   5.665   3.249   5.776  0.7452 -0.9786 -0.3506
 2802TIP3    H129821   5.631   3.196   5.848  1.7429  1.1141  1.8058
 2802TIP3    H229822   5.687   3.186   5.708 -2.4844 -2.8469  0.1653
 2803TIP3   OH229823   5.715   3.964  11.706  0.3954  0.3261  0.1996
 2803TIP3    H129824   5.764   4.035  11.664  2.4120 -0.6828  0.7037
 2803TIP3    H229825   5.783   3.901  11.731 -1.2790 -1.5315  0.2412
 2804TIP3   OH229826   3.498   3.396   0.772 -0.2438  0.4340  0.4321
 2804TIP3    H129827   3.423   3.427   0.720  0.0385  0.8462  0.2630
 2804TIP3    H229828   3.463   3.387   0.861 -1.4294 -2.7645 -0.2328
 2805TIP3   OH229829   6.135   0.364   1.893  0.4529 -0.1009 -0.1161
 2805TIP3    H129830   6.146   0.398   1.981 -1.2050 -1.7662  0.8212
 2805TIP3    H229831   6.203   0.297   1.884 -1.7998 -2.8366  1.5743
 2806TIP3   OH229832   2.938   3.962   5.375  0.9095 -0.0121 -0.1283
 2806TIP3    H129833   2.936   3.902   5.301  0.3526  1.0392 -0.9868
 2806TIP3    H229834   2.886   3.918   5.443  1.5924 -1.0664 -0.2637
 2807TIP3   OH229835   1.651   3.698   0.150 -0.2240  0.2817  0.5343
 2807TIP3    H129836   1.579   3.686   0.088 -0.9135 -2.2635  1.7132
 2807TIP3    H229837   1.723   3.647   0.112  0.8573  2.3883 -0.3749
 2808TIP3   OH229838   4.946   6.008   3.412 -0.7161 -0.1349  0.2364
 2808TIP3    H129839   4.951   5.917   3.384  1.9081  0.3770 -1.2359
 2808TIP3    H229840   4.989   6.010   3.497  0.1584 -0.1137 -0.2027
 2809TIP3   OH229841   6.589   6.486   6.587 -0.9522  0.0932  0.2391
 2809TIP3    H129842   6.670   6.447   6.619 -1.2400  0.5290  1.5566
 2809TIP3    H229843   6.520   6.432   6.626 -1.3136 -0.3841 -1.0166
 2810TIP3   OH229844   4.250   2.255   3.701  0.1946 -0.0057 -0.2792
 2810TIP3    H129845   4.314   2.235   3.768 -0.2254  0.0718  0.1481
 2810TIP3    H229846   4.181   2.190   3.713  0.5717 -0.6003 -1.2572
 2811TIP3   OH229847   3.475   4.281   3.841 -0.0789  0.9207  0.7338
 2811TIP3    H129848   3.442   4.344   3.777  0.8291  0.1121 -0.5514
 2811TIP3    H229849   3.527   4.334   3.902  0.9986  1.3884 -0.5541
 2812TIP3   OH229850   2.990   5.676   5.079  0.0428 -0.1497 -0.2606
 2812TIP3    H129851   3.023   5.738   5.014 -0.1698 -0.4095 -0.6165
 2812TIP3    H229852   3.006   5.590   5.041  0.4717 -0.3295  0.2960
 2813TIP3   OH229853   5.122   5.648   1.749  0.2627  0.4866  0.4475
 2813TIP3    H129854   5.089   5.689   1.829  2.7440  2.1219  0.7325
 2813TIP3    H229855   5.217   5.649   1.758  0.5570 -2.0055 -1.2671
 2814TIP3   OH229856   6.598   1.643   6.487 -0.3171  0.9378  0.3060
 2814TIP3    H129857   6.642   1.664   6.405 -1.4515 -0.9215 -0.8271
 2814TIP3    H229858   6.666   1.600   6.540 -0.5324 -1.4650 -1.2366
 2815TIP3   OH229859   1.732   5.269   4.207  0.5238  0.1932 -0.7051
 2815TIP3    H129860   1.739   5.220   4.289  1.4143  0.7434 -0.4360
 2815TIP3    H229861   1.787   5.346   4.221  1.6181 -0.2653 -2.2244
 2816TIP3   OH229862   6.478   0.974   4.202 -0.1592 -0.2623  0.4040
 2816TIP3    H129863   6.512   0.909   4.141  1.3580 -1.2237  2.1807
 2816TIP3    H229864   6.390   0.943   4.224  0.3516 -1.4792  0.8300
 2817TIP3   OH229865   5.339   1.741  16.892 -0.0981 -0.2507 -0.3431
 2817TIP3    H129866   5.395   1.734  16.815  0.7316 -0.0225  0.2263
 2817TIP3    H229867   5.391   1.791  16.955 -1.3563  0.9362 -0.1793
 2818TIP3   OH229868   1.802   2.325  11.868  0.4789 -0.4193 -0.0494
 2818TIP3    H129869   1.856   2.256  11.907 -1.0838 -2.4602 -1.2921
 2818TIP3    H229870   1.756   2.364  11.942  1.7440 -0.3387  0.7335
 2819TIP3   OH229871   2.977   5.981  15.569  0.5818 -0.0274  0.2607
 2819TIP3    H129872   2.905   5.931  15.531  0.8535  0.8587 -1.5291
 2819TIP3    H229873   2.938   6.066  15.590  0.6845 -0.1670  1.0429
 2820TIP3   OH229874   0.690   4.099   5.207  0.6999  0.6808  0.0982
 2820TIP3    H129875   0.597   4.119   5.198  0.5090 -0.3978 -0.5539
 2820TIP3    H229876   0.715   4.137   5.291 -0.4453  0.5719  0.5039
 2821TIP3   OH229877   5.834   0.020   2.219  0.0647 -0.4222 -0.0159
 2821TIP3    H129878   5.751  -0.019   2.191 -0.2837  0.6260 -0.5108
 2821TIP3    H229879   5.830   0.021   2.314 -0.2542 -0.8854 -0.0232
 2822TIP3   OH229880   2.834   2.473   2.061 -0.1471  0.6457  0.0319
 2822TIP3    H129881   2.875   2.407   2.118  1.3046  0.5528 -1.0685
 2822TIP3    H229882   2.798   2.538   2.121  0.4623  0.0382  1.0742
 2823TIP3   OH229883   2.336   0.578  13.647  0.1988 -0.3017  0.2929
 2823TIP3    H129884   2.276   0.650  13.668  0.9290  0.2478  0.5322
 2823TIP3    H229885   2.280   0.509  13.612 -0.4437  0.6219 -0.5480
 2824TIP3   OH229886   1.407   0.897  14.197  0.3980  0.3206 -0.0059
 2824TIP3    H129887   1.397   0.991  14.180  0.7803  0.2797 -0.4758
 2824TIP3    H229888   1.322   0.869  14.229  0.3858  0.9053  0.4926
 2825TIP3   OH229889   4.256   0.346   1.575  0.1161 -0.3937  0.0606
 2825TIP3    H129890   4.248   0.277   1.510 -2.1619 -1.5516  1.4233
 2825TIP3    H229891   4.235   0.303   1.658  2.9104  1.0221  1.6227
 2826TIP3   OH229892   6.459   1.658   1.658 -0.2170  0.2719 -0.3527
 2826TIP3    H129893   6.441   1.681   1.749  2.2036  0.1385  0.2101
 2826TIP3    H229894   6.509   1.732   1.624  1.8865 -1.1338 -0.5070
 2827TIP3   OH229895   3.864   6.751  11.563  0.1062 -0.2784  0.2850
 2827TIP3    H129896   3.805   6.711  11.500  1.5920 -1.1362 -0.6332
 2827TIP3    H229897   3.950   6.748  11.521  0.9633  0.1487  1.8953
 2828TIP3   OH229898   6.306   5.882  14.453  0.4460  0.1285 -0.6442
 2828TIP3    H129899   6.318   5.787  14.443  1.6972  0.1023  0.7828
 2828TIP3    H229900   6.394   5.918  14.445  0.1014  1.0831 -0.2671
 2829TIP3   OH229901   2.141   3.714  11.965 -0.1757 -0.2729  0.1732
 2829TIP3    H129902   2.214   3.725  11.905 -0.7513 -0.3282 -0.5497
 2829TIP3    H229903   2.146   3.623  11.994  1.1059  0.2018  1.5591
 2830TIP3   OH229904   2.698   0.661   4.245  0.0526  0.2758  0.1863
 2830TIP3    H129905   2.705   0.612   4.327  2.1415  0.2804  0.0717
 2830TIP3    H229906   2.637   0.609   4.191 -0.7240 -0.1359  1.4259
 2831TIP3   OH229907   6.766   1.780  11.434 -0.3095  0.7167 -0.3180
 2831TIP3    H129908   6.702   1.768  11.364 -1.6055 -0.5424  1.0115
 2831TIP3    H229909   6.807   1.865  11.415 -0.4952  0.3630 -2.6459
 2832TIP3   OH229910   6.101   1.245   2.892  0.4671 -0.6295 -0.2994
 2832TIP3    H129911   6.057   1.190   2.827  1.3384 -0.6239 -0.9099
 2832TIP3    H229912   6.164   1.186   2.933  0.3092 -0.4847  0.1600
 2833TIP3   OH229913   6.772   4.860   5.135 -0.5535 -1.0093  0.4543
 2833TIP3    H129914   6.791   4.911   5.056  3.2063 -0.6241  1.4299
 2833TIP3    H229915   6.802   4.914   5.207 -2.4383 -2.0131  2.0815
 2834TIP3   OH229916   2.663   6.759  14.881  0.1953  0.2753  0.0771
 2834TIP3    H129917   2.643   6.666  14.891  2.2850 -0.0516  2.2739
 2834TIP3    H229918   2.580   6.804  14.899 -0.2061 -1.1164  2.0365
 2835TIP3   OH229919   3.238   6.445  14.303 -0.1713  0.1057 -0.1416
 2835TIP3    H129920   3.223   6.371  14.362  0.6959 -0.0552 -0.1086
 2835TIP3    H229921   3.332   6.462  14.309  0.0790 -0.3931 -2.0497
 2836TIP3   OH229922   3.270   2.559  16.850 -0.4931  0.4863  0.0375
 2836TIP3    H129923   3.218   2.485  16.820 -1.1733  0.9764 -0.0049
 2836TIP3    H229924   3.342   2.565  16.786  1.8248 -2.4768  2.0712
 2837TIP3   OH229925   3.755   6.161  12.114 -0.3873  0.1150  0.4327
 2837TIP3    H129926   3.785   6.103  12.044  0.3879 -0.9279  1.5935
 2837TIP3    H229927   3.660   6.163  12.103 -0.3664 -0.8313 -0.0594
 2838TIP3   OH229928   2.571   2.988  13.207 -0.0290  0.6182 -0.2269
 2838TIP3    H129929   2.638   2.937  13.253 -1.9649 -0.3172  1.7681
 2838TIP3    H229930   2.607   3.076  13.203  1.2683  0.1833  0.8765
 2839TIP3   OH229931   1.025   5.071   5.552 -0.1453 -0.1039  0.0221
 2839TIP3    H129932   0.943   5.109   5.521  0.9412  1.9679 -0.5263
 2839TIP3    H229933   1.068   5.037   5.474 -0.4442 -1.1733  0.3045
 2840TIP3   OH229934   2.800   2.597   1.813  0.2908 -0.0037  0.2970
 2840TIP3    H129935   2.828   2.590   1.904 -0.1590 -2.6565  0.3114
 2840TIP3    H229936   2.712   2.636   1.818  0.4647  0.3180  0.9523
 2841TIP3   OH229937   5.854   5.727  12.421  0.1795 -0.3735  0.2354
 2841TIP3    H129938   5.817   5.765  12.501  0.6925  0.8221 -0.0795
 2841TIP3    H229939   5.946   5.712  12.441  0.7226  1.5222 -0.6470
 2842TIP3   OH229940   4.927   3.378  12.554 -0.4374 -0.5350 -0.3640
 2842TIP3    H129941   4.939   3.299  12.501 -1.6718 -0.7392 -0.3852
 2842TIP3    H229942   4.835   3.374  12.581  0.0810 -0.2959  1.5828
 2843TIP3   OH229943   5.485   4.538   2.997 -0.2125  0.0927  0.0628
 2843TIP3    H129944   5.395   4.506   2.993 -0.9845  1.8290  2.1485
 2843TIP3    H229945   5.506   4.544   3.090  1.6029  0.9941 -0.3405
 2844TIP3   OH229946   5.904   1.453  13.312  0.3120 -0.3702  0.2963
 2844TIP3    H129947   5.875   1.532  13.267 -0.5849 -0.3926  0.8076
 2844TIP3    H229948   5.994   1.440  13.283 -0.1596 -0.2542 -1.2975
 2845TIP3   OH229949   2.135   1.471  16.499 -0.1472  0.2039  0.6330
 2845TIP3    H129950   2.050   1.459  16.541  0.2797 -0.6840  1.2814
 2845TIP3    H229951   2.155   1.386  16.461  1.0539  0.0044  1.6549
 2846TIP3   OH229952   3.684   5.831   0.480  0.1860 -0.4411  0.2035
 2846TIP3    H129953   3.698   5.896   0.410 -1.1468  0.9284  1.1351
 2846TIP3    H229954   3.757   5.844   0.540  1.8377 -2.2399 -1.3137
 2847TIP3   OH229955   6.523   3.108  12.021  0.2675  0.3291  0.1573
 2847TIP3    H129956   6.605   3.090  11.977  0.9929  2.4132  0.5421
 2847TIP3    H229957   6.456   3.097  11.953  0.9791 -0.2515 -0.4602
 2848TIP3   OH229958   1.291   0.751   2.438  0.3032  0.1452  0.2213
 2848TIP3    H129959   1.208   0.715   2.470  0.6140 -1.3388 -0.5393
 2848TIP3    H229960   1.281   0.846   2.445 -1.7069  0.0317 -0.4289
 2849TIP3   OH229961   5.308   2.908  11.015  0.1291  0.6251  0.0919
 2849TIP3    H129962   5.253   2.830  11.013  0.4407  0.3553  1.1647
 2849TIP3    H229963   5.336   2.915  11.107  0.6566  1.6088 -0.1293
 2850TIP3   OH229964   3.285   6.220  13.244 -0.4072 -0.4252 -0.6645
 2850TIP3    H129965   3.311   6.278  13.172  1.9910  0.8229  1.0598
 2850TIP3    H229966   3.219   6.270  13.292  0.9373  0.5216  0.2542
 2851TIP3   OH229967   3.622   3.196   5.376 -0.5329  0.1915 -0.1858
 2851TIP3    H129968   3.685   3.190   5.448  0.1161  0.0897 -0.7557
 2851TIP3    H229969   3.541   3.225   5.418 -0.2755 -0.2560  0.6484
 2852TIP3   OH229970   1.711   5.908  13.851  0.3623  0.5404 -0.1688
 2852TIP3    H129971   1.751   5.982  13.895 -0.1566  1.3755 -1.0421
 2852TIP3    H229972   1.720   5.929  13.757 -2.5768  1.1068 -0.4357
 2853TIP3   OH229973   2.514   0.566  13.854 -0.0266  0.4596 -0.2542
 2853TIP3    H129974   2.506   0.504  13.926  0.7135 -0.6473 -1.0822
 2853TIP3    H229975   2.441   0.545  13.796  0.0534  0.5408 -0.3856
 2854TIP3   OH229976   1.135   6.282  13.571  0.1276 -0.1623 -0.1130
 2854TIP3    H129977   1.068   6.296  13.637  1.4623  1.3152  1.0071
 2854TIP3    H229978   1.100   6.324  13.492 -0.5648 -0.0475  0.2487
 2855TIP3   OH229979   1.494   2.056   0.336 -0.7155  0.3290 -0.9529
 2855TIP3    H129980   1.526   2.031   0.422 -0.4590 -2.0448 -1.6848
 2855TIP3    H229981   1.408   2.095   0.353 -0.3518  0.6130  0.4037
 2856TIP3   OH229982   3.995   2.364   3.895  0.1620  0.3551  0.0220
 2856TIP3    H129983   3.917   2.310   3.898  0.5090 -0.1763 -0.3677
 2856TIP3    H229984   4.065   2.308   3.930  0.5214  0.5539 -0.3660
 2857TIP3   OH229985   2.172   1.625  12.815  0.1882 -0.5456 -0.5749
 2857TIP3    H129986   2.140   1.620  12.905 -0.0603 -1.8670 -0.7128
 2857TIP3    H229987   2.233   1.698  12.815  0.4388 -0.7321  0.7490
 2858TIP3   OH229988   3.374   6.522   2.652  0.2792  0.0452 -0.5145
 2858TIP3    H129989   3.323   6.448   2.686  1.0110 -0.1490  0.2133
 2858TIP3    H229990   3.313   6.595   2.650 -0.1012 -0.2460  0.0928
 2859TIP3   OH229991   3.189   6.422  16.857  0.5128 -0.0382 -0.2650
 2859TIP3    H129992   3.254   6.365  16.900 -1.6605 -1.4775  1.3299
 2859TIP3    H229993   3.144   6.364  16.796  0.7763  0.9808 -1.4525
 2860TIP3   OH229994   4.040   0.172   4.817 -0.8000  0.1381 -0.5859
 2860TIP3    H129995   4.032   0.180   4.722  0.3271  0.8475 -0.6418
 2860TIP3    H229996   4.100   0.242   4.842 -0.1725 -0.7563  0.5166
 2861TIP3   OH229997   1.537   5.235  16.421  0.1424  0.2129 -0.1403
 2861TIP3    H129998   1.496   5.321  16.407 -0.9202 -0.3480 -0.6150
 2861TIP3    H229999   1.575   5.212  16.336 -1.4360 -0.7080 -0.6415
 2862TIP3   OH230000   2.719   5.410   1.260 -0.1097  0.2737  0.4635
 2862TIP3    H130001   2.696   5.440   1.172  1.9965 -1.1896 -0.6510
 2862TIP3    H230002   2.726   5.491   1.312 -0.8139  1.2011 -0.8289
 2863TIP3   OH230003   3.426   3.525  13.164  0.7634  0.1795 -0.3579
 2863TIP3    H130004   3.412   3.525  13.069 -2.0264  0.8942 -0.0473
 2863TIP3    H230005   3.479   3.603  13.180 -0.0079  0.9189 -1.2477
 2864TIP3   OH230006   0.396   1.240  16.984 -0.1172 -0.1392  0.2256
 2864TIP3    H130007   0.469   1.190  17.022 -0.9069 -2.1643 -0.7525
 2864TIP3    H230008   0.319   1.209  17.032 -0.7324 -0.5271 -0.9813
 2865TIP3   OH230009   4.836   2.092  14.754 -0.3254 -0.3111 -0.8192
 2865TIP3    H130010   4.822   2.065  14.663 -0.1453  0.4410 -1.0777
 2865TIP3    H230011   4.925   2.127  14.754 -0.7428  0.7687 -0.6193
 2866TIP3   OH230012   2.613   6.781  16.970 -0.0569  0.1769  0.5324
 2866TIP3    H130013   2.705   6.801  16.985 -0.3497  0.2329  2.5188
 2866TIP3    H230014   2.568   6.865  16.977 -0.2224  0.3017 -1.3168
 2867TIP3   OH230015   5.377   2.203   3.097 -0.2721  0.2381  0.5575
 2867TIP3    H130016   5.359   2.241   3.010  0.4693 -0.2297  0.1862
 2867TIP3    H230017   5.473   2.206   3.104 -0.3937  1.6918  2.0143
 2868TIP3   OH230018   0.969   3.266   3.217  0.0158 -0.1235  0.9533
 2868TIP3    H130019   0.896   3.264   3.155  0.5318  1.5614  0.2297
 2868TIP3    H230020   0.990   3.174   3.233 -0.0675 -0.6311 -1.4638
 2869TIP3   OH230021   5.204   2.472   3.225 -0.0635  0.0362 -0.1731
 2869TIP3    H130022   5.114   2.449   3.248 -1.1765  2.5026 -1.6298
 2869TIP3    H230023   5.204   2.477   3.129  1.5704  0.2809 -0.1932
 2870TIP3   OH230024   5.834   3.581  17.052 -0.1067  0.2788  0.7595
 2870TIP3    H130025   5.830   3.660  16.998  0.5285  0.0883  0.4154
 2870TIP3    H230026   5.764   3.591  17.116 -0.0744  1.0886  0.6718
 2871TIP3   OH230027   1.162   0.085   1.029  0.0370 -0.4349 -0.2357
 2871TIP3    H130028   1.172   0.094   1.124 -0.1690  1.1822 -0.3438
 2871TIP3    H230029   1.251   0.072   0.997  0.0940 -1.1167  0.1870
 2872TIP3   OH230030   1.484   3.085   0.355  0.2117 -0.0409  0.1361
 2872TIP3    H130031   1.390   3.070   0.359  0.4949 -3.0788 -1.3509
 2872TIP3    H230032   1.516   3.061   0.442 -0.2690 -0.1987  0.2726
 2873TIP3   OH230033   2.564   3.935   5.367 -0.2035  1.1340 -0.2110
 2873TIP3    H130034   2.522   3.993   5.430 -0.4480  1.6222 -0.8060
 2873TIP3    H230035   2.616   3.994   5.312  1.6512  0.5054  0.7755
 2874TIP3   OH230036   1.066   2.242   1.528  0.7557  0.0641 -0.8342
 2874TIP3    H130037   0.975   2.211   1.521  0.5780  0.6226 -1.1020
 2874TIP3    H230038   1.104   2.227   1.442  1.1606 -0.8782 -0.5030
 2875TIP3   OH230039   3.956   2.056  16.667 -0.1141  0.6545 -0.6823
 2875TIP3    H130040   3.996   1.986  16.719 -0.1354 -1.5868 -3.4033
 2875TIP3    H230041   4.012   2.062  16.589 -0.6096  3.1673 -0.9282
 2876TIP3   OH230042   5.940   6.081   3.279  0.5027 -0.0416  0.2730
 2876TIP3    H130043   5.935   6.073   3.375 -0.5492 -1.4319  0.1310
 2876TIP3    H230044   5.923   5.992   3.247  0.6321  0.4520 -1.2118
 2877TIP3   OH230045   2.735   3.125  14.650  0.3581  0.1609 -0.2431
 2877TIP3    H130046   2.646   3.098  14.673  0.8835 -3.2477 -1.7242
 2877TIP3    H230047   2.756   3.075  14.572  4.0422 -0.1211  0.7689
 2878TIP3   OH230048   6.463   5.227   0.823 -0.0107 -0.8072 -1.0125
 2878TIP3    H130049   6.468   5.274   0.907 -1.0947 -0.9182 -0.8694
 2878TIP3    H230050   6.489   5.293   0.758  0.5558 -0.6352 -0.6231
 2879TIP3   OH230051   4.465   0.372   1.975 -0.3419 -0.4768 -0.3149
 2879TIP3    H130052   4.543   0.427   1.969 -0.2257 -0.6348 -0.2688
 2879TIP3    H230053   4.398   0.429   2.011 -0.3113 -0.2732 -0.5730
 2880TIP3   OH230054   3.186   3.479   4.338  0.1805  0.1803  0.7525
 2880TIP3    H130055   3.147   3.564   4.320 -1.2595 -0.4494  0.7481
 2880TIP3    H230056   3.266   3.477   4.286 -1.4053  0.2738 -1.8249
 2881TIP3   OH230057   6.716   3.096  14.160 -0.6292  0.0055  0.1138
 2881TIP3    H130058   6.681   3.011  14.185  1.8513 -1.0518  0.3490
 2881TIP3    H230059   6.737   3.088  14.067  1.6109 -0.5047  0.5881
 2882TIP3   OH230060   5.212   2.246   0.200  0.3297  0.0829 -0.0562
 2882TIP3    H130061   5.245   2.182   0.136 -0.6412 -0.0838 -0.4122
 2882TIP3    H230062   5.182   2.320   0.146  1.8358  1.0375  0.3799
 2883TIP3   OH230063   4.212   4.071   4.326  0.3311  0.2298 -0.6043
 2883TIP3    H130064   4.130   4.044   4.367 -1.2450  2.6119 -1.9063
 2883TIP3    H230065   4.278   4.016   4.366 -2.1778 -4.0249 -1.6547
 2884TIP3   OH230066   6.019   2.156  15.408  0.0384  0.2783 -0.2284
 2884TIP3    H130067   5.947   2.197  15.455 -1.1486  0.0006 -1.7401
 2884TIP3    H230068   6.014   2.063  15.433  0.2942  0.3761  0.1874
 2885TIP3   OH230069   0.096   2.215  11.737 -0.2220 -0.0993  0.1152
 2885TIP3    H130070   0.007   2.240  11.711  0.2005  1.8052  0.3517
 2885TIP3    H230071   0.152   2.252  11.669  0.4124 -0.9997  0.1425
 2886TIP3   OH230072   2.827   4.967   3.985  0.2067  0.0810  0.3176
 2886TIP3    H130073   2.905   4.918   3.960 -0.5130 -1.2013  0.5327
 2886TIP3    H230074   2.820   4.953   4.080 -0.3022  0.1691  0.2933
 2887TIP3   OH230075   6.264   5.353  13.719  0.1527  0.1796  0.4713
 2887TIP3    H130076   6.317   5.391  13.649  0.6942 -0.5935  0.4499
 2887TIP3    H230077   6.327   5.304  13.773 -0.6281 -1.3900  0.0252
 2888TIP3   OH230078   6.352   3.949   4.773  0.1926  0.1814 -0.5893
 2888TIP3    H130079   6.351   3.893   4.695 -1.8208  0.8525 -1.1149
 2888TIP3    H230080   6.379   4.035   4.741 -1.2565  0.6159 -0.7117
 2889TIP3   OH230081   0.088   4.316   2.185 -0.4075  0.4003 -0.4107
 2889TIP3    H130082   0.109   4.356   2.101 -1.5592 -0.4968 -1.1524
 2889TIP3    H230083   0.001   4.350   2.207  0.0126  0.8819  0.6039
 2890TIP3   OH230084   2.670   5.150   2.340 -0.7588 -0.1203 -0.3726
 2890TIP3    H130085   2.754   5.109   2.360 -0.6227 -0.1842 -1.0594
 2890TIP3    H230086   2.692   5.240   2.317 -1.0055  0.2106  0.6144
 2891TIP3   OH230087   1.054   4.989  14.312  0.2038 -0.2972  0.2842
 2891TIP3    H130088   0.962   5.012  14.327 -0.5576 -3.4748  1.3919
 2891TIP3    H230089   1.104   5.057  14.358 -1.6580  0.4354  1.3456
 2892TIP3   OH230090   2.447   1.325   1.994 -0.0581 -0.2267  0.0017
 2892TIP3    H130091   2.372   1.293   1.943  0.2213  0.6111 -0.9787
 2892TIP3    H230092   2.517   1.263   1.975 -0.0618 -0.1258 -0.3548
 2893TIP3   OH230093   6.618   0.107  12.884 -0.1232  0.4402  0.0723
 2893TIP3    H130094   6.594   0.014  12.882 -1.1052  0.6771  0.2223
 2893TIP3    H230095   6.603   0.133  12.975  0.4554  0.6737  0.1043
 2894TIP3   OH230096   4.714   0.545   0.455 -0.1624 -0.0099 -0.4877
 2894TIP3    H130097   4.799   0.588   0.453  1.1830 -2.3348  1.4265
 2894TIP3    H230098   4.720   0.477   0.387  1.1326 -2.6995  2.0895
 2895TIP3   OH230099   0.511   5.010  16.175 -0.2524 -0.0309 -0.0751
 2895TIP3    H130100   0.451   5.079  16.200 -1.5482 -2.0823  3.0432
 2895TIP3    H230101   0.578   5.010  16.244  0.9222 -0.5588 -1.1690
 2896TIP3   OH230102   4.604   5.146   2.272 -0.2399 -0.0643  0.3790
 2896TIP3    H130103   4.554   5.111   2.346  1.0815 -1.4443  0.6682
 2896TIP3    H230104   4.649   5.070   2.236  1.7232  1.1292  0.1875
 2897TIP3   OH230105   2.700   0.388   0.001 -0.0471 -0.1924  0.1098
 2897TIP3    H130106   2.715   0.457   0.066 -0.5767  0.3554 -0.3375
 2897TIP3    H230107   2.783   0.384  -0.047  0.2427 -0.3909  0.6233
 2898TIP3   OH230108   5.013   2.662   4.493 -0.0736 -0.2195  0.1772
 2898TIP3    H130109   4.935   2.614   4.466  0.3190 -1.4284  1.1208
 2898TIP3    H230110   5.042   2.619   4.573  1.0263  0.8139  0.3719
 2899TIP3   OH230111   0.823   3.636   6.059  0.1895 -0.1673 -0.2068
 2899TIP3    H130112   0.904   3.684   6.076 -0.8767  1.0715  1.7140
 2899TIP3    H230113   0.754   3.692   6.095 -1.2104 -2.8196  1.5159
 2900TIP3   OH230114   4.295   0.443   3.429 -0.3791  0.5093  0.0991
 2900TIP3    H130115   4.353   0.510   3.392 -1.2739  0.9755 -0.5126
 2900TIP3    H230116   4.226   0.493   3.472 -1.2357 -0.0083 -0.6429
 2901TIP3   OH230117   2.333   6.727   0.812 -0.0549  0.1885  0.0965
 2901TIP3    H130118   2.384   6.654   0.778 -0.1147  0.1775  0.0287
 2901TIP3    H230119   2.262   6.686   0.862 -0.4315  0.1802 -0.4302
 2902TIP3   OH230120   4.959   4.507  12.925  0.2756 -0.4392 -1.0795
 2902TIP3    H130121   4.937   4.599  12.916  0.3459 -0.4618 -1.5035
 2902TIP3    H230122   4.897   4.473  12.989 -0.4000 -0.3149 -1.6517
 2903TIP3   OH230123   4.811   0.202   1.030  0.2454  0.0233  0.2219
 2903TIP3    H130124   4.800   0.117   1.073 -1.7635 -0.2188 -0.6296
 2903TIP3    H230125   4.737   0.254   1.062 -0.0079  0.5750 -1.1850
 2904TIP3   OH230126   4.650   5.987  15.659  0.0385 -1.0665  0.5431
 2904TIP3    H130127   4.707   5.947  15.725  0.8911  0.4298  0.7466
 2904TIP3    H230128   4.651   6.080  15.679 -1.7702 -0.8820 -0.0292
 2905TIP3   OH230129   3.844   4.946   5.289  0.3790 -0.1398  0.2021
 2905TIP3    H130130   3.790   4.880   5.333  0.2540  0.3668  0.8368
 2905TIP3    H230131   3.795   5.028   5.300  1.4105  0.3928  1.0864
 2906TIP3   OH230132   1.257   4.160  16.752 -0.0714  0.3674  0.2822
 2906TIP3    H130133   1.266   4.250  16.720  1.5015 -0.5478 -2.1431
 2906TIP3    H230134   1.343   4.137  16.786 -0.7485  0.0704  1.8989
 2907TIP3   OH230135   0.806   2.774  13.960 -0.3796 -0.1882  0.0179
 2907TIP3    H130136   0.895   2.777  13.927 -0.3823 -1.0552 -0.0856
 2907TIP3    H230137   0.754   2.743  13.886 -0.8165  0.5988 -0.0156
 2908TIP3   OH230138   0.224   0.295   6.128 -0.4154 -0.5325  0.3678
 2908TIP3    H130139   0.141   0.299   6.176 -0.3280 -2.9280  0.8685
 2908TIP3    H230140   0.256   0.385   6.127 -2.7849  0.3696  0.5616
 2909TIP3   OH230141   2.311   0.245   2.240  0.5282 -0.0612 -0.7890
 2909TIP3    H130142   2.388   0.202   2.276  1.3343  0.8006 -1.4608
 2909TIP3    H230143   2.275   0.295   2.313 -0.1946 -1.5205 -0.1049
 2910TIP3   OH230144   4.681   6.636   1.918  0.0889  0.1671 -0.0717
 2910TIP3    H130145   4.640   6.619   1.833 -0.6799 -1.3732  0.5572
 2910TIP3    H230146   4.657   6.726   1.939 -1.3909 -0.0687 -0.6201
 2911TIP3   OH230147   5.942   0.991  11.392 -0.1941  0.1373 -0.9105
 2911TIP3    H130148   5.930   0.896  11.385  3.2511 -0.7463  2.0935
 2911TIP3    H230149   5.995   1.014  11.316  1.3776 -0.9878 -0.2026
 2912TIP3   OH230150   4.070   1.259  12.754 -0.4353 -0.5397 -0.3633
 2912TIP3    H130151   4.097   1.168  12.769  1.2033 -0.2217 -1.1947
 2912TIP3    H230152   4.139   1.311  12.794 -1.2316  0.3432 -0.1309
 2913TIP3   OH230153   0.901   0.689   3.328 -0.2718  0.0418  0.0464
 2913TIP3    H130154   0.829   0.752   3.322  0.5941  1.2184  1.4219
 2913TIP3    H230155   0.970   0.736   3.376  0.3052 -2.0515  1.3834
 2914TIP3   OH230156   4.296   6.473  11.097 -0.1693 -0.4318  0.1411
 2914TIP3    H130157   4.226   6.533  11.069 -0.3478 -0.3136  0.8238
 2914TIP3    H230158   4.277   6.392  11.051 -0.4604 -0.2412 -0.0818
 2915TIP3   OH230159   2.780   3.648  15.555 -0.0641 -0.2493 -0.6823
 2915TIP3    H130160   2.767   3.665  15.648  2.3472 -0.0887 -0.3252
 2915TIP3    H230161   2.826   3.564  15.551 -0.9398 -0.7157 -1.8022
 2916TIP3   OH230162   5.986   3.529   6.656 -0.4210 -0.0901 -0.2695
 2916TIP3    H130163   5.967   3.441   6.688  1.9313 -0.1833  1.0802
 2916TIP3    H230164   5.974   3.585   6.732 -3.8564  1.2115 -1.5418
 2917TIP3   OH230165   1.373   3.322   0.810  0.0744 -0.2711 -0.7303
 2917TIP3    H130166   1.329   3.382   0.750 -1.4843 -1.4870 -0.8701
 2917TIP3    H230167   1.450   3.293   0.763 -0.4181 -0.1856 -1.6058
 2918TIP3   OH230168   5.327   3.238   0.566 -0.2742  0.4894 -0.4276
 2918TIP3    H130169   5.371   3.153   0.560  1.9532  1.5190  0.0161
 2918TIP3    H230170   5.366   3.279   0.644 -1.7032  1.7103 -0.3094
 2919TIP3   OH230171   5.269   3.102   3.277  0.4642 -0.6853  0.5346
 2919TIP3    H130172   5.186   3.118   3.321 -0.7854  0.8153 -2.1406
 2919TIP3    H230173   5.326   3.174   3.305  0.6141 -1.2405  1.7096
 2920TIP3   OH230174   4.408   6.076  12.241  0.2484 -0.1470 -0.1027
 2920TIP3    H130175   4.458   6.134  12.299  1.6391 -1.4841  0.0878
 2920TIP3    H230176   4.377   6.005  12.297  0.7700 -0.9372 -0.7864
 2921TIP3   OH230177   1.514   5.896  11.885 -0.4024 -0.3379 -0.0283
 2921TIP3    H130178   1.565   5.975  11.903 -0.3212  0.1150 -2.0558
 2921TIP3    H230179   1.569   5.825  11.916 -0.5484  0.3506  1.9928
 2922TIP3   OH230180   2.670   5.741   0.642  0.9017 -0.1200  0.2395
 2922TIP3    H130181   2.658   5.704   0.554  0.2026 -0.8163  0.6178
 2922TIP3    H230182   2.763   5.762   0.647  0.9541 -0.1032 -0.6579
 2923TIP3   OH230183   1.965   0.253   1.316  0.1303  0.0437 -0.0618
 2923TIP3    H130184   1.997   0.339   1.342 -1.1381  0.7530 -0.7313
 2923TIP3    H230185   2.027   0.223   1.250  0.1260  0.8196 -0.4274
 2924TIP3   OH230186   4.450   0.407  15.096  0.0261 -0.1460 -0.3639
 2924TIP3    H130187   4.540   0.391  15.121 -0.2063 -0.9148 -0.0034
 2924TIP3    H230188   4.407   0.434  15.177 -0.3943 -1.2157 -0.2133
 2925TIP3   OH230189   2.221   0.167  15.216  0.2213 -0.0870 -0.3743
 2925TIP3    H130190   2.233   0.154  15.310  0.7070 -1.3713 -0.5912
 2925TIP3    H230191   2.302   0.209  15.188  0.7925 -1.1940 -0.4633
 2926TIP3   OH230192   2.881   0.483  16.147 -0.2127 -0.2487  0.0513
 2926TIP3    H130193   2.901   0.402  16.100  0.5462 -1.0750  1.6865
 2926TIP3    H230194   2.788   0.476  16.168  0.0067 -1.0966  0.8291
 2927TIP3   OH230195   4.588   5.039  14.463  0.1181 -0.0928 -0.6565
 2927TIP3    H130196   4.498   5.073  14.470 -0.1800 -0.8567 -0.6793
 2927TIP3    H230197   4.616   5.064  14.375  0.5652  1.6245 -0.0735
 2928TIP3   OH230198   1.415   2.978  16.943 -0.4901 -0.2336 -0.2849
 2928TIP3    H130199   1.342   3.000  16.885 -0.5827  0.0779 -0.0503
 2928TIP3    H230200   1.394   3.022  17.026  0.0101 -0.0673 -0.2469
 2929TIP3   OH230201   2.234   0.665   6.087  0.3283  0.3157  0.5470
 2929TIP3    H130202   2.286   0.710   6.153 -1.2986  4.1599 -0.5388
 2929TIP3    H230203   2.147   0.701   6.096 -1.0161 -2.2455 -0.9582
 2930TIP3   OH230204   2.807   6.109   2.157  0.2478 -0.3383  0.2758
 2930TIP3    H130205   2.887   6.101   2.209  0.4779 -0.7015 -0.1269
 2930TIP3    H230206   2.803   6.202   2.135  1.1184 -0.4775 -0.5600
 2931TIP3   OH230207   4.669   1.459  16.656 -0.2146 -0.0700 -0.2281
 2931TIP3    H130208   4.700   1.549  16.646 -3.1714  1.0635 -0.1657
 2931TIP3    H230209   4.616   1.443  16.577 -0.9164 -1.1976  0.4436
 2932TIP3   OH230210   2.511   2.954   3.320 -0.3954  0.7844 -0.1908
 2932TIP3    H130211   2.560   3.036   3.316  1.0831 -0.0229  0.6192
 2932TIP3    H230212   2.545   2.902   3.248  0.3656  0.0100  0.7056
 2933TIP3   OH230213   2.056   3.129  14.765 -0.3176  0.3557 -0.0149
 2933TIP3    H130214   2.057   3.054  14.706 -0.4395 -0.3499  0.8640
 2933TIP3    H230215   2.039   3.092  14.852  1.0256  1.2424  0.6668
 2934TIP3   OH230216   0.421   2.853  12.273  0.4423  0.1295  0.2675
 2934TIP3    H130217   0.421   2.915  12.346  0.5202  0.7825 -0.2757
 2934TIP3    H230218   0.430   2.908  12.195  0.3797 -0.5590 -0.2342
 2935TIP3   OH230219   0.506   1.061  11.528  0.1650 -0.2761 -0.4874
 2935TIP3    H130220   0.464   1.131  11.478  1.5496  0.3830 -0.7709
 2935TIP3    H230221   0.554   1.010  11.463 -0.1760 -1.0166 -0.1721
 2936TIP3   OH230222   4.189   2.659   0.601 -0.1606  0.6280  0.0181
 2936TIP3    H130223   4.156   2.704   0.524 -0.6572  0.3078  0.0426
 2936TIP3    H230224   4.224   2.729   0.656  1.2229  0.7653 -0.9736
 2937TIP3   OH230225   2.670   3.181   2.649  0.0671  0.4430  0.4944
 2937TIP3    H130226   2.635   3.096   2.623 -0.6275  1.0370 -0.6271
 2937TIP3    H230227   2.610   3.244   2.609  1.6955  1.4886 -0.4282
 2938TIP3   OH230228   0.191   5.831  14.848 -0.0758 -0.6527 -0.0394
 2938TIP3    H130229   0.105   5.834  14.890 -1.4690 -0.9942 -2.6561
 2938TIP3    H230230   0.247   5.884  14.905 -2.3787  0.9321  0.9247
 2939TIP3   OH230231   3.428   1.000   1.585 -0.0142  0.1676 -0.1163
 2939TIP3    H130232   3.363   0.957   1.640 -1.3753  3.4897  1.1549
 2939TIP3    H230233   3.379   1.030   1.508  0.7021  0.0659 -0.6231
 2940TIP3   OH230234   6.302   3.844   5.567  0.0697 -0.8677 -0.3265
 2940TIP3    H130235   6.377   3.797   5.606  0.4004  0.2709  0.4668
 2940TIP3    H230236   6.239   3.852   5.639 -0.4518 -1.0554 -0.7573
 2941TIP3   OH230237   6.528   0.839   5.688 -0.2914  0.7878 -0.6332
 2941TIP3    H130238   6.542   0.905   5.756  1.1024  1.2595 -1.3677
 2941TIP3    H230239   6.499   0.761   5.737  0.9212  1.0432  0.5400
 2942TIP3   OH230240   3.672   2.305  12.397 -0.4046 -0.5904 -0.1838
 2942TIP3    H130241   3.687   2.236  12.461 -0.8169 -1.4223 -0.9613
 2942TIP3    H230242   3.661   2.259  12.313  0.4005  0.4888 -0.9139
 2943TIP3   OH230243   1.582   6.031   2.200  0.2673 -0.2033 -0.0541
 2943TIP3    H130244   1.575   6.005   2.292 -0.3265  1.9725  0.5727
 2943TIP3    H230245   1.670   6.003   2.174  0.7496 -0.1512  1.4246
 2944TIP3   OH230246   1.433   0.820  14.920  0.3803 -0.1606 -0.2496
 2944TIP3    H130247   1.507   0.879  14.936  0.6413 -0.4928 -0.2224
 2944TIP3    H230248   1.390   0.812  15.005 -0.0571  0.5250 -0.4002
 2945TIP3   OH230249   0.316   3.737   5.994 -0.0597  0.3461 -0.1694
 2945TIP3    H130250   0.293   3.672   5.927  2.0729 -0.5455 -0.1198
 2945TIP3    H230251   0.232   3.764   6.031 -1.1258 -1.0748 -1.4109
 2946TIP3   OH230252   3.604   2.374   1.099  0.2086  0.0930  0.2682
 2946TIP3    H130253   3.634   2.300   1.152 -0.4010 -0.6983 -0.4841
 2946TIP3    H230254   3.623   2.451   1.154  2.9717 -0.3809  0.1290
 2947TIP3   OH230255   1.819   4.252   2.852 -0.0105 -0.8944  0.0312
 2947TIP3    H130256   1.873   4.213   2.921 -0.1006  0.0442  0.6429
 2947TIP3    H230257   1.848   4.343   2.846 -1.0774 -0.5435 -0.0819
 2948TIP3   OH230258   3.175   5.290   1.098 -0.4365 -0.0495  0.7191
 2948TIP3    H130259   3.228   5.320   1.024  1.0681 -2.1164  0.8675
 2948TIP3    H230260   3.102   5.244   1.059  0.2912 -1.0323  0.4864
 2949TIP3   OH230261   4.546   6.586  16.472  0.1599 -0.3023 -0.1373
 2949TIP3    H130262   4.602   6.581  16.549  1.4717 -2.3769 -1.1532
 2949TIP3    H230263   4.537   6.680  16.455  0.3959  0.1780  2.0945
 2950TIP3   OH230264   3.023   3.529   3.663 -0.6758 -0.5025  0.2324
 2950TIP3    H130265   2.954   3.463   3.670 -0.5285 -0.5928  0.8991
 2950TIP3    H230266   3.063   3.532   3.750 -0.5808  0.3639  0.1719
 2951TIP3   OH230267   5.699   0.506  16.383 -0.5966 -0.4559 -0.4302
 2951TIP3    H130268   5.619   0.475  16.341 -0.8054  0.4550 -0.7248
 2951TIP3    H230269   5.698   0.600  16.370 -0.1906 -0.2629  0.8272
 2952TIP3   OH230270   3.792   5.985   1.333  0.0540  0.2383 -0.1330
 2952TIP3    H130271   3.867   5.933   1.362  0.5367  1.2140  0.4191
 2952TIP3    H230272   3.720   5.955   1.388  0.0207 -0.7100 -0.6702
 2953TIP3   OH230273   3.198   5.062   2.207  0.6142 -0.6319 -0.2611
 2953TIP3    H130274   3.204   5.130   2.139  1.9753  0.9441  1.3485
 2953TIP3    H230275   3.131   5.002   2.174 -0.6452  1.4624 -1.7844
 2954TIP3   OH230276   3.522   0.048  16.143 -0.1408 -0.1149 -0.4239
 2954TIP3    H130277   3.481   0.107  16.079  3.5597 -0.2635 -3.2801
 2954TIP3    H230278   3.502  -0.040  16.111  1.2765 -0.2017 -1.1287
 2955TIP3   OH230279   0.897   0.208  11.636 -0.1602  0.0782  0.1401
 2955TIP3    H130280   0.912   0.244  11.724  0.2851 -0.5133  0.3127
 2955TIP3    H230281   0.979   0.225  11.589  0.3646 -1.4205  0.4745
 2956TIP3   OH230282   6.744   6.586  11.476  0.0321 -0.1003  0.0208
 2956TIP3    H130283   6.826   6.541  11.455 -0.5525 -0.3345 -1.9333
 2956TIP3    H230284   6.676   6.528  11.444 -0.7630  1.8541 -2.0977
 2957TIP3   OH230285   4.470   0.275  14.200  0.2579  0.7348  0.4148
 2957TIP3    H130286   4.406   0.341  14.175  0.6643  0.6545 -0.8753
 2957TIP3    H230287   4.517   0.315  14.273 -0.6776  1.1337  0.8283
 2958TIP3   OH230288   0.760   3.579  15.292  0.5646 -0.3337  0.0818
 2958TIP3    H130289   0.794   3.634  15.363 -0.5049  0.1204  0.2632
 2958TIP3    H230290   0.666   3.598  15.289  0.6682  0.1114 -1.8655
 2959TIP3   OH230291   5.822   2.561  11.507  0.1373  0.0654 -0.1127
 2959TIP3    H130292   5.888   2.530  11.445  1.7548 -0.8748  1.9780
 2959TIP3    H230293   5.794   2.483  11.554 -0.0155  0.9275  1.2793
 2960TIP3   OH230294   0.653   4.742  16.708  0.3681 -0.1864 -0.2092
 2960TIP3    H130295   0.567   4.759  16.746  0.2364  0.5584 -0.8102
 2960TIP3    H230296   0.700   4.825  16.719  1.3812 -0.8774  1.0291
 2961TIP3   OH230297   1.865   3.763  13.478 -0.2044  0.0043  0.1361
 2961TIP3    H130298   1.782   3.798  13.445 -0.7480  0.8307  2.2195
 2961TIP3    H230299   1.932   3.810  13.430 -0.8686 -1.2434 -2.1689
 2962TIP3   OH230300   1.975   6.075  11.350 -0.2249  0.1508  0.1058
 2962TIP3    H130301   1.914   6.088  11.422 -0.1382 -3.0436  0.9319
 2962TIP3    H230302   2.061   6.086  11.389 -0.2037  0.6497 -0.0760
 2963TIP3   OH230303   0.838   2.020   2.751  0.6439 -0.0225 -0.4443
 2963TIP3    H130304   0.857   2.069   2.672  0.0195 -0.9949 -1.2243
 2963TIP3    H230305   0.917   1.969   2.768  0.9016  0.4419 -0.2453
 2964TIP3   OH230306   2.487   1.873  12.322 -0.3577 -0.1064  0.1612
 2964TIP3    H130307   2.481   1.961  12.283  1.6587 -0.1050 -0.2489
 2964TIP3    H230308   2.469   1.813  12.250  0.1215 -0.0508 -0.0063
 2965TIP3   OH230309   1.097   2.269   3.426 -0.5426 -0.4211  0.0022
 2965TIP3    H130310   1.132   2.225   3.504 -0.7863 -0.8801 -0.1417
 2965TIP3    H230311   1.072   2.197   3.367  0.2008 -0.0670 -0.7550
 2966TIP3   OH230312   4.584   0.033  11.235  0.2200  0.0271  0.2391
 2966TIP3    H130313   4.569   0.010  11.143  0.0304 -0.0158  0.2814
 2966TIP3    H230314   4.511   0.089  11.259  1.8955  2.7131 -0.5587
 2967TIP3   OH230315   4.224   5.556  12.741 -0.1133 -0.1270  0.5098
 2967TIP3    H130316   4.213   5.569  12.647 -0.7693 -3.4819 -0.0127
 2967TIP3    H230317   4.313   5.587  12.760  0.3538 -0.2065 -1.4027
 2968TIP3   OH230318   3.933   1.708   4.978  0.1162 -0.0024 -0.6563
 2968TIP3    H130319   3.859   1.650   4.999 -1.2349  0.7737 -2.8732
 2968TIP3    H230320   3.994   1.696   5.051 -2.0564 -0.8888  1.1717
 2969TIP3   OH230321   5.528   4.676   1.017 -0.8276 -0.3040  0.0558
 2969TIP3    H130322   5.553   4.684   1.109 -1.4973 -0.8335  0.2937
 2969TIP3    H230323   5.437   4.705   1.014 -0.4186  1.0099 -0.6852
 2970TIP3   OH230324   1.092   6.678  12.586 -0.1081 -0.1268 -0.6695
 2970TIP3    H130325   1.115   6.587  12.570 -0.9386 -0.0500 -2.4709
 2970TIP3    H230326   0.997   6.682  12.570 -0.2665  0.8696  0.3377
 2971TIP3   OH230327   2.058   5.539  17.203 -0.6325 -0.4266 -0.1016
 2971TIP3    H130328   1.991   5.567  17.141 -0.7565 -1.0506 -0.2616
 2971TIP3    H230329   2.141   5.552  17.156 -0.7274 -0.9159 -0.4139
 2972TIP3   OH230330   5.984   5.047   6.822 -0.2900  0.4928 -0.0453
 2972TIP3    H130331   5.978   5.118   6.885 -0.9009 -0.8909  1.5087
 2972TIP3    H230332   6.074   5.051   6.789  0.5456  0.3179  2.0799
 2973TIP3   OH230333   1.951   1.416  10.627  0.1660 -0.3806  0.2533
 2973TIP3    H130334   1.979   1.474  10.557  3.0676  0.0947  1.6393
 2973TIP3    H230335   1.900   1.472  10.686  0.8842  0.1629  0.3683
 2974TIP3   OH230336   3.951   4.454  13.646 -0.6065 -0.8158 -0.6416
 2974TIP3    H130337   3.968   4.546  13.624 -2.4336 -0.0548  0.7929
 2974TIP3    H230338   3.869   4.434  13.601 -0.0897 -1.8487 -1.1472
 2975TIP3   OH230339   0.695   5.907  14.203 -0.3468  0.7008  0.1381
 2975TIP3    H130340   0.778   5.921  14.249 -1.1166  0.7783  1.5508
 2975TIP3    H230341   0.628   5.920  14.270 -1.4649 -0.5891 -0.6874
 2976TIP3   OH230342   4.561   6.407  17.214  0.2113  0.1879 -0.0338
 2976TIP3    H130343   4.652   6.381  17.203 -0.0014  0.1206 -1.8248
 2976TIP3    H230344   4.512   6.349  17.156 -0.8234  1.2050 -0.2171
 2977TIP3   OH230345   2.328   0.448  16.181 -0.3195 -0.2154 -0.0766
 2977TIP3    H130346   2.287   0.383  16.238 -0.4721 -1.7542 -1.8437
 2977TIP3    H230347   2.259   0.472  16.118  0.2305  0.4088 -0.4581
 2978TIP3   OH230348   6.175   3.069   1.894 -0.2819  0.3742 -0.1004
 2978TIP3    H130349   6.232   3.091   1.820  0.9681  1.5348  1.1582
 2978TIP3    H230350   6.088   3.097   1.865 -0.1295 -0.7242 -1.7509
 2979TIP3   OH230351   5.030   1.272  10.726 -0.0520  0.7702 -0.3530
 2979TIP3    H130352   5.124   1.255  10.731 -0.4365 -1.3074  0.5321
 2979TIP3    H230353   4.989   1.197  10.768 -2.1611  1.2175 -1.4688
 2980TIP3   OH230354   3.205   1.378  14.071  0.4897 -0.2535 -0.2760
 2980TIP3    H130355   3.125   1.329  14.091  1.1507 -1.4218 -0.3890
 2980TIP3    H230356   3.185   1.468  14.097 -0.4497 -0.7496  0.8342
 2981TIP3   OH230357   4.425   6.305  12.445 -0.2113 -0.8042  0.3745
 2981TIP3    H130358   4.364   6.237  12.474 -0.6864 -0.6343 -0.2124
 2981TIP3    H230359   4.404   6.381  12.500  2.1518 -1.8706  3.0085
 2982TIP3   OH230360   0.634   5.817  16.435  0.1725 -0.1798 -0.0961
 2982TIP3    H130361   0.703   5.814  16.501 -0.5202 -3.0358  0.6384
 2982TIP3    H230362   0.679   5.832  16.353  1.6834 -1.6845  0.4076
 2983TIP3   OH230363   0.038   1.077   1.800  0.1898 -0.0400 -0.4526
 2983TIP3    H130364   0.075   1.164   1.785 -0.6418  0.3312 -0.4293
 2983TIP3    H230365   0.087   1.019   1.742  1.4365  0.2633  0.2623
 2984TIP3   OH230366   0.201   6.559   5.974  0.2404  0.6498  0.0092
 2984TIP3    H130367   0.221   6.647   6.005 -0.0657  0.3005  1.2238
 2984TIP3    H230368   0.172   6.572   5.883 -1.0098  1.9672  0.5575
 2985TIP3   OH230369   2.928   3.501  12.098  0.1268  0.5544 -0.5799
 2985TIP3    H130370   2.974   3.553  12.165  1.4944 -1.4378  0.1361
 2985TIP3    H230371   2.848   3.471  12.141  0.5393  0.0673 -0.1354
 2986TIP3   OH230372   3.180   3.266  12.326  0.3543  0.3334 -0.1552
 2986TIP3    H130373   3.206   3.183  12.366 -3.2356 -0.0273  1.9002
 2986TIP3    H230374   3.215   3.261  12.237 -1.1606 -4.3463 -0.8010
 2987TIP3   OH230375   5.256   1.097   3.277  0.1453  0.1199  0.4537
 2987TIP3    H130376   5.327   1.136   3.225 -2.0633  2.0861 -1.3171
 2987TIP3    H230377   5.245   1.158   3.351  0.5605 -0.4286  0.9767
 2988TIP3   OH230378   5.115   0.055  12.887 -0.3404 -0.0680  0.4025
 2988TIP3    H130379   5.123   0.111  12.964  0.6055 -0.5908  0.7058
 2988TIP3    H230380   5.069  -0.023  12.919  0.1012 -0.3087  0.4620
 2989TIP3   OH230381   4.506   0.511  16.355 -0.0673  0.2796  0.1468
 2989TIP3    H130382   4.568   0.464  16.300  0.4663  0.1987  0.8000
 2989TIP3    H230383   4.545   0.507  16.443 -1.4018 -0.5061  0.7281
 2990TIP3   OH230384   3.455   5.642  14.716  0.2378 -0.3035  0.1424
 2990TIP3    H130385   3.498   5.667  14.798 -0.8085  1.2189  0.2702
 2990TIP3    H230386   3.365   5.619  14.742  0.7377 -3.0574 -0.1690
 2991TIP3   OH230387   2.954   5.350  13.443  0.0089 -0.2591  0.2188
 2991TIP3    H130388   3.013   5.410  13.489  0.6016  0.7922 -1.7996
 2991TIP3    H230389   3.004   5.321  13.366 -0.8231 -2.2114  0.3400
 2992TIP3   OH230390   3.248   5.141   3.845  0.1755 -0.8009 -0.0034
 2992TIP3    H130391   3.158   5.173   3.835  0.7639  1.5491  1.5463
 2992TIP3    H230392   3.238   5.053   3.883 -1.4696 -0.1899  1.0826
 2993TIP3   OH230393   0.306   3.538   2.076 -0.5282  0.2484 -0.3660
 2993TIP3    H130394   0.269   3.625   2.090 -0.4095  0.1422  0.7257
 2993TIP3    H230395   0.376   3.531   2.141  0.0502 -0.3341 -1.0320
 2994TIP3   OH230396   0.108   1.387  16.595 -0.7498  0.1826 -0.1678
 2994TIP3    H130397   0.037   1.355  16.651 -0.2634 -0.4806  0.0775
 2994TIP3    H230398   0.188   1.364  16.641 -0.3630  1.1387 -0.3280
 2995TIP3   OH230399   4.464   2.546  12.960  0.3471 -0.3589 -0.0997
 2995TIP3    H130400   4.459   2.458  12.922 -2.7374 -0.3791  0.0679
 2995TIP3    H230401   4.459   2.532  13.055  0.5576 -0.0234 -0.0365
 2996TIP3   OH230402   4.863   0.948   2.885 -0.2179  0.3464 -0.0512
 2996TIP3    H130403   4.853   0.857   2.913  0.9509  0.0369 -0.5862
 2996TIP3    H230404   4.902   0.992   2.961  0.8080  0.0086 -0.3618
 2997TIP3   OH230405   0.945   1.511  16.645 -0.2332  0.0895 -0.0734
 2997TIP3    H130406   0.868   1.488  16.593  1.0144 -0.7282 -1.6361
 2997TIP3    H230407   0.912   1.517  16.735 -2.2325  0.4276 -0.7820
 2998TIP3   OH230408   1.569   3.778  17.142 -0.3295  0.4787 -0.0090
 2998TIP3    H130409   1.627   3.854  17.144 -0.3524  0.4869  0.8695
 2998TIP3    H230410   1.616   3.713  17.089 -1.0169  1.6362 -2.1250
 2999TIP3   OH230411   3.856   0.864   5.437  0.3864 -0.1798 -0.1541
 2999TIP3    H130412   3.811   0.809   5.373 -0.1509 -1.8429  1.5602
 2999TIP3    H230413   3.949   0.849   5.420  0.2521 -1.6116  0.2224
 3000TIP3   OH230414   3.535   0.413   1.930 -0.0914  0.2144  0.1520
 3000TIP3    H130415   3.476   0.339   1.914  0.6873 -0.4274  0.1822
 3000TIP3    H230416   3.484   0.472   1.986 -1.7662  1.0726 -2.0939
 3001TIP3   OH230417   4.834   4.502   4.434 -0.0733  0.3273 -0.2770
 3001TIP3    H130418   4.805   4.418   4.400  1.7366 -0.2937 -0.4044
 3001TIP3    H230419   4.907   4.527   4.378  0.6168  1.0806  0.8965
 3002TIP3   OH230420   5.037   5.521   5.563  0.1827  0.1046  0.6662
 3002TIP3    H130421   5.037   5.544   5.470 -0.9956 -0.5071  0.4908
 3002TIP3    H230422   5.035   5.604   5.609 -3.3301  0.4756  0.0708
 3003TIP3   OH230423   6.022   6.545   6.252  0.2730 -0.3257 -0.5688
 3003TIP3    H130424   5.973   6.471   6.215 -1.3235 -0.6538  1.9409
 3003TIP3    H230425   6.004   6.541   6.346  2.1782  1.8119 -0.0250
 3004TIP3   OH230426   1.434   1.510  15.735 -0.1297  0.0787  0.1496
 3004TIP3    H130427   1.437   1.567  15.658 -1.2518  0.8748  0.6567
 3004TIP3    H230428   1.350   1.466  15.729 -0.6985  0.9243  1.4241
 3005TIP3   OH230429   5.384   5.390  14.988  0.0548 -0.1320 -0.1773
 3005TIP3    H130430   5.372   5.299  15.017 -0.3814 -0.0473 -0.0892
 3005TIP3    H230431   5.298   5.416  14.955  0.4210 -0.0594 -1.0863
 3006TIP3   OH230432   5.423   4.924   2.945  0.5062  0.1729  0.0050
 3006TIP3    H130433   5.342   4.975   2.945  0.0377 -0.3330 -3.1244
 3006TIP3    H230434   5.413   4.862   3.017 -1.5741  0.6048  0.1481
 3007TIP3   OH230435   3.183   4.369  10.527 -0.1062  0.1980  0.4296
 3007TIP3    H130436   3.154   4.318  10.451  0.1899  1.9181 -0.9032
 3007TIP3    H230437   3.278   4.356  10.528  0.1623  1.6972 -0.7506
 3008TIP3   OH230438   6.180   3.617   1.622 -0.1121  0.1966  0.2736
 3008TIP3    H130439   6.086   3.622   1.604 -0.1808  3.4125  0.9362
 3008TIP3    H230440   6.189   3.543   1.682 -2.2252 -0.1607  0.2278
 3009TIP3   OH230441   4.702   1.229   5.457 -0.2931 -0.0488 -0.4933
 3009TIP3    H130442   4.664   1.142   5.468 -1.9123  0.8191  1.3448
 3009TIP3    H230443   4.635   1.279   5.411 -0.0524  0.6320 -0.1252
 3010TIP3   OH230444   1.700   5.039   5.885 -0.6825  0.1426  0.1617
 3010TIP3    H130445   1.789   5.038   5.850  0.2658  2.3814  2.1995
 3010TIP3    H230446   1.708   5.084   5.969 -3.4670 -1.2869  1.3226
 3011TIP3   OH230447   1.603   1.542  14.371 -0.5157 -0.4399  0.1407
 3011TIP3    H130448   1.628   1.557  14.462 -0.3442 -0.0282  0.0253
 3011TIP3    H230449   1.508   1.550  14.371 -0.4098  0.9465  0.0313
 3012TIP3   OH230450   3.079   5.833  15.913  0.6492 -0.0920  0.6679
 3012TIP3    H130451   3.101   5.795  15.998 -2.1709  1.5823  2.2860
 3012TIP3    H230452   3.034   5.915  15.934 -0.1764  0.3877 -2.4665
 3013TIP3   OH230453   3.191   6.200   3.425 -0.0303 -0.3588 -0.1946
 3013TIP3    H130454   3.268   6.247   3.455  0.0026 -0.0632 -0.7356
 3013TIP3    H230455   3.225   6.119   3.388  0.2674  0.7602 -2.5376
 3014TIP3   OH230456   0.663   1.197   6.389 -0.5692  0.6069 -0.4111
 3014TIP3    H130457   0.672   1.205   6.484  1.6209  1.0920 -0.6007
 3014TIP3    H230458   0.614   1.275   6.363 -0.8187  0.6849  0.2688
 3015TIP3   OH230459   3.832   1.309   2.927  0.0282 -0.1987 -0.0895
 3015TIP3    H130460   3.919   1.290   2.961 -0.3366  0.9876  1.6421
 3015TIP3    H230461   3.845   1.323   2.833  1.1942 -2.8774 -0.3959
 3016TIP3   OH230462   6.401   2.881  13.285  0.6948  0.0745  0.4000
 3016TIP3    H130463   6.343   2.948  13.248  2.2927  0.6786 -1.1746
 3016TIP3    H230464   6.359   2.855  13.366 -1.8233  0.3936 -0.7131
 3017TIP3   OH230465   1.973   4.924   3.470 -0.6003  0.1263 -0.2818
 3017TIP3    H130466   1.983   5.011   3.507 -0.1339 -0.1051  0.1517
 3017TIP3    H230467   2.055   4.879   3.490 -1.4156 -0.9137  0.9013
 3018TIP3   OH230468   5.817   0.750  13.436  0.4174  0.2960 -0.1416
 3018TIP3    H130469   5.733   0.708  13.417  0.4259  0.3122 -0.2153
 3018TIP3    H230470   5.880   0.701  13.383  0.3577  0.7086 -0.5999
 3019TIP3   OH230471   1.345   2.482   0.022  0.3178 -0.3655  0.2182
 3019TIP3    H130472   1.289   2.503   0.097 -0.0802 -1.1015  0.1316
 3019TIP3    H230473   1.363   2.566  -0.019 -0.0129 -0.0306  0.7498
 3020TIP3   OH230474   3.141   1.664  16.142 -0.7518 -0.4186 -0.6162
 3020TIP3    H130475   3.100   1.750  16.136  0.9477  0.4979  0.0556
 3020TIP3    H230476   3.152   1.636  16.052  0.9948  1.2815 -1.0004
 3021TIP3   OH230477   6.711   5.334   0.202  0.5263  0.2122  0.2692
 3021TIP3    H130478   6.743   5.394   0.134  1.6831  0.6233  1.1323
 3021TIP3    H230479   6.786   5.324   0.262 -0.1918 -0.7926  1.0343
 3022TIP3   OH230480   3.081   2.489  15.483  0.4070  0.3145 -0.0686
 3022TIP3    H130481   3.138   2.548  15.434 -1.5826  0.7964 -1.9464
 3022TIP3    H230482   3.040   2.544  15.550  1.2294  0.2086  0.5465
 3023TIP3   OH230483   4.266   0.177  12.682 -0.3478 -0.0602  0.9557
 3023TIP3    H130484   4.345   0.145  12.726 -0.3981 -1.8466 -0.1628
 3023TIP3    H230485   4.241   0.255  12.731  2.6304  1.1228  0.7589
 3024TIP3   OH230486   5.848   3.242  16.604 -0.0215 -0.6951  0.2854
 3024TIP3    H130487   5.924   3.298  16.619  1.3476 -2.7631  1.6845
 3024TIP3    H230488   5.848   3.224  16.510  0.2145  0.6322  0.0164
 3025TIP3   OH230489   1.682   6.200   3.378 -0.9279 -0.1297 -0.2378
 3025TIP3    H130490   1.743   6.131   3.353 -1.9027 -0.8496 -0.6927
 3025TIP3    H230491   1.715   6.232   3.462  1.1256  0.7851 -1.3369
 3026TIP3   OH230492   1.897   3.237  11.023  0.1598  0.0786  0.6094
 3026TIP3    H130493   1.934   3.158  10.985  0.3223  0.3050  0.2929
 3026TIP3    H230494   1.858   3.284  10.949 -0.8996 -0.2207  0.9480
 3027TIP3   OH230495   0.886   4.786  16.510 -0.8030 -0.3389 -0.4934
 3027TIP3    H130496   0.870   4.707  16.560 -0.6988  0.5290  0.9566
 3027TIP3    H230497   0.891   4.756  16.419 -2.2512 -1.7690 -0.1369
 3028TIP3   OH230498   5.061   1.999   0.520  0.0960  0.1851 -0.5303
 3028TIP3    H130499   5.153   2.026   0.511  0.6647 -2.0461 -2.2927
 3028TIP3    H230500   5.011   2.070   0.479  0.9916  1.3857  0.3752
 3029TIP3   OH230501   4.551   3.260  11.067  0.2610  0.0517  0.1030
 3029TIP3    H130502   4.606   3.201  11.118 -0.5032  0.3201  1.2836
 3029TIP3    H230503   4.464   3.252  11.107 -0.6703 -0.6049 -1.9093
 3030TIP3   OH230504   5.276   3.091  16.992  0.4275 -0.4839  0.3051
 3030TIP3    H130505   5.355   3.068  17.040  0.9382 -0.9551 -0.7120
 3030TIP3    H230506   5.306   3.154  16.926 -0.3771  0.6707  1.0139
 3031TIP3   OH230507   4.898   5.033  13.412 -0.1189  0.4405  0.1093
 3031TIP3    H130508   4.811   5.022  13.373 -0.7606  2.0765  1.0150
 3031TIP3    H230509   4.932   4.944  13.420 -1.8099 -0.2493 -0.0384
 3032TIP3   OH230510   5.641   4.123   5.490 -0.4351  0.1731  0.0474
 3032TIP3    H130511   5.693   4.187   5.538 -0.2189  0.4609 -0.5646
 3032TIP3    H230512   5.577   4.175   5.442 -1.8851 -0.2257  1.4667
 3033TIP3   OH230513   5.308   5.386   0.525 -0.0648  0.7764  0.6389
 3033TIP3    H130514   5.335   5.329   0.597 -1.8248  1.1736  1.6791
 3033TIP3    H230515   5.226   5.347   0.494 -0.5737  1.9630  0.4551
 3034TIP3   OH230516   2.779   5.833  16.089 -0.1094  0.3155 -0.0833
 3034TIP3    H130517   2.825   5.882  16.157  0.1800  0.6394 -0.5054
 3034TIP3    H230518   2.690   5.870  16.090  0.4103  1.6881 -1.1780
 3035TIP3   OH230519   3.740   3.791  14.611 -0.2450 -0.1791  0.0979
 3035TIP3    H130520   3.811   3.762  14.554 -1.7491 -0.1923 -1.8560
 3035TIP3    H230521   3.745   3.886  14.609 -0.9953 -0.1494 -1.0267
 3036TIP3   OH230522   4.295   6.708   6.337  0.1748  0.4383  0.2830
 3036TIP3    H130523   4.377   6.690   6.382  0.1668 -0.2288  0.0495
 3036TIP3    H230524   4.239   6.748   6.404  0.8118  1.2474  0.3371
 3037TIP3   OH230525   3.623   0.078  15.001  0.2356 -0.2970 -0.0298
 3037TIP3    H130526   3.709   0.064  15.040  0.2770  1.2911  0.5205
 3037TIP3    H230527   3.640   0.136  14.927 -0.3670  0.1621  0.1855
 3038TIP3   OH230528   5.456   4.902   0.534  0.3932 -0.3458 -0.2657
 3038TIP3    H130529   5.462   4.807   0.544 -2.0557 -0.9324 -2.9743
 3038TIP3    H230530   5.412   4.932   0.613  0.7800 -1.5112  0.4089
 3039TIP3   OH230531   4.440   1.958   3.496  0.1617 -0.1768 -0.4711
 3039TIP3    H130532   4.485   1.978   3.579  2.0903 -0.7804 -1.3098
 3039TIP3    H230533   4.411   2.044   3.464  0.7388  0.2459  0.1060
 3040TIP3   OH230534   6.076   0.037  11.458 -0.1436 -0.1538  0.4496
 3040TIP3    H130535   6.007  -0.003  11.511 -0.0411  0.0377  0.7290
 3040TIP3    H230536   6.122  -0.037  11.418  0.0910 -0.3170  1.0181
 3041TIP3   OH230537   5.304   6.476   5.817 -0.0169 -0.4302 -0.7363
 3041TIP3    H130538   5.379   6.449   5.765 -0.2827 -0.8452 -0.9107
 3041TIP3    H230539   5.313   6.427   5.899  0.3100  0.0944 -0.4550
 3042TIP3   OH230540   0.427   5.026  15.852 -0.0067 -0.1287 -0.0449
 3042TIP3    H130541   0.357   5.084  15.883  0.7489  0.8877 -0.1821
 3042TIP3    H230542   0.468   4.993  15.932  0.5647  0.7936  0.0604
 3043TIP3   OH230543   5.916   1.779  11.459  0.1881  0.6258 -0.0529
 3043TIP3    H130544   5.884   1.716  11.524 -1.2404  1.0830 -0.2708
 3043TIP3    H230545   5.974   1.729  11.403 -0.8376 -0.4816 -0.1613
 3044TIP3   OH230546   2.521   2.696   5.378  0.1114  0.3933 -0.0834
 3044TIP3    H130547   2.450   2.632   5.377  0.9063 -0.5150 -0.1672
 3044TIP3    H230548   2.540   2.713   5.286  1.0266 -0.5623 -0.0898
 3045TIP3   OH230549   0.266   0.214  11.723 -0.2401  0.4342 -0.2002
 3045TIP3    H130550   0.353   0.254  11.716  1.0304 -2.1678 -0.4057
 3045TIP3    H230551   0.234   0.241  11.809  0.8090  1.3568 -0.0849
 3046TIP3   OH230552   2.766   5.975   4.825 -0.0086  0.1124  0.4282
 3046TIP3    H130553   2.770   6.044   4.758  1.4783  0.2438  0.6195
 3046TIP3    H230554   2.815   5.902   4.787 -2.7929 -1.4675 -0.3976
 3047TIP3   OH230555   3.952   0.441  13.215 -0.6156 -0.1189 -0.1048
 3047TIP3    H130556   3.938   0.361  13.264 -0.4744 -0.6188 -0.8618
 3047TIP3    H230557   3.908   0.509  13.266 -1.0317 -0.7346  0.3639
 3048TIP3   OH230558   1.354   5.773  15.866 -0.5670 -0.1708  0.3402
 3048TIP3    H130559   1.423   5.709  15.849  0.9238  1.0579  1.3828
 3048TIP3    H230560   1.309   5.740  15.943  0.2253  0.0329  0.9040
 3049TIP3   OH230561   0.180   1.207  14.994 -0.3663 -0.1894  0.5391
 3049TIP3    H130562   0.187   1.158  14.912 -1.5535 -0.7010  0.7203
 3049TIP3    H230563   0.184   1.140  15.062  0.0171  0.1761  0.8810
 3050TIP3   OH230564   2.160   3.945  15.816 -0.2023 -0.3712  0.5105
 3050TIP3    H130565   2.193   3.992  15.739  0.4686  0.5003  1.3251
 3050TIP3    H230566   2.115   4.012  15.868 -2.7103 -1.3642 -0.2005
 3051TIP3   OH230567   4.251   0.346   4.413 -0.2621 -0.4744  0.1624
 3051TIP3    H130568   4.339   0.333   4.377  0.2349 -1.2241  1.5467
 3051TIP3    H230569   4.194   0.349   4.336  1.0970  1.3399 -0.8433
 3052TIP3   OH230570   2.576   0.430  13.154  0.0236  0.2880 -0.6524
 3052TIP3    H130571   2.486   0.422  13.184 -0.1546 -0.5175 -1.3810
 3052TIP3    H230572   2.578   0.385  13.070  1.0924  0.3457 -0.6734
 3053TIP3   OH230573   6.473   4.012   1.663  0.0894  0.0948 -0.0713
 3053TIP3    H130574   6.554   4.022   1.613  0.8151  1.4284  1.2667
 3053TIP3    H230575   6.403   4.013   1.598  1.0629  0.5887 -1.1317
 3054TIP3   OH230576   4.471   3.109   2.670 -0.2771 -0.2225 -0.2086
 3054TIP3    H130577   4.485   3.189   2.620 -0.5152 -0.2243 -0.2783
 3054TIP3    H230578   4.517   3.041   2.621 -0.3502 -0.1887 -0.3237
 3055TIP3   OH230579   1.241   5.845   1.081 -0.1349 -0.1680 -0.7078
 3055TIP3    H130580   1.308   5.853   1.148  0.9562 -0.5789 -1.6955
 3055TIP3    H230581   1.180   5.779   1.115  0.8513 -0.9784 -0.4602
 3056TIP3   OH230582   0.340   0.771   0.938 -0.2963 -0.1629 -0.3029
 3056TIP3    H130583   0.337   0.804   0.848 -0.8420 -2.1838 -1.0829
 3056TIP3    H230584   0.403   0.827   0.983 -0.5858  1.3691 -1.7348
 3057TIP3   OH230585   2.035   5.286  10.609 -0.1707 -0.3700  0.3775
 3057TIP3    H130586   2.123   5.256  10.588 -0.3920 -1.2185  0.6272
 3057TIP3    H230587   2.012   5.344  10.536 -0.5779 -2.5454 -1.3453
 3058TIP3   OH230588   4.071   4.055  15.904  0.0933  0.1362  0.4056
 3058TIP3    H130589   4.062   4.060  15.809  2.8697 -0.4136  0.0189
 3058TIP3    H230590   3.991   4.096  15.938  0.0054  2.4115 -2.1690
 3059TIP3   OH230591   5.926   3.062  13.547 -0.3351 -0.0584 -0.3573
 3059TIP3    H130592   5.846   3.011  13.536 -0.4153  0.3394 -1.7797
 3059TIP3    H230593   5.939   3.105  13.463 -0.0096  1.8909  0.6249
 3060TIP3   OH230594   4.498   2.744   1.055  0.3960 -0.2074 -0.3479
 3060TIP3    H130595   4.559   2.686   1.011  0.1474 -0.6093 -0.1699
 3060TIP3    H230596   4.530   2.750   1.145 -0.2461 -1.0349 -0.0493
 3061TIP3   OH230597   2.085   1.510   2.363 -0.1118  0.6053 -0.5740
 3061TIP3    H130598   2.039   1.559   2.295  2.6724  1.9637 -1.6623
 3061TIP3    H230599   2.143   1.451   2.315 -1.2471 -1.7527  0.7330
 3062TIP3   OH230600   0.898   6.665  11.077 -0.5119  0.5908  0.4138
 3062TIP3    H130601   0.961   6.723  11.120 -2.4892  2.1644  1.3966
 3062TIP3    H230602   0.859   6.719  11.009 -0.9559 -0.2649 -0.0203
 3063TIP3   OH230603   4.160   6.491   4.703 -0.2388 -0.5312 -0.0239
 3063TIP3    H130604   4.187   6.563   4.645 -3.6307  0.2033 -0.9148
 3063TIP3    H230605   4.122   6.535   4.779 -1.4828 -1.3693 -0.1369
 3064TIP3   OH230606   0.805   6.770  13.790  0.1473  0.0118 -0.4252
 3064TIP3    H130607   0.888   6.817  13.801  1.0789 -0.9555 -2.6447
 3064TIP3    H230608   0.798   6.755  13.695 -2.5270 -0.0516 -0.3092
 3065TIP3   OH230609   3.090   5.849  13.399  0.1235 -0.1478  0.1207
 3065TIP3    H130610   3.106   5.781  13.334  0.4828  0.9886 -1.0088
 3065TIP3    H230611   3.177   5.883  13.419 -0.0911  0.2287  0.4116
 3066TIP3   OH230612   4.497   4.633   3.320 -0.2084 -0.1424  0.7842
 3066TIP3    H130613   4.479   4.542   3.299 -0.4739  0.4161 -1.6751
 3066TIP3    H230614   4.412   4.677   3.316  0.2331  0.6650 -0.8583
 3067TIP3   OH230615   4.381   6.457   6.198 -0.1297  0.3441  0.3788
 3067TIP3    H130616   4.460   6.486   6.245 -0.2447  1.7179 -0.2099
 3067TIP3    H230617   4.319   6.436   6.267  0.4526  0.1430  0.8509
 3068TIP3   OH230618   4.745   4.923  12.131 -0.0513  0.1652  0.4235
 3068TIP3    H130619   4.796   4.869  12.191  1.7359  3.4337  2.1525
 3068TIP3    H230620   4.805   4.943  12.059 -0.4018  0.5233  0.2277
 3069TIP3   OH230621   4.139   3.156   1.763 -0.0524  0.3528 -0.3161
 3069TIP3    H130622   4.196   3.176   1.838  0.2137  0.2112 -0.4830
 3069TIP3    H230623   4.050   3.165   1.799  0.0243  2.4882 -0.5362
 3070TIP3   OH230624   4.553   1.006  14.773  0.0605 -0.3789 -0.1705
 3070TIP3    H130625   4.576   1.049  14.856  0.0895 -1.7213  0.5513
 3070TIP3    H230626   4.533   0.916  14.798  1.4360 -1.2061 -1.8078
 3071TIP3   OH230627   3.677   0.846   6.228  0.1803 -0.3109 -0.0318
 3071TIP3    H130628   3.685   0.751   6.233 -2.0621 -0.5682 -0.2834
 3071TIP3    H230629   3.598   0.866   6.279  0.6435  1.4371  0.0825
 3072TIP3   OH230630   1.101   1.263   6.559  0.2934  0.9306  0.4150
 3072TIP3    H130631   1.073   1.353   6.577  2.2610  1.3775  1.5229
 3072TIP3    H230632   1.111   1.223   6.646 -0.5570 -0.3950 -0.0606
 3073TIP3   OH230633   3.670   2.062   2.372 -0.1777  0.1537 -0.1414
 3073TIP3    H130634   3.744   2.004   2.386 -1.1300 -1.6490 -1.9012
 3073TIP3    H230635   3.605   2.036   2.437  0.5939  1.6027  1.2737
 3074TIP3   OH230636   3.325   1.460  15.135 -0.2632 -0.3607 -0.1802
 3074TIP3    H130637   3.399   1.488  15.188  0.1526 -1.2135 -0.2884
 3074TIP3    H230638   3.277   1.541  15.115  1.3580  0.3906 -1.2011
 3075TIP3   OH230639   0.535   0.965  15.114 -0.4204  0.3700  0.0604
 3075TIP3    H130640   0.504   1.044  15.158 -1.2257 -0.6252  1.3329
 3075TIP3    H230641   0.627   0.958  15.138 -0.3175  0.9613 -0.1427
 3076TIP3   OH230642   1.348   4.967  11.746 -0.9937 -0.0462 -0.0795
 3076TIP3    H130643   1.331   4.874  11.763 -0.8612  0.0327  0.5063
 3076TIP3    H230644   1.322   4.980  11.654  0.4634 -1.0353 -0.6725
 3077TIP3   OH230645   3.878   4.524  15.622  0.0504  0.9015  0.1404
 3077TIP3    H130646   3.922   4.512  15.706 -2.0181 -0.0889  1.1486
 3077TIP3    H230647   3.815   4.595  15.638 -2.6923 -1.4543  0.5094
 3078TIP3   OH230648   1.989   3.569  17.083 -0.3926 -0.0504 -0.0641
 3078TIP3    H130649   1.916   3.559  17.022 -0.1220 -0.4055 -0.3363
 3078TIP3    H230650   1.985   3.661  17.111 -2.0001 -0.4905  1.2819
 3079TIP3   OH230651   3.274   2.067   0.735 -0.5585  0.0528  0.3617
 3079TIP3    H130652   3.247   2.093   0.647  2.0968 -1.6410 -1.0739
 3079TIP3    H230653   3.255   1.973   0.739  2.5898 -0.7091  0.1179
 3080TIP3   OH230654   2.223   0.711   1.625 -0.6521 -0.3834 -0.1103
 3080TIP3    H130655   2.265   0.628   1.601  2.0079  1.0463 -0.8844
 3080TIP3    H230656   2.295   0.764   1.660 -2.3101  1.5185  0.5478
 3081TIP3   OH230657   0.495   0.625   5.595  0.0249 -0.0906 -0.2421
 3081TIP3    H130658   0.498   0.647   5.502  0.7535  1.7079  0.1867
 3081TIP3    H230659   0.483   0.530   5.596  1.8601 -0.4166 -2.1794
 3082TIP3   OH230660   2.491   5.411  14.193 -0.1753 -0.6374  0.1924
 3082TIP3    H130661   2.543   5.437  14.117  0.3546 -2.4143 -0.1148
 3082TIP3    H230662   2.468   5.493  14.236  1.4971  0.3066 -0.5978
 3083TIP3   OH230663   2.332   4.278  14.456 -0.2198 -0.1571  0.0011
 3083TIP3    H130664   2.386   4.202  14.433  0.7261  0.0207  1.5025
 3083TIP3    H230665   2.245   4.258  14.421  0.8220 -0.3250 -2.7977
 3084TIP3   OH230666   1.693   6.724  14.333 -0.0039 -0.6406 -0.0669
 3084TIP3    H130667   1.760   6.766  14.386  0.7317  0.2991 -1.6649
 3084TIP3    H230668   1.665   6.792  14.271  0.0594 -2.0053 -1.6630
 3085TIP3   OH230669   3.134   2.641  13.192  0.4912  0.2549 -0.0625
 3085TIP3    H130670   3.084   2.599  13.123  1.8069 -1.6864  0.0915
 3085TIP3    H230671   3.197   2.697  13.145  0.3297  0.1729 -0.3772
 3086TIP3   OH230672   3.694   2.044  12.509  0.0934  0.0876 -0.1171
 3086TIP3    H130673   3.660   1.972  12.455  1.0658  0.6221 -1.5080
 3086TIP3    H230674   3.639   2.044  12.587 -1.1928 -0.9026 -0.9860
 3087TIP3   OH230675   4.040   2.061  14.581  0.4297  0.0900 -0.3514
 3087TIP3    H130676   4.030   2.156  14.580  0.4638  0.0938 -0.8083
 3087TIP3    H230677   4.121   2.045  14.534  0.8542 -0.1239  0.4401
 3088TIP3   OH230678   3.460   5.856  17.056  0.5926  0.1725  0.1766
 3088TIP3    H130679   3.450   5.950  17.071 -0.9932  0.0829 -0.1442
 3088TIP3    H230680   3.439   5.816  17.141 -2.0097 -0.0027 -0.4410
 3089TIP3   OH230681   2.408   4.010  12.568  0.1186  0.0910  0.4183
 3089TIP3    H130682   2.483   4.042  12.619  0.4183  0.2651 -0.1239
 3089TIP3    H230683   2.444   3.940  12.513 -0.1861 -0.0503  0.3968
 3090TIP3   OH230684   6.066   5.003  11.945  0.5567 -0.6258  0.8974
 3090TIP3    H130685   6.050   4.934  12.010  0.1907  1.2818  2.9828
 3090TIP3    H230686   6.109   5.073  11.995 -1.5546  1.7654 -0.3750
 3091TIP3   OH230687   1.452   3.249  15.581  0.0250  0.1348 -0.0220
 3091TIP3    H130688   1.500   3.326  15.551 -0.7479 -0.3051 -2.7026
 3091TIP3    H230689   1.379   3.285  15.632 -1.0118  1.3795 -2.2050
 3092TIP3   OH230690   3.929   5.359   5.679 -0.2886 -0.1966 -0.0097
 3092TIP3    H130691   3.939   5.411   5.600  0.4518  2.6657  1.8113
 3092TIP3    H230692   4.019   5.343   5.708 -0.5517 -0.6211  0.5945
 3093TIP3   OH230693   4.765   3.756  12.607 -0.5207 -0.2059 -0.1575
 3093TIP3    H130694   4.842   3.719  12.563  1.0850  1.3864  1.1249
 3093TIP3    H230695   4.796   3.777  12.695 -0.4084  6.1470 -1.2435
 3094TIP3   OH230696   5.111   2.741  15.327  0.1958  0.2737  0.3607
 3094TIP3    H130697   5.071   2.810  15.275 -1.0398 -0.0532  0.8496
 3094TIP3    H230698   5.120   2.779  15.415  0.3971  0.1447  0.3965
 3095TIP3   OH230699   1.251   0.905   0.090  0.2999 -0.3032  0.4279
 3095TIP3    H130700   1.186   0.838   0.110 -0.4290  0.0221 -0.7437
 3095TIP3    H230701   1.253   0.960   0.168  0.0846 -1.0468  0.9654
 3096TIP3   OH230702   6.728   5.910   5.094 -0.3527  0.1418 -0.7114
 3096TIP3    H130703   6.747   5.818   5.076  0.6364  0.3427 -0.7321
 3096TIP3    H230704   6.735   5.919   5.189 -2.4299 -0.2211 -0.4791
 3097TIP3   OH230705   4.929   2.473   6.370 -0.1655 -0.2414  0.3377
 3097TIP3    H130706   4.942   2.378   6.369  2.7784  0.0497  1.6348
 3097TIP3    H230707   4.875   2.488   6.447 -1.0017 -0.8577 -0.1049
 3098TIP3   OH230708   0.354   5.373  14.745 -0.3460 -0.4115  0.2908
 3098TIP3    H130709   0.433   5.381  14.691  0.3800  0.6207  1.4618
 3098TIP3    H230710   0.332   5.464  14.767  0.6514 -0.8420  3.5022
 3099TIP3   OH230711   0.647   6.051   2.953 -0.7436 -0.4154  0.1436
 3099TIP3    H130712   0.592   5.979   2.986  0.0524 -1.3043 -0.4216
 3099TIP3    H230713   0.671   6.024   2.865 -0.3228  0.4956 -0.0288
 3100TIP3   OH230714   5.075   0.634  10.827  0.5763  0.0392  0.0015
 3100TIP3    H130715   5.072   0.719  10.872 -1.3442 -0.7020  1.4024
 3100TIP3    H230716   5.103   0.655  10.738 -1.0525  2.3227 -0.0516
 3101TIP3   OH230717   0.219   1.232   2.502  0.7119  0.0803 -0.1047
 3101TIP3    H130718   0.279   1.284   2.556 -1.0991  1.4841  0.6754
 3101TIP3    H230719   0.141   1.287   2.494 -1.3804 -2.5615  0.8378
 3102TIP3   OH230720   6.409   1.910  10.072 -0.1441 -0.5391 -0.1161
 3102TIP3    H130721   6.417   1.882  10.163 -1.0418 -0.4558 -0.0075
 3102TIP3    H230722   6.353   1.987  10.075  0.8886  0.2592 -0.6064
 3103TIP3   OH230723   5.186   6.478  15.591  0.0682 -0.1385  0.4821
 3103TIP3    H130724   5.254   6.435  15.644 -0.0405 -0.2831  0.5059
 3103TIP3    H230725   5.180   6.425  15.512 -0.3702 -0.4235  0.6992
 3104TIP3   OH230726   6.542   2.009  16.233  0.2197  0.4203  0.1930
 3104TIP3    H130727   6.614   1.949  16.215  1.0044  0.8587  1.6495
 3104TIP3    H230728   6.546   2.023  16.328 -1.5402  0.7791  0.2535
 3105TIP3   OH230729   5.732   3.025  15.837 -0.2722  0.1623 -0.1863
 3105TIP3    H130730   5.810   3.038  15.784  0.1926  1.0438  0.6657
 3105TIP3    H230731   5.737   2.935  15.867  0.0354 -0.0021 -0.7303
 3106TIP3   OH230732   0.170   0.228   0.742 -0.0787 -0.1581  0.0130
 3106TIP3    H130733   0.240   0.200   0.683 -1.4386 -1.4473 -1.0607
 3106TIP3    H230734   0.106   0.157   0.738 -1.4590  0.9894  0.9652
 3107TIP3   OH230735   0.006   5.768  10.619  0.1342 -0.1372 -0.2894
 3107TIP3    H130736  -0.057   5.829  10.579  0.3588  0.4865  0.2899
 3107TIP3    H230737  -0.008   5.686  10.573 -1.0838  0.0028 -0.2117
 3108TIP3   OH230738   0.083   4.267   2.581 -0.5937  0.0453 -0.1453
 3108TIP3    H130739   0.031   4.256   2.660 -2.5742  1.6177 -1.1370
 3108TIP3    H230740   0.098   4.361   2.575 -2.2218  0.2147 -2.6458
 3109TIP3   OH230741   5.207   5.082  16.815  0.1718  0.4656 -0.2146
 3109TIP3    H130742   5.219   5.019  16.743  0.9136  0.4126 -0.0575
 3109TIP3    H230743   5.112   5.085  16.829 -0.0106  0.6797 -1.3675
 3110TIP3   OH230744   5.588   4.767   1.699 -0.0803 -0.3634  0.0794
 3110TIP3    H130745   5.507   4.716   1.685  0.5392 -1.3515 -0.0120
 3110TIP3    H230746   5.572   4.814   1.781 -1.1995  0.3719 -0.5443
 3111TIP3   OH230747   2.466   2.067  12.118  0.1667 -0.2151  0.0964
 3111TIP3    H130748   2.504   2.155  12.115  0.9064 -0.3984  2.1627
 3111TIP3    H230749   2.433   2.052  12.030  0.2891  2.0098 -0.3864
 3112TIP3   OH230750   5.544   1.071   0.334  0.3738 -0.1892 -0.0351
 3112TIP3    H130751   5.452   1.058   0.358 -0.3501  2.1238 -1.1753
 3112TIP3    H230752   5.582   1.118   0.408  0.4630 -0.5768  0.1654
 3113TIP3   OH230753   4.966   6.700  15.996  0.7127 -0.1104  0.0473
 3113TIP3    H130754   4.973   6.605  16.007  0.4113 -0.2509 -0.9166
 3113TIP3    H230755   4.940   6.712  15.905  1.6730  0.9392 -0.1032
 3114TIP3   OH230756   5.875   1.750   2.776 -0.1393 -0.1011 -0.1638
 3114TIP3    H130757   5.882   1.671   2.831 -2.0373 -0.5781 -0.5435
 3114TIP3    H230758   5.838   1.719   2.694 -0.6213  1.1439 -0.4365
 3115TIP3   OH230759   0.979   5.671   1.998 -0.1706 -0.2679  0.2522
 3115TIP3    H130760   0.889   5.702   1.986 -0.5866 -1.7027 -0.6333
 3115TIP3    H230761   0.972   5.601   2.063  0.7056  1.2079  2.0119
 3116TIP3   OH230762   6.103   0.724  11.400  0.3463 -0.0909 -0.2299
 3116TIP3    H130763   6.113   0.645  11.453  0.4824 -0.1650 -0.3662
 3116TIP3    H230764   6.156   0.790  11.445 -1.6138  0.5953  1.2262
 3117TIP3   OH230765   6.118   1.409  12.440  0.3812  0.2460  0.2783
 3117TIP3    H130766   6.057   1.346  12.480  0.1148 -0.9146 -1.8347
 3117TIP3    H230767   6.160   1.360  12.369  0.8165  2.1997 -0.8694
 3118TIP3   OH230768   5.911   0.332  15.978 -0.2488 -0.3722 -0.1003
 3118TIP3    H130769   5.919   0.302  15.887 -0.2842  0.9053 -0.5530
 3118TIP3    H230770   5.833   0.387  15.978 -0.7412 -1.0455  0.9199
 3119TIP3   OH230771   0.155   6.753   6.233 -0.3085  0.1126 -0.6967
 3119TIP3    H130772   0.159   6.671   6.282 -2.5241 -0.1406 -0.8316
 3119TIP3    H230773   0.150   6.820   6.301 -0.7896 -0.0392 -0.5813
 3120TIP3   OH230774   1.560   1.449  16.922  0.0856 -0.5612 -0.6763
 3120TIP3    H130775   1.588   1.479  16.835 -0.1098  1.5154 -0.0786
 3120TIP3    H230776   1.465   1.457  16.920  0.1726  1.1468  0.2398
 3121TIP3   OH230777   1.349   1.588   4.865  0.4222  0.3789  0.2464
 3121TIP3    H130778   1.275   1.628   4.820 -0.6553 -0.2323  1.4045
 3121TIP3    H230779   1.313   1.510   4.907  1.9506 -0.4980  0.0305
 3122TIP3   OH230780   4.744   2.739  16.239 -0.6282  0.4339  0.4144
 3122TIP3    H130781   4.785   2.753  16.154 -0.0213 -0.2321  0.5843
 3122TIP3    H230782   4.692   2.818  16.254  0.5500  1.2926  0.1594
 3123TIP3   OH230783   0.860   5.345  16.857 -0.0161  0.0335 -0.6245
 3123TIP3    H130784   0.904   5.423  16.890  0.0929 -0.8952  1.6319
 3123TIP3    H230785   0.928   5.278  16.854 -0.0719  0.0018 -2.6720
 3124TIP3   OH230786   6.044   1.962   1.336 -0.3243  0.1542 -0.2640
 3124TIP3    H130787   5.984   1.889   1.320  0.6209 -0.8718  0.7364
 3124TIP3    H230788   5.999   2.016   1.401 -0.6228 -0.0430 -0.3041
 3125TIP3   OH230789   5.060   2.114  11.917 -0.4731 -0.7128  0.1197
 3125TIP3    H130790   5.081   2.175  11.988  0.4965  0.6433 -1.2695
 3125TIP3    H230791   5.144   2.075  11.894 -0.7478 -0.9858 -0.4389
 3126TIP3   OH230792   2.263   3.246  15.922 -0.5055  0.6746  0.1161
 3126TIP3    H130793   2.210   3.184  15.872 -1.3781  1.0385  0.5594
 3126TIP3    H230794   2.260   3.213  16.012  0.4320  0.4345  0.0656
 3127TIP3   OH230795   3.806   1.564   4.592 -0.4297  0.2547 -0.5822
 3127TIP3    H130796   3.864   1.490   4.578 -1.2955 -0.4798 -0.4256
 3127TIP3    H230797   3.726   1.541   4.545 -1.8367 -0.3311  1.9011
 3128TIP3   OH230798   4.045   1.182   1.538  0.2794  0.2676  0.0094
 3128TIP3    H130799   4.140   1.182   1.530  0.2473 -0.3697 -0.5639
 3128TIP3    H230800   4.025   1.247   1.605  1.2771 -1.3612  2.0074
 3129TIP3   OH230801   0.133   3.377  15.348  0.0769  0.2017 -0.5125
 3129TIP3    H130802   0.180   3.374  15.265  1.5828 -2.1380  0.3367
 3129TIP3    H230803   0.042   3.355  15.324  0.5920 -1.0082 -1.4951
 3130TIP3   OH230804   0.523   6.736  15.074  0.2475  0.1204 -0.2890
 3130TIP3    H130805   0.561   6.676  15.138  1.1919  1.6993  0.6845
 3130TIP3    H230806   0.456   6.784  15.122 -0.3508  0.0327 -1.0022
 3131TIP3   OH230807   3.204   3.218  12.800 -0.0642 -0.4154  0.2232
 3131TIP3    H130808   3.249   3.299  12.824 -0.6981  0.7254 -2.1303
 3131TIP3    H230809   3.178   3.180  12.883 -1.8890  3.0541  1.4280
 3132TIP3   OH230810   3.711   6.509  17.007 -0.1750  0.1295 -0.1195
 3132TIP3    H130811   3.641   6.451  17.037  0.4741 -0.8372 -0.4022
 3132TIP3    H230812   3.783   6.449  16.984  0.4267  1.0412 -0.6717
 3133TIP3   OH230813   1.520   1.458   6.332  0.3488  0.4322  0.6013
 3133TIP3    H130814   1.482   1.546   6.326 -0.4425  0.2345  2.1973
 3133TIP3    H230815   1.493   1.415   6.251  0.3824  1.5246 -0.0018
 3134TIP3   OH230816   4.455   1.905  12.934  0.6711 -0.2860 -0.0090
 3134TIP3    H130817   4.385   1.948  12.884  1.3967  0.0997 -0.7085
 3134TIP3    H230818   4.438   1.930  13.025  0.6211  0.8616 -0.3110
 3135TIP3   OH230819   0.829   4.329  11.667  0.7007 -0.2464  0.4019
 3135TIP3    H130820   0.876   4.306  11.587  0.2750  0.7469 -0.1454
 3135TIP3    H230821   0.795   4.246  11.699  1.6266 -0.7833  0.0445
 3136TIP3   OH230822   4.931   4.579   5.512 -0.1813 -0.2513 -0.1333
 3136TIP3    H130823   4.872   4.524   5.563 -0.1864  1.0472  1.3438
 3136TIP3    H230824   4.874   4.639   5.464 -0.1194  0.5031  0.7052
 3137TIP3   OH230825   4.193   2.955   4.570  0.6387  0.2472  0.1337
 3137TIP3    H130826   4.172   2.917   4.485 -1.0530 -2.0726  1.5023
 3137TIP3    H230827   4.155   3.043   4.567 -2.0744 -0.8594 -0.5098
 3138TIP3   OH230828   4.170   0.605   3.632 -0.1384  0.6196  0.1064
 3138TIP3    H130829   4.148   0.533   3.691 -0.5257 -0.3539 -1.1863
 3138TIP3    H230830   4.169   0.683   3.688  0.1271 -0.3380  1.4997
 3139TIP3   OH230831   2.199   3.976  14.075  0.1121  0.4888 -0.0937
 3139TIP3    H130832   2.262   3.921  14.122 -1.3963 -0.2078  1.2011
 3139TIP3    H230833   2.202   4.059  14.122 -0.2862  0.2933  0.2820
 3140TIP3   OH230834   2.034   2.498  14.814 -0.0917  0.7429  0.7965
 3140TIP3    H130835   2.032   2.480  14.720  0.2249 -2.5417  1.2800
 3140TIP3    H230836   2.127   2.509  14.834 -0.1233  1.0003  0.8068
 3141TIP3   OH230837   2.702   5.784   2.532  0.2376 -0.6712  0.8564
 3141TIP3    H130838   2.690   5.832   2.450 -0.6212 -0.3497  1.1632
 3141TIP3    H230839   2.778   5.729   2.516  0.5855  0.0014  0.1301
 3142TIP3   OH230840   1.715   2.129  12.940 -0.3384 -0.0712  0.2872
 3142TIP3    H130841   1.647   2.131  12.872 -0.4901 -1.6332  0.3594
 3142TIP3    H230842   1.692   2.054  12.994  1.5749 -0.7830  0.1789
 3143TIP3   OH230843   2.788   3.442  16.441 -0.4783 -0.3223  0.0146
 3143TIP3    H130844   2.741   3.374  16.488  1.1354 -0.7030  1.1655
 3143TIP3    H230845   2.726   3.474  16.376 -1.8663 -1.6483  0.6362
 3144TIP3   OH230846   3.573   4.477  14.513 -0.4197 -0.2343  0.4932
 3144TIP3    H130847   3.544   4.396  14.557 -1.5053  0.7904  1.7618
 3144TIP3    H230848   3.492   4.525  14.497 -0.0826 -0.5849 -2.8546
 3145TIP3   OH230849   5.981   3.208  12.162 -0.4369 -0.7854 -0.0757
 3145TIP3    H130850   6.001   3.256  12.243 -0.6060 -1.3218  0.2927
 3145TIP3    H230851   6.066   3.192  12.122 -0.3711 -0.2969 -0.1342
 3146TIP3   OH230852   5.658   5.820   3.367  0.3654  0.1007  0.1371
 3146TIP3    H130853   5.576   5.857   3.399  0.0833 -0.7137  0.3893
 3146TIP3    H230854   5.635   5.732   3.339  1.5776 -1.0188  2.3770
 3147TIP3   OH230855   3.133   3.969  14.981 -0.8173 -0.4735  0.0564
 3147TIP3    H130856   3.226   3.945  14.984 -0.4384  0.9648  1.6056
 3147TIP3    H230857   3.099   3.941  15.066 -1.5575 -0.0473 -0.0940
 3148TIP3   OH230858   5.208   3.717   4.113  0.6244  0.1594  0.0619
 3148TIP3    H130859   5.187   3.796   4.063 -1.4118  0.3958  1.1656
 3148TIP3    H230860   5.272   3.746   4.178  1.7917  0.2885 -1.0968
 3149TIP3   OH230861   5.733   3.008   5.650  0.6803 -0.9236 -0.3980
 3149TIP3    H130862   5.723   2.925   5.697  1.7595 -0.9935 -0.2804
 3149TIP3    H230863   5.777   2.985   5.569 -1.7266 -0.8991 -1.8181
 3150TIP3   OH230864   4.974   5.637   3.597 -0.1290  0.6385 -0.7153
 3150TIP3    H130865   5.021   5.559   3.627 -0.6637  0.5596 -0.0586
 3150TIP3    H230866   4.924   5.666   3.673 -2.1861 -0.0365 -1.7339
 3151TIP3   OH230867   3.068   6.239  15.865 -0.4316 -0.5872  0.4432
 3151TIP3    H130868   2.995   6.178  15.858  0.1514 -1.1498 -1.3145
 3151TIP3    H230869   3.044   6.311  15.807  1.5755 -2.1156 -2.5646
 3152TIP3   OH230870   5.941   6.646   4.052 -0.3769  0.0431  0.2991
 3152TIP3    H130871   5.905   6.583   3.990  1.6543 -1.2061  0.2908
 3152TIP3    H230872   5.928   6.732   4.011 -0.3657 -0.6425 -1.1804
 3153TIP3   OH230873   6.014   0.236   5.003 -0.2307  0.1201  0.5244
 3153TIP3    H130874   6.061   0.246   4.920 -2.1856  1.0524 -0.5461
 3153TIP3    H230875   6.077   0.194   5.062  0.4375 -3.1166 -2.1808
 3154TIP3   OH230876   4.520   6.594   1.240 -0.5604  0.3572  0.3612
 3154TIP3    H130877   4.516   6.689   1.254  2.8470  0.5592  0.8129
 3154TIP3    H230878   4.564   6.560   1.318 -0.8604 -1.4769 -0.2112
 3155TIP3   OH230879   1.926   1.424   2.719  0.3645 -0.1381  0.2353
 3155TIP3    H130880   2.013   1.385   2.728  0.6385  0.3721 -0.1752
 3155TIP3    H230881   1.925   1.495   2.784  0.9155  1.0041 -0.9524
 3156TIP3   OH230882   5.372   4.120   1.733 -0.4167  0.3734 -0.2669
 3156TIP3    H130883   5.451   4.170   1.755 -0.8249  1.1746 -0.5583
 3156TIP3    H230884   5.378   4.042   1.787  1.9156 -0.9495 -2.2332
 3157TIP3   OH230885   5.094   2.213   3.851 -0.3442 -0.1110 -0.0543
 3157TIP3    H130886   5.160   2.255   3.906 -0.6010  0.2701 -0.0321
 3157TIP3    H230887   5.011   2.249   3.883 -0.4522  0.7045 -1.1846
 3158TIP3   OH230888   2.104   4.013   3.306 -0.0234 -0.0621  0.8706
 3158TIP3    H130889   2.114   3.949   3.235  1.1238  0.6889  0.3337
 3158TIP3    H230890   2.025   3.985   3.352 -0.3452 -1.0278 -0.2220
 3159TIP3   OH230891   0.176   6.382  15.368  0.0188 -0.6551 -0.0358
 3159TIP3    H130892   0.183   6.340  15.283  0.0559 -0.8997  0.0893
 3159TIP3    H230893   0.223   6.325  15.428  0.1250 -0.4055  0.1232
 3160TIP3   OH230894   1.521   0.835  12.662  0.1778  0.3555  0.0141
 3160TIP3    H130895   1.604   0.789  12.657 -0.8881 -1.7760  0.7199
 3160TIP3    H230896   1.504   0.864  12.572 -0.5071 -3.3600 -1.1960
 3161TIP3   OH230897   3.581   2.583   1.293 -0.1972  0.7110  0.4938
 3161TIP3    H130898   3.605   2.604   1.383 -0.5989  2.9804  0.1447
 3161TIP3    H230899   3.489   2.557   1.297 -0.3051  1.1260  0.7039
 3162TIP3   OH230900   2.428   6.525   4.028 -0.2526  0.4937  0.2708
 3162TIP3    H130901   2.494   6.574   4.077 -1.5165  2.3750  0.1658
 3162TIP3    H230902   2.373   6.484   4.095  0.6081 -0.5991  0.3547
 3163TIP3   OH230903   3.247   1.148   4.819  0.7487 -0.5090  0.1093
 3163TIP3    H130904   3.189   1.216   4.851  0.6036  0.1034 -1.3847
 3163TIP3    H230905   3.282   1.106   4.898 -0.5664  0.0851  1.0225
 3164TIP3   OH230906   4.658   4.356   3.817  0.8017 -0.6488  0.5502
 3164TIP3    H130907   4.671   4.449   3.835 -0.3837 -0.4094  0.3146
 3164TIP3    H230908   4.673   4.312   3.901 -2.6048  0.2196  1.7880
 3165TIP3   OH230909   1.088   3.399   1.388  0.2577 -0.0698  0.4408
 3165TIP3    H130910   1.073   3.307   1.370 -2.6921  0.4164  0.0309
 3165TIP3    H230911   1.128   3.399   1.476  1.0181 -1.7168  0.1421
 3166TIP3   OH230912   0.317   0.243   4.976  0.7562  0.0883  0.4490
 3166TIP3    H130913   0.364   0.190   4.912  0.5581 -0.3444  0.6562
 3166TIP3    H230914   0.302   0.327   4.932  3.4099  0.9698  1.0428
 3167TIP3   OH230915   1.789   6.048   2.972  0.4491  0.1001  0.0922
 3167TIP3    H130916   1.828   5.966   2.942  1.3604  0.1972  0.9640
 3167TIP3    H230917   1.857   6.113   2.956  0.3802  0.3958  0.9898
 3168TIP3   OH230918   3.355   4.274  12.030  0.0373 -0.6935 -0.4174
 3168TIP3    H130919   3.356   4.192  12.080  1.6760  0.4842  1.6182
 3168TIP3    H230920   3.308   4.335  12.085  1.4677  0.5144 -0.4652
 3169TIP3   OH230921   5.748   2.825   0.905  0.6973  0.3452  0.5587
 3169TIP3    H130922   5.774   2.770   0.978 -0.3259  0.1675  0.8120
 3169TIP3    H230923   5.729   2.910   0.944  0.2542  0.2808  0.4901
 3170TIP3   OH230924   4.111   6.673   4.926  0.0350  0.6188 -0.1164
 3170TIP3    H130925   4.081   6.756   4.887  0.1680 -0.1653 -1.9464
 3170TIP3    H230926   4.206   6.684   4.936 -0.2028  1.4925  1.7623
 3171TIP3   OH230927   4.625   1.873   0.584  0.5547 -0.4897  0.3597
 3171TIP3    H130928   4.552   1.826   0.624 -0.9972  0.5667 -1.0590
 3171TIP3    H230929   4.654   1.935   0.651 -1.0121  0.2365  0.4269
 3172TIP3   OH230930   4.383   3.260  11.623 -0.4950 -0.4463  0.3407
 3172TIP3    H130931   4.448   3.285  11.557 -3.3495  0.8673 -2.2277
 3172TIP3    H230932   4.432   3.254  11.704  2.7157  1.0129 -1.3112
 3173TIP3   OH230933   0.444   6.442   3.728  0.3634  0.1511 -0.0451
 3173TIP3    H130934   0.352   6.416   3.717  0.8584 -1.0608 -1.6871
 3173TIP3    H230935   0.478   6.380   3.793  0.3309 -0.1916 -0.3545
 3174TIP3   OH230936   2.795   5.249   3.531 -0.0046 -0.2940 -0.0833
 3174TIP3    H130937   2.759   5.190   3.465  0.5461 -0.2498 -0.4280
 3174TIP3    H230938   2.736   5.240   3.606 -0.3377 -0.7342 -0.3940
 3175TIP3   OH230939   1.425   4.756   6.654 -0.2460 -0.3241  0.1803
 3175TIP3    H130940   1.497   4.716   6.704  0.1412  0.6218  0.4051
 3175TIP3    H230941   1.359   4.777   6.719 -0.1800 -0.0315  0.1554
 3176TIP3   OH230942   1.387   1.428   4.037 -0.5100  0.1583  0.2400
 3176TIP3    H130943   1.367   1.515   4.002  1.7271  0.0054 -1.5916
 3176TIP3    H230944   1.393   1.442   4.132 -1.0864  1.7951  0.0705
 3177TIP3   OH230945   0.039   0.840  14.025 -0.1593  0.1372 -0.2245
 3177TIP3    H130946   0.033   0.935  14.018 -0.9090  0.0295 -1.4416
 3177TIP3    H230947   0.016   0.821  14.116  0.5386  1.1402  0.1772
 3178TIP3   OH230948   3.643   6.776  12.965  0.2008  1.0809  0.0129
 3178TIP3    H130949   3.691   6.740  12.891  0.1513 -1.3860  1.0668
 3178TIP3    H230950   3.563   6.812  12.927  1.0927  1.7137 -1.3279
 3179TIP3   OH230951   0.515   0.281   4.256  0.0957  0.3366 -1.0852
 3179TIP3    H130952   0.572   0.210   4.226 -0.3382 -0.1337 -0.8044
 3179TIP3    H230953   0.468   0.244   4.331 -1.0936  0.4866 -1.7437
 3180TIP3   OH230954   6.112   4.438  16.731  0.1535  0.3542 -0.2521
 3180TIP3    H130955   6.118   4.460  16.824 -2.2979  0.5938 -0.0810
 3180TIP3    H230956   6.110   4.523  16.687  0.0406  0.2711 -0.4089
 3181TIP3   OH230957   3.650   6.138   2.158 -0.2669  0.0820 -0.3315
 3181TIP3    H130958   3.651   6.075   2.087 -2.2872  0.7172 -1.0241
 3181TIP3    H230959   3.682   6.219   2.119 -3.7893  1.1370 -1.4213
 3182TIP3   OH230960   3.047   0.823   3.283  0.1874  0.2165 -0.5393
 3182TIP3    H130961   3.092   0.794   3.362 -1.2323  1.6016  0.8598
 3182TIP3    H230962   2.979   0.758   3.269 -0.3455  0.6205  0.1272
 3183TIP3   OH230963   0.047   3.165   6.152  1.2046  0.1698 -0.0844
 3183TIP3    H130964   0.040   3.189   6.245  2.0616  1.8575 -0.4203
 3183TIP3    H230965   0.137   3.134   6.142  1.2054  0.2694 -0.4044
 3184TIP3   OH230966   4.907   0.558  12.061 -0.2786 -0.1674  1.0850
 3184TIP3    H130967   4.858   0.543  12.141 -1.7319 -0.2183  0.2121
 3184TIP3    H230968   4.928   0.471  12.028 -1.6149 -0.2028  0.2746
 3185TIP3   OH230969   0.198   3.685  17.173 -0.0038 -0.4021  0.3464
 3185TIP3    H130970   0.203   3.590  17.177 -0.3246 -0.4718 -0.7156
 3185TIP3    H230971   0.114   3.707  17.213 -0.5748 -0.6769 -0.6601
 3186TIP3   OH230972   6.774   2.720   2.104 -0.0521  0.0468  0.2212
 3186TIP3    H130973   6.816   2.652   2.157  0.8737  1.0736  0.8420
 3186TIP3    H230974   6.763   2.680   2.018  0.4807 -0.8822  0.5686
 3187TIP3   OH230975   4.461   5.945   1.449 -0.5958 -0.1092 -0.6834
 3187TIP3    H130976   4.474   5.864   1.499  0.2214 -0.0740 -0.8224
 3187TIP3    H230977   4.417   6.004   1.510  0.3131 -0.0950 -0.0175
 3188TIP3   OH230978   5.222   3.131   4.410  0.2997 -0.0248 -0.2745
 3188TIP3    H130979   5.190   3.067   4.474 -2.5365 -0.6410 -2.1359
 3188TIP3    H230980   5.207   3.216   4.451  2.9552 -0.4004  1.7185
 3189TIP3   OH230981   4.812   4.861   4.823  0.3338  0.0215  0.1365
 3189TIP3    H130982   4.788   4.851   4.915 -1.0417 -0.3323 -0.2334
 3189TIP3    H230983   4.871   4.937   4.822  3.5435 -2.2174  1.7839
 3190TIP3   OH230984   0.774   4.050  11.471  0.1997 -0.4977 -0.6667
 3190TIP3    H130985   0.823   4.049  11.553 -0.4868  1.0025 -0.2148
 3190TIP3    H230986   0.686   4.022  11.494 -0.4736  1.5489 -0.5127
 3191TIP3   OH230987   3.633   1.417   4.456  0.1521 -0.7421 -0.0367
 3191TIP3    H130988   3.664   1.328   4.441  1.0912 -0.8210  2.0113
 3191TIP3    H230989   3.567   1.432   4.388  0.8290 -2.5418 -1.1605
 3192TIP3   OH230990   2.631   1.155   4.967 -0.4494  0.3296 -0.2829
 3192TIP3    H130991   2.667   1.220   5.027  2.4836 -0.4090 -1.0902
 3192TIP3    H230992   2.555   1.199   4.927  0.3872  2.5901  0.4506
 3193TIP3   OH230993   3.521   1.368   1.553 -0.6846  0.1621 -0.0743
 3193TIP3    H130994   3.522   1.424   1.475 -1.1010 -2.2306 -1.9005
 3193TIP3    H230995   3.608   1.327   1.553  0.2408  1.8780  2.1827
 3194TIP3   OH230996   1.612   3.578  10.398  0.0068 -0.0185 -0.5400
 3194TIP3    H130997   1.704   3.580  10.373  0.3730  0.9300  0.7472
 3194TIP3    H230998   1.577   3.500  10.357  0.8806  0.6880 -2.7665
 3195TIP3   OH230999   4.338   1.352   4.635 -0.1186 -0.2513 -0.4927
 3195TIP3    H131000   4.306   1.292   4.567 -1.8390 -0.4679  0.4425
 3195TIP3    H231001   4.300   1.318   4.716  3.6416 -1.3339  1.0349
 3196TIP3   OH231002   4.472   2.781  12.639 -0.2671  0.1275 -0.2768
 3196TIP3    H131003   4.475   2.862  12.690  2.1394 -1.1755  1.8694
 3196TIP3    H231004   4.449   2.810  12.550 -0.3191  3.0275  0.5692
 3197TIP3   OH231005   3.873   1.518  11.147 -0.4112  0.2925  0.0410
 3197TIP3    H131006   3.917   1.434  11.135  2.6507  1.9551 -1.4120
 3197TIP3    H231007   3.800   1.516  11.085 -1.9365 -2.1132  1.7193
 3198TIP3   OH231008   6.236   0.728  13.777 -0.1530 -0.2582 -0.6310
 3198TIP3    H131009   6.198   0.738  13.689 -3.0143  0.3849  0.5699
 3198TIP3    H231010   6.193   0.651  13.814 -0.5759  0.6755  0.9195
 3199TIP3   OH231011   3.317   1.705  12.519  0.7984 -0.5430  1.0419
 3199TIP3    H131012   3.299   1.798  12.530 -1.7142 -0.8493  0.0160
 3199TIP3    H231013   3.303   1.668  12.606 -1.9543 -0.4553  0.7078
 3200TIP3   OH231014   2.060   2.639   2.058 -0.0316  0.2482 -0.2438
 3200TIP3    H131015   2.148   2.677   2.056  0.8877 -1.7462  0.3445
 3200TIP3    H231016   2.062   2.579   2.133 -2.3776  1.2145  0.6791
 3201TIP3   OH231017   4.798   5.387   5.310  0.2784 -0.0240 -0.0142
 3201TIP3    H131018   4.891   5.392   5.289  0.2409  0.0396 -0.1623
 3201TIP3    H231019   4.755   5.371   5.227  0.1207  0.3533 -0.0063
 3202TIP3   OH231020   2.189   0.882   5.622 -0.4377 -0.0302 -0.5139
 3202TIP3    H131021   2.139   0.874   5.703  1.0763  1.4908  0.6568
 3202TIP3    H231022   2.133   0.932   5.563 -0.8518  0.4702  0.2844
 3203TIP3   OH231023   3.125   0.083   2.140 -0.1424  0.1719  0.3147
 3203TIP3    H131024   3.123   0.018   2.210 -0.5913 -0.9396 -0.6760
 3203TIP3    H231025   3.161   0.035   2.065 -1.4274  0.7603 -0.7197
 3204TIP3   OH231026   3.170   0.749   4.200 -0.0725  0.7291 -0.2203
 3204TIP3    H131027   3.258   0.787   4.190  0.3397  0.0397  0.6846
 3204TIP3    H231028   3.144   0.772   4.289  1.0592 -2.7827  1.1793
 3205TIP3   OH231029   0.948   2.243  15.892 -0.3306  0.4904 -0.6220
 3205TIP3    H131030   1.016   2.244  15.959 -0.7603  0.5764 -0.1837
 3205TIP3    H231031   0.918   2.334  15.885  1.3546  0.9573 -2.6399
 3206TIP3   OH231032   5.500   0.291   1.762 -0.0844  0.5378  0.1460
 3206TIP3    H131033   5.497   0.378   1.722  2.9347  0.8624  0.3569
 3206TIP3    H231034   5.417   0.250   1.737  0.3174  1.7508 -4.0812
 3207TIP3   OH231035   6.258   2.167  11.785  0.3147  0.5245  0.2248
 3207TIP3    H131036   6.270   2.262  11.786 -0.7562  0.6685 -0.0628
 3207TIP3    H231037   6.346   2.132  11.768  0.5460  1.4955 -0.6655
 3208TIP3   OH231038   5.074   5.136   2.521  0.1981  0.0819 -0.4493
 3208TIP3    H131039   5.126   5.199   2.572  1.0923 -0.2203 -0.9726
 3208TIP3    H231040   4.983   5.156   2.544  0.4759  1.4287 -0.4433
 3209TIP3   OH231041   3.837   5.199  14.116  0.2023  0.3774  0.3674
 3209TIP3    H131042   3.932   5.185  14.112  0.2312  0.7276 -0.2793
 3209TIP3    H231043   3.827   5.285  14.156  0.1102 -0.1355  1.5058
 3210TIP3   OH231044   2.528   4.705  15.083 -0.0161 -0.0467 -0.2630
 3210TIP3    H131045   2.466   4.671  15.018  2.3521 -1.8002 -1.7938
 3210TIP3    H231046   2.480   4.701  15.166 -1.8163 -1.7584 -1.2851
 3211TIP3   OH231047   2.706   3.547  14.570  0.7516  0.8071  0.3655
 3211TIP3    H131048   2.777   3.487  14.547  0.7732  0.4404  1.3231
 3211TIP3    H231049   2.721   3.566  14.663 -0.0766  1.1813  0.4292
 3212TIP3   OH231050   6.135   6.782  14.857  0.6217  0.0683  0.1434
 3212TIP3    H131051   6.173   6.694  14.856 -0.4551 -0.4222 -0.5151
 3212TIP3    H231052   6.209   6.841  14.848  1.2173 -0.8572 -1.2945
 3213TIP3   OH231053   4.779   3.446   2.551  0.2433 -0.0717  0.4892
 3213TIP3    H131054   4.735   3.418   2.470  1.9518 -1.0659 -0.1599
 3213TIP3    H231055   4.738   3.529   2.574 -2.5173 -1.3028  0.4136
 3214TIP3   OH231056   0.021   1.452   0.178 -0.4999 -0.8206 -0.3746
 3214TIP3    H131057  -0.038   1.388   0.219 -1.9638  1.3811  1.1853
 3214TIP3    H231058   0.070   1.489   0.251 -0.2008  0.3213 -1.1352
 3215TIP3   OH231059   4.129   2.914  11.534  0.1047 -0.5743 -0.2668
 3215TIP3    H131060   4.144   3.008  11.520  1.3627 -0.7748 -0.4309
 3215TIP3    H231061   4.111   2.880  11.447  1.4398 -0.7602 -0.4907
 3216TIP3   OH231062   6.169   0.910   6.488  0.3044 -0.4619  0.0583
 3216TIP3    H131063   6.168   0.995   6.533  0.8258  0.3385 -1.3769
 3216TIP3    H231064   6.206   0.929   6.402 -0.2665 -2.0279 -0.5639
 3217TIP3   OH231065   6.272   5.173  14.645  0.3026 -0.0341  0.4090
 3217TIP3    H131066   6.309   5.207  14.727  0.1246 -0.9943  0.9034
 3217TIP3    H231067   6.313   5.225  14.576  0.3019  0.9235  1.1224
 3218TIP3   OH231068   5.093   4.372  14.434 -0.5597  0.3456  0.0923
 3218TIP3    H131069   5.093   4.283  14.399 -0.5836  0.8568 -1.2723
 3218TIP3    H231070   5.056   4.425  14.364  1.9324  1.8523 -0.2019
 3219TIP3   OH231071   6.453   4.246  12.727  0.4767 -0.4199 -0.1991
 3219TIP3    H131072   6.489   4.200  12.803  0.6121  0.9175  0.5841
 3219TIP3    H231073   6.358   4.235  12.735  0.5709 -1.7750 -0.8322
 3220TIP3   OH231074   1.077   4.553  11.742  0.2658  0.5755 -0.1287
 3220TIP3    H131075   1.035   4.468  11.729 -1.2748  1.1630  0.8187
 3220TIP3    H231076   1.064   4.572  11.835  3.2486  0.5113  0.3985
 3221TIP3   OH231077   3.716   3.885   2.388 -0.0254  0.3312  0.6211
 3221TIP3    H131078   3.786   3.950   2.381  0.5628 -0.2332  1.2161
 3221TIP3    H231079   3.649   3.927   2.442 -0.6045  1.2520 -0.7619
 3222TIP3   OH231080   3.983   0.947   3.580  0.4226  0.0911  0.0851
 3222TIP3    H131081   3.966   1.030   3.624  1.1648  1.0412 -1.3290
 3222TIP3    H231082   4.049   0.904   3.634  1.7875  1.5192 -0.3926
 3223TIP3   OH231083   6.642   5.373   1.641  0.2041 -0.3956 -0.0828
 3223TIP3    H131084   6.579   5.324   1.693  2.6280 -1.5174  2.0149
 3223TIP3    H231085   6.620   5.465   1.657  0.4034 -0.7150  2.4780
 3224TIP3   OH231086   2.413   5.642   1.478  0.1671  0.2236  0.0287
 3224TIP3    H131087   2.464   5.565   1.505 -1.6603 -1.1691 -0.2402
 3224TIP3    H231088   2.466   5.684   1.410  1.2796 -0.7288  0.2888
 3225TIP3   OH231089   6.077   0.832  16.807  0.1188 -0.2776  0.3017
 3225TIP3    H131090   6.134   0.793  16.741 -2.4473 -0.8732 -1.7194
 3225TIP3    H231091   6.008   0.875  16.757 -1.1125  0.5866  2.5991
 3226TIP3   OH231092   2.114   5.577  11.202  0.6819 -0.0391  0.2165
 3226TIP3    H131093   2.074   5.581  11.288  0.4713 -2.5350  0.3217
 3226TIP3    H231094   2.051   5.529  11.148  1.4992  0.0661 -0.8839
 3227TIP3   OH231095   2.394   0.353   3.809 -0.1523  0.2734 -0.5303
 3227TIP3    H131096   2.340   0.310   3.876 -0.3839  0.9316 -0.2876
 3227TIP3    H231097   2.403   0.287   3.740  1.4314 -1.0319  0.8284
 3228TIP3   OH231098   5.149   0.885   4.530 -0.6121 -0.3114 -0.0780
 3228TIP3    H131099   5.237   0.859   4.505 -1.0868 -2.4937  0.2658
 3228TIP3    H231100   5.116   0.935   4.455  0.8607  0.4705 -0.2362
 3229TIP3   OH231101   1.853   6.726   1.974 -0.4843  0.5192 -0.2660
 3229TIP3    H131102   1.859   6.694   2.064 -0.6252 -2.3623 -1.1883
 3229TIP3    H231103   1.929   6.783   1.963 -1.0537  1.8116  1.9449
 3230TIP3   OH231104   1.399   5.655  16.456 -0.3741  0.5230 -0.0984
 3230TIP3    H131105   1.354   5.586  16.407  1.8222 -1.1225  0.0571
 3230TIP3    H231106   1.448   5.703  16.389 -0.2107  0.5689  0.0545
 3231TIP3   OH231107   4.892   6.587   1.567  0.1383  0.1944  0.4318
 3231TIP3    H131108   4.893   6.617   1.658  3.5496  1.1438  0.2086
 3231TIP3    H231109   4.936   6.502   1.569 -0.8428 -0.3486 -0.2174
 3232TIP3   OH231110   3.958   4.214  14.234 -0.2678  0.0258 -0.0094
 3232TIP3    H131111   4.035   4.255  14.196 -0.4228 -0.3609 -0.7576
 3232TIP3    H231112   3.946   4.133  14.183 -0.5629 -0.4315  0.7645
 3233TIP3   OH231113   4.001   4.688  16.838  0.0768  0.3562 -0.2930
 3233TIP3    H131114   3.948   4.636  16.778  1.8463 -0.5700 -1.1400
 3233TIP3    H231115   4.032   4.761  16.785 -0.5661  1.0705  0.2846
 3234TIP3   OH231116   0.786   0.631   0.557 -0.6126  0.0878  0.1624
 3234TIP3    H131117   0.747   0.676   0.631 -2.1381 -0.7897 -0.0556
 3234TIP3    H231118   0.812   0.700   0.497 -3.0121  0.7388 -0.2298
 3235TIP3   OH231119   1.850   0.989   1.318  0.0339  0.0919  0.3129
 3235TIP3    H131120   1.916   1.010   1.385 -0.0055  1.7189 -0.0992
 3235TIP3    H231121   1.766   1.000   1.362 -0.0204  2.1802 -0.2012
 3236TIP3   OH231122   2.570   5.902  11.940 -0.6121 -0.5026 -0.4057
 3236TIP3    H131123   2.577   5.890  11.845 -2.6201 -0.8245 -0.5412
 3236TIP3    H231124   2.495   5.961  11.951  0.3090  0.4818  0.9561
 3237TIP3   OH231125   2.245   2.034   1.158  0.1842 -0.9464  0.3461
 3237TIP3    H131126   2.313   2.054   1.222 -0.4086  0.4214  0.5947
 3237TIP3    H231127   2.170   2.086   1.186 -0.9006 -2.2237 -0.0594
 3238TIP3   OH231128   5.547   3.413   4.519 -0.3648  0.5973  0.0926
 3238TIP3    H131129   5.469   3.459   4.552  1.6454  1.2401  4.6641
 3238TIP3    H231130   5.620   3.458   4.560  2.4261 -1.0359 -2.6810
 3239TIP3   OH231131   1.310   1.577   1.538 -0.5217  0.1841 -0.4734
 3239TIP3    H131132   1.247   1.510   1.567 -0.5506  0.3096 -0.2401
 3239TIP3    H231133   1.269   1.660   1.562 -0.4595  0.2844 -0.7118
 3240TIP3   OH231134   2.232   0.293  13.607 -0.3677  0.0234 -0.1884
 3240TIP3    H131135   2.162   0.258  13.662  1.9536 -1.2049  2.2222
 3240TIP3    H231136   2.240   0.229  13.536 -0.2728 -1.0297  0.7399
 3241TIP3   OH231137   5.329   2.381   6.359 -0.0449  0.5278  0.0330
 3241TIP3    H131138   5.283   2.465   6.357 -1.8437 -0.4213 -1.2092
 3241TIP3    H231139   5.266   2.320   6.397 -0.4172 -1.1002 -2.9412
 3242TIP3   OH231140   0.182   4.401   5.378  0.0865 -0.1352  0.1667
 3242TIP3    H131141   0.166   4.335   5.311  0.5254  0.0607 -0.1290
 3242TIP3    H231142   0.191   4.351   5.459 -3.8789 -0.2208  0.7703
 3243TIP3   OH231143   1.786   6.080  11.592  0.1842 -0.0191  0.3747
 3243TIP3    H131144   1.865   6.125  11.623  0.2307  0.7970 -0.8215
 3243TIP3    H231145   1.714   6.138  11.617 -0.0581 -0.7964  1.5257
 3244TIP3   OH231146   3.943   1.320   2.205 -0.2613  0.1893 -0.0294
 3244TIP3    H131147   3.908   1.408   2.189 -0.2288  0.7558  2.5854
 3244TIP3    H231148   4.036   1.334   2.221 -0.4602 -0.1257  1.5392
 3245TIP3   OH231149   6.682   3.473  16.407  0.3914  0.5942  0.6061
 3245TIP3    H131150   6.765   3.496  16.366 -0.3039  2.4586  0.1362
 3245TIP3    H231151   6.653   3.553  16.450 -1.3139  0.0873  0.4896
 3246TIP3   OH231152   0.240   6.500   4.066  0.2574  0.0162 -0.1193
 3246TIP3    H131153   0.258   6.579   4.016  0.4143 -1.1997 -2.0662
 3246TIP3    H231154   0.247   6.527   4.158  1.3275  1.9991 -0.7487
 3247TIP3   OH231155   3.455   5.634   5.507 -0.2691 -0.2828 -0.1938
 3247TIP3    H131156   3.468   5.579   5.584 -0.1774 -2.5906 -1.7536
 3247TIP3    H231157   3.366   5.668   5.516  0.3196  0.8749  1.6986
 3248TIP3   OH231158   2.035   5.182   3.834  0.1240  0.4526 -0.2619
 3248TIP3    H131159   2.094   5.131   3.779  0.5543 -0.7009  1.1901
 3248TIP3    H231160   1.952   5.182   3.786 -0.1135 -2.2997 -0.0182
 3249TIP3   OH231161   4.623   3.639  15.805 -0.1841 -0.1744 -0.7044
 3249TIP3    H131162   4.559   3.688  15.753 -0.5656  0.2004  0.1059
 3249TIP3    H231163   4.701   3.637  15.750 -0.8036 -0.4364 -1.6124
 3250TIP3   OH231164   6.334   4.678  15.767 -0.1710 -0.0866  0.4047
 3250TIP3    H131165   6.355   4.619  15.839  1.6583  0.5167  0.4393
 3250TIP3    H231166   6.417   4.688  15.720 -0.9986  0.6201 -0.9625
 3251TIP3   OH231167   2.795   1.817  14.770 -0.4715 -0.3111 -0.8369
 3251TIP3    H131168   2.887   1.798  14.754 -0.1979  0.2493  0.0060
 3251TIP3    H231169   2.788   1.912  14.760 -0.5508 -0.0968  0.9476
 3252TIP3   OH231170   4.474   4.953  13.499 -0.5398 -0.1294 -0.2373
 3252TIP3    H131171   4.443   4.862  13.501 -1.4925  0.1769 -0.5793
 3252TIP3    H231172   4.488   4.975  13.591  1.4376 -1.1811 -0.2409
 3253TIP3   OH231173   1.506   1.001   3.279 -0.4872  0.0353 -0.6068
 3253TIP3    H131174   1.549   1.060   3.218  0.7338 -1.7214 -1.5421
 3253TIP3    H231175   1.578   0.955   3.323 -1.3487  0.5291  1.4704
 3254TIP3   OH231176   0.313   5.538   2.395  0.0508 -0.1109  0.1640
 3254TIP3    H131177   0.246   5.596   2.430 -0.3176  0.9170 -2.1025
 3254TIP3    H231178   0.379   5.596   2.358  1.1833 -1.1389  0.4764
 3255TIP3   OH231179   1.442   2.725  16.117  0.0732 -0.2592  0.4918
 3255TIP3    H131180   1.368   2.694  16.065 -0.0281 -0.1542  0.5742
 3255TIP3    H231181   1.432   2.820  16.119  1.0290 -0.1078 -0.7514
 3256TIP3   OH231182   4.935   6.468  13.364 -0.6450 -0.4426 -0.0357
 3256TIP3    H131183   5.007   6.406  13.360 -1.4589 -1.3633 -1.3114
 3256TIP3    H231184   4.977   6.554  13.370  0.5061 -1.0528  1.4302
 3257TIP3   OH231185   1.930   1.415  13.748 -0.3449  0.1859 -0.0199
 3257TIP3    H131186   1.840   1.416  13.779 -0.7965  0.6447 -1.2494
 3257TIP3    H231187   1.972   1.344  13.796 -0.8468  1.1575  1.9381
 3258TIP3   OH231188   2.228   6.213  15.324  0.0978  0.5173  0.2066
 3258TIP3    H131189   2.263   6.280  15.266  0.3957  0.4209  0.2723
 3258TIP3    H231190   2.258   6.130  15.286  0.1572  0.4465  0.4072
 3259TIP3   OH231191   6.323   5.786   4.479 -0.0498 -0.3274 -0.2766
 3259TIP3    H131192   6.258   5.739   4.532  0.3109 -1.3549 -0.7154
 3259TIP3    H231193   6.372   5.717   4.434 -1.4736  0.4739 -3.3473
 3260TIP3   OH231194   0.680   6.190  15.461 -0.3599  0.2130 -0.1757
 3260TIP3    H131195   0.631   6.251  15.516 -0.2162  0.1803 -0.0101
 3260TIP3    H231196   0.617   6.121  15.440  0.5436 -1.8608  3.1335
 3261TIP3   OH231197   3.570   3.256  14.339  0.2884  0.1591 -0.0963
 3261TIP3    H131198   3.510   3.195  14.381 -1.3613  0.9517 -1.1824
 3261TIP3    H231199   3.599   3.314  14.409 -0.2423 -0.2298  0.4532
 3262TIP3   OH231200   1.390   4.314  14.428 -0.0131 -0.0643 -0.1377
 3262TIP3    H131201   1.369   4.403  14.458  2.6402  0.2157  1.1548
 3262TIP3    H231202   1.398   4.263  14.508  2.5800 -0.4283 -0.5449
 3263TIP3   OH231203   4.736   5.033  12.595  0.7098 -0.7493 -0.0023
 3263TIP3    H131204   4.670   5.020  12.527 -0.3774 -0.7203  1.0270
 3263TIP3    H231205   4.720   5.120  12.630  1.3289 -0.7178  0.2322
 3264TIP3   OH231206   2.076   1.756   5.231 -0.6698  0.2488 -0.5174
 3264TIP3    H131207   2.085   1.666   5.261 -0.2745  0.5189  0.1801
 3264TIP3    H231208   1.997   1.755   5.176 -0.0829 -0.7390 -1.3713
 3265TIP3   OH231209   3.518   6.414   0.149 -0.7273 -0.1521  0.2204
 3265TIP3    H131210   3.491   6.495   0.107  0.0021  0.3852  0.7737
 3265TIP3    H231211   3.435   6.370   0.170 -1.1474  0.8524  0.7173
 3266TIP3   OH231212   5.151   2.133  12.426 -0.3252 -0.2352 -0.0673
 3266TIP3    H131213   5.159   2.210  12.481 -1.3474 -0.8196  0.9520
 3266TIP3    H231214   5.074   2.150  12.372  0.9674  0.5610 -1.7560
 3267TIP3   OH231215   5.063   6.773   4.536 -0.0905 -0.0854  0.4307
 3267TIP3    H131216   5.057   6.736   4.623  0.6408  0.3860  0.6931
 3267TIP3    H231217   4.979   6.752   4.494 -0.4027 -0.3961  1.2070
 3268TIP3   OH231218   2.917   2.248   4.597  0.0701  0.1966  0.1015
 3268TIP3    H131219   2.847   2.313   4.610 -0.1243  0.7976 -3.0477
 3268TIP3    H231220   2.998   2.299   4.600  0.3050 -0.2297  2.1011
 3269TIP3   OH231221   5.174   4.277   6.284  0.2406  0.7325 -0.1996
 3269TIP3    H131222   5.218   4.222   6.349 -1.3647 -0.9264 -0.4384
 3269TIP3    H231223   5.135   4.348   6.335  1.6095  1.2143  0.2273
 3270TIP3   OH231224   3.370   4.044   1.240  0.5198  0.3752 -0.4855
 3270TIP3    H131225   3.407   4.118   1.288 -1.9479  0.3068  1.7418
 3270TIP3    H231226   3.296   4.081   1.192 -1.5084 -0.7021  1.6144
 3271TIP3   OH231227   6.764   5.236  13.769  0.0068  0.0557  0.3127
 3271TIP3    H131228   6.810   5.310  13.729 -0.4960 -0.0299 -0.4456
 3271TIP3    H231229   6.833   5.185  13.812  0.2227  1.5570  1.8384
 3272TIP3   OH231230   3.986   2.185   4.311  0.0218 -0.2272 -0.3491
 3272TIP3    H131231   3.924   2.147   4.374 -1.0655 -0.2331 -1.3741
 3272TIP3    H231232   3.931   2.240   4.255  1.3396  1.8606  0.2780
 3273TIP3   OH231233   6.585   4.963  15.069 -0.0270 -0.2630  0.5710
 3273TIP3    H131234   6.605   5.002  14.984 -0.2718  1.2943  1.1887
 3273TIP3    H231235   6.671   4.944  15.107  0.1020 -0.1571  0.3364
 3274TIP3   OH231236   6.258   1.671   5.002  0.2022 -0.1684 -0.0268
 3274TIP3    H131237   6.239   1.580   5.025 -0.6793  0.2399  0.9213
 3274TIP3    H231238   6.205   1.689   4.924 -0.5013 -0.1309  0.4571
 3275TIP3   OH231239   2.338   0.976   5.044  0.1679 -0.2573  0.4810
 3275TIP3    H131240   2.261   0.922   5.028 -0.2327  0.3516  0.3268
 3275TIP3    H231241   2.349   1.029   4.965  0.9482 -0.5778  0.3611
 3276TIP3   OH231242   2.970   0.105  16.583 -0.0654 -0.4251 -0.4342
 3276TIP3    H131243   3.004   0.022  16.549  0.0663 -0.4257 -0.3039
 3276TIP3    H231244   2.908   0.079  16.651 -0.8764 -0.4427 -1.1590
 3277TIP3   OH231245   0.664   2.574   0.488  0.1153  0.1212 -0.0465
 3277TIP3    H131246   0.648   2.480   0.475  0.8528  0.2172 -2.0576
 3277TIP3    H231247   0.643   2.589   0.580  0.2851 -2.0794  0.4253
 3278TIP3   OH231248   6.594   6.103   2.420  0.0930 -0.1378  0.2216
 3278TIP3    H131249   6.560   6.033   2.476  0.1903 -0.2548  0.1373
 3278TIP3    H231250   6.519   6.159   2.403 -0.1658 -0.6250 -0.3087
 3279TIP3   OH231251   5.921   2.651  13.774 -0.3589  0.3303 -0.3162
 3279TIP3    H131252   5.884   2.567  13.747  1.7222 -0.4165 -1.0156
 3279TIP3    H231253   5.926   2.702  13.694 -1.7583  1.2283  0.1311
 3280TIP3   OH231254   1.592   5.106  16.168 -0.6451 -0.0723 -0.4548
 3280TIP3    H131255   1.553   5.131  16.084  1.7896  2.6730 -0.9347
 3280TIP3    H231256   1.680   5.076  16.146 -0.3428 -0.3800  1.0482
 3281TIP3   OH231257   6.694   3.578   3.517  0.2397  0.2803 -0.1766
 3281TIP3    H131258   6.621   3.631   3.550 -0.8012  0.0536 -1.9689
 3281TIP3    H231259   6.755   3.642   3.481  1.4958  0.5457  2.2462
 3282TIP3   OH231260   0.592   3.039   1.255  0.3440 -0.4886 -0.0725
 3282TIP3    H131261   0.519   3.019   1.313  0.5144  1.1732  0.7800
 3282TIP3    H231262   0.575   2.987   1.177 -1.4329 -0.6038  0.3389
 3283TIP3   OH231263   1.755   0.627   4.304 -0.0929  0.6706  0.2032
 3283TIP3    H131264   1.814   0.630   4.379 -0.3367 -0.5635  0.4621
 3283TIP3    H231265   1.740   0.534   4.289 -0.4665  0.9146 -1.0519
 3284TIP3   OH231266   2.431   1.527   4.223 -0.1695 -0.2468 -0.3305
 3284TIP3    H131267   2.474   1.516   4.138  0.4004 -0.5148 -0.0130
 3284TIP3    H231268   2.388   1.612   4.218  0.6287  0.1443 -0.5504
 3285TIP3   OH231269   4.633   3.145   2.182 -0.3764 -0.0254  0.7388
 3285TIP3    H131270   4.671   3.097   2.256  0.5209  0.0563  0.3475
 3285TIP3    H231271   4.698   3.212   2.161 -2.0154  2.0531  1.8930
 3286TIP3   OH231272   2.308   6.462  17.230 -0.1490 -0.2185 -0.2934
 3286TIP3    H131273   2.344   6.501  17.310 -2.0632 -1.7071  1.4097
 3286TIP3    H231274   2.356   6.380  17.219  0.0137 -0.0835 -0.6148
 3287TIP3   OH231275   3.435   0.921  11.727  0.0070  0.3222  0.6665
 3287TIP3    H131276   3.455   1.006  11.687  0.8040  0.5916  1.5978
 3287TIP3    H231277   3.360   0.939  11.784 -1.6549 -0.2299 -1.2032
 3288TIP3   OH231278   0.929   5.012  11.035 -0.0154 -0.3968 -0.1556
 3288TIP3    H131279   0.872   4.958  11.090 -0.6211  1.2186  0.8619
 3288TIP3    H231280   1.010   4.961  11.027 -0.1626 -0.9859  1.6991
 3289TIP3   OH231281   3.428   6.375  14.882 -0.1683 -0.6696 -0.0087
 3289TIP3    H131282   3.451   6.338  14.968  0.5813  0.1008  0.1425
 3289TIP3    H231283   3.429   6.470  14.896 -2.0121 -0.5566 -0.3939
 3290TIP3   OH231284   3.153   4.227   3.181 -0.3919 -0.4012 -0.4309
 3290TIP3    H131285   3.205   4.270   3.112 -0.9765 -0.4479 -0.9120
 3290TIP3    H231286   3.172   4.134   3.170  1.6875 -0.2483  1.2771
 3291TIP3   OH231287   2.269   5.639   4.155 -0.4251  0.1185 -0.1840
 3291TIP3    H131288   2.241   5.655   4.065  1.6949  1.2885 -0.7251
 3291TIP3    H231289   2.358   5.675   4.159  0.4862 -2.0685  1.7201
 3292TIP3   OH231290   3.682   0.151  13.189 -0.4302  0.1247  0.1992
 3292TIP3    H131291   3.677   0.089  13.116  0.0980  0.7303 -0.3606
 3292TIP3    H231292   3.734   0.105  13.256  3.4465  1.3146 -1.6926
 3293TIP3   OH231293   6.168   4.315  13.394 -0.0536 -0.8107  0.1495
 3293TIP3    H131294   6.179   4.264  13.314  0.7954 -0.9312  0.3304
 3293TIP3    H231295   6.212   4.264  13.462 -0.8225 -0.7412  0.7129
 3294TIP3   OH231296   2.071   6.183  11.616  0.3392  0.2847  0.3993
 3294TIP3    H131297   2.025   6.222  11.691  1.2704  1.9987  0.1370
 3294TIP3    H231298   2.106   6.258  11.568  0.6144 -0.8264 -1.2178
 3295TIP3   OH231299   5.884   4.892  12.960  0.3738 -0.6677 -0.1913
 3295TIP3    H131300   5.851   4.904  13.049  3.0500  0.0251  0.8137
 3295TIP3    H231301   5.848   4.966  12.911 -0.8334 -0.8499  0.4010
 3296TIP3   OH231302   1.920   1.812   3.101 -0.4523  0.3714  0.4411
 3296TIP3    H131303   1.827   1.832   3.110 -0.1947  1.4675  0.7911
 3296TIP3    H231304   1.963   1.897   3.095  0.6819 -0.0403  1.9345
 3297TIP3   OH231305   1.156   5.236  14.478 -0.3827 -0.2257  0.2293
 3297TIP3    H131306   1.072   5.280  14.471  0.3518  1.2185  0.0511
 3297TIP3    H231307   1.220   5.302  14.453  0.6815 -2.0104 -2.1863
 3298TIP3   OH231308   0.075   0.771  16.333  0.1944  0.0302 -0.0229
 3298TIP3    H131309   0.106   0.823  16.259  0.7233  0.7052  0.6541
 3298TIP3    H231310  -0.019   0.784  16.334  0.1490 -0.2062 -0.7366
 3299TIP3   OH231311   0.973   2.619  15.629 -0.0586 -1.1617  0.4689
 3299TIP3    H131312   0.916   2.685  15.591  0.4164 -0.6829  0.5841
 3299TIP3    H231313   0.914   2.563  15.680 -0.2989 -0.0933  1.3958
 3300TIP3   OH231314   1.164   6.249   2.024  0.3708 -0.3506 -0.2252
 3300TIP3    H131315   1.120   6.326   2.061 -1.6295 -1.4608 -0.1233
 3300TIP3    H231316   1.210   6.211   2.099 -1.2525 -0.9634  0.5142
 3301TIP3   OH231317   6.457   2.800  14.343  0.1079  0.3237  0.0073
 3301TIP3    H131318   6.523   2.737  14.315 -0.4491 -0.8064  1.1437
 3301TIP3    H231319   6.485   2.826  14.431 -0.4531  0.5704  0.1137
 3302TIP3   OH231320   5.825   5.984  17.168  0.1193  0.0782 -0.2878
 3302TIP3    H131321   5.739   5.968  17.131 -0.7853 -0.0500  1.7203
 3302TIP3    H231322   5.818   6.070  17.209  0.7039 -0.2428  0.5093
 3303TIP3   OH231323   2.249   0.503   5.360 -0.6761 -0.0284  0.2098
 3303TIP3    H131324   2.227   0.529   5.271 -2.8635 -1.6163  0.2100
 3303TIP3    H231325   2.343   0.483   5.357 -0.1319  2.3427 -1.0571
 3304TIP3   OH231326   5.282   6.557   4.035 -0.2004 -0.2618  0.1937
 3304TIP3    H131327   5.256   6.585   4.123 -0.0634  1.3706 -0.2510
 3304TIP3    H231328   5.200   6.528   3.994 -0.2132 -1.3249  0.9520
 3305TIP3   OH231329   2.011   5.142   1.150  0.3198  0.2973 -0.1754
 3305TIP3    H131330   2.041   5.096   1.071  1.3359 -0.9153  0.8717
 3305TIP3    H231331   1.916   5.133   1.148  0.4950 -2.6529  0.3836
 3306TIP3   OH231332   0.935   0.027   5.975 -0.0494 -0.7303  0.1045
 3306TIP3    H131333   1.019   0.042   5.933  1.4257 -1.8297  2.4321
 3306TIP3    H231334   0.914   0.109   6.019 -0.0147 -0.5767 -0.1648
 3307TIP3   OH231335   5.323   2.107   4.233  0.2372 -0.0835  0.2481
 3307TIP3    H131336   5.233   2.080   4.246  0.1747 -1.0683 -1.7663
 3307TIP3    H231337   5.318   2.201   4.219 -1.1541 -0.5513 -3.8721
 3308TIP3   OH231338   0.991   5.218  12.110  0.0883  0.3641  0.3011
 3308TIP3    H131339   1.015   5.135  12.151  2.0065  0.3285 -0.7742
 3308TIP3    H231340   0.978   5.279  12.182 -1.0656 -0.7630  1.0948
 3309TIP3   OH231341   5.377   0.937   2.660  0.6902 -0.1919 -0.9068
 3309TIP3    H131342   5.436   0.865   2.680  0.2916 -0.4277 -0.5548
 3309TIP3    H231343   5.430   1.016   2.673  1.1106 -0.4193 -1.2388
 3310TIP3   OH231344   1.243   1.911   0.554 -0.0557  0.3733 -0.5997
 3310TIP3    H131345   1.247   2.006   0.547 -1.1325  0.5204  0.4023
 3310TIP3    H231346   1.240   1.894   0.648  2.4119 -0.7995 -0.6680
 3311TIP3   OH231347   3.524   4.696   1.218 -0.7479 -0.3143 -0.6345
 3311TIP3    H131348   3.455   4.721   1.279 -0.1196  1.8516 -0.7193
 3311TIP3    H231349   3.502   4.743   1.137  2.0699  2.6262  0.0949
 3312TIP3   OH231350   1.875   3.121   3.113 -0.0686  0.0273  0.3824
 3312TIP3    H131351   1.799   3.138   3.057  0.2158 -0.6224 -0.2269
 3312TIP3    H231352   1.944   3.178   3.078  0.5770 -1.4965 -0.9918
 3313TIP3   OH231353   0.941   5.417  13.040 -0.0401 -0.5990  0.0853
 3313TIP3    H131354   1.014   5.415  13.102  0.9902 -0.2784 -1.0563
 3313TIP3    H231355   0.978   5.378  12.960 -1.0257 -0.1131 -0.6183
 3314TIP3   OH231356   1.683   0.934   4.832 -0.2006  0.0846  0.3457
 3314TIP3    H131357   1.772   0.910   4.806  0.1772  2.2023 -0.4937
 3314TIP3    H231358   1.646   0.978   4.755 -1.2714  0.9736  1.3331
 3315TIP3   OH231359   5.971   2.852   4.623 -0.3592  0.0447  0.0140
 3315TIP3    H131360   6.034   2.781   4.636 -0.4086  0.3637  2.3554
 3315TIP3    H231361   5.885   2.812   4.639 -0.3626  0.6601  1.7142
 3316TIP3   OH231362   2.549   2.651  11.985 -0.6040  0.4865  0.6316
 3316TIP3    H131363   2.469   2.697  12.012 -0.7674  0.6365 -0.0723
 3316TIP3    H231364   2.527   2.558  11.996 -0.8529  0.5291  0.5233
 3317TIP3   OH231365   6.746   2.112   0.245 -0.3464  0.0148  0.6191
 3317TIP3    H131366   6.821   2.070   0.289 -0.8858 -0.0896  1.4594
 3317TIP3    H231367   6.681   2.043   0.238 -0.9750  0.5208  1.3639
 3318TIP3   OH231368   2.709   6.313   4.122  0.2186 -0.3025  0.1404
 3318TIP3    H131369   2.776   6.248   4.142 -0.1378 -1.0296 -0.9202
 3318TIP3    H231370   2.753   6.376   4.065  0.3768  0.0106  0.6039
 3319TIP3   OH231371   0.180   1.193   2.823 -0.4313  0.3326  0.0945
 3319TIP3    H131372   0.098   1.200   2.773 -0.2228 -1.7000 -0.6592
 3319TIP3    H231373   0.226   1.119   2.782  2.1127  1.8079  0.0768
 3320TIP3   OH231374   0.669   5.190   0.536  0.2289 -0.3311 -0.4853
 3320TIP3    H131375   0.735   5.167   0.472  0.2556 -0.2350 -0.4931
 3320TIP3    H231376   0.695   5.277   0.567  0.3700 -0.4941 -0.1423
 3321TIP3   OH231377   1.444   2.525  13.275  0.2985  0.0172  0.6991
 3321TIP3    H131378   1.415   2.495  13.189  0.2830  0.4793  0.5426
 3321TIP3    H231379   1.540   2.532  13.266  0.3165 -0.1227  0.7797
 3322TIP3   OH231380   5.293   0.963  12.715 -0.6489 -0.2504 -0.3901
 3322TIP3    H131381   5.218   1.014  12.745 -0.5943 -0.9622  1.0384
 3322TIP3    H231382   5.330   0.925  12.795  0.4288 -1.0067 -1.2156
 3323TIP3   OH231383   0.679   4.408   2.776 -0.4840 -0.7964 -0.6377
 3323TIP3    H131384   0.626   4.453   2.710 -0.2350  0.2460 -0.1413
 3323TIP3    H231385   0.616   4.365   2.833 -0.9277  1.3818  0.6420
 3324TIP3   OH231386   1.594   0.605  11.544  0.8141  0.2398  0.0655
 3324TIP3    H131387   1.511   0.643  11.515  0.5066 -0.7046 -0.3454
 3324TIP3    H231388   1.602   0.632  11.635 -0.2268 -0.1079  0.2756
 3325TIP3   OH231389   1.546   2.897  13.616 -0.1466  0.3263  0.1394
 3325TIP3    H131390   1.523   2.910  13.707 -0.5045  0.8416 -0.0201
 3325TIP3    H231391   1.640   2.877  13.617 -1.0314 -5.4332  1.1586
 3326TIP3   OH231392   5.305   1.060  17.160  0.4484 -0.3086 -0.3405
 3326TIP3    H131393   5.291   1.041  17.253  0.9138 -3.3956 -0.7968
 3326TIP3    H231394   5.216   1.064  17.123  0.2785  0.2593  0.1232
 3327TIP3   OH231395   5.628   5.763   1.994  0.7928  0.1339 -0.9948
 3327TIP3    H131396   5.682   5.737   1.919  2.6179  1.6921 -0.2785
 3327TIP3    H231397   5.652   5.701   2.063  2.1463  1.1176 -0.5233
 3328TIP3   OH231398   0.413   4.924  13.067 -0.5024 -0.3548 -0.5115
 3328TIP3    H131399   0.359   4.873  13.007 -1.4348 -1.9886  1.6059
 3328TIP3    H231400   0.360   4.933  13.146  0.1296  2.9118 -0.3237
 3329TIP3   OH231401   4.422   2.025  13.462 -0.0811 -0.1065  0.7486
 3329TIP3    H131402   4.446   2.115  13.445  0.7631 -0.3361  0.6823
 3329TIP3    H231403   4.499   1.987  13.504  0.3461 -1.3236 -1.0065
 3330TIP3   OH231404   4.835   3.904  12.266 -0.0125  0.3300 -0.6669
 3330TIP3    H131405   4.930   3.893  12.267 -0.0401 -0.1986 -2.1173
 3330TIP3    H231406   4.810   3.890  12.175 -1.5493 -0.0967 -0.2078
 3331TIP3   OH231407   5.345   1.698  11.401  0.4550  0.0479  0.2859
 3331TIP3    H131408   5.343   1.788  11.370 -0.1521 -0.4024 -1.0680
 3331TIP3    H231409   5.375   1.704  11.492 -0.7222  1.6898  0.5951
 3332TIP3   OH231410   0.989   0.264  15.913  0.0396 -0.6273 -0.1511
 3332TIP3    H131411   1.018   0.236  15.827 -0.3298  1.0428 -0.8651
 3332TIP3    H231412   1.039   0.344  15.930 -3.3582  1.9605 -1.1132
 3333TIP3   OH231413   1.464   0.616  16.960  0.5362  0.2191 -0.2586
 3333TIP3    H131414   1.402   0.625  17.032 -0.3922 -1.4767 -0.8127
 3333TIP3    H231415   1.529   0.685  16.977 -0.0092  0.3031  1.8082
 3334TIP3   OH231416   0.475   0.465   2.406  0.6523  0.1478 -0.0778
 3334TIP3    H131417   0.416   0.446   2.333 -0.5311 -1.4519  1.2305
 3334TIP3    H231418   0.550   0.408   2.391  0.3528 -0.2770  0.0127
 3335TIP3   OH231419   0.812   1.290  16.929 -0.3636  0.6721 -0.1737
 3335TIP3    H131420   0.886   1.236  16.958 -2.0297 -1.3474  0.6277
 3335TIP3    H231421   0.748   1.282  16.999 -1.8361  1.3439 -1.3834
 3336TIP3   OH231422   6.269   3.290  13.025  0.0112  0.3286 -0.2586
 3336TIP3    H131423   6.317   3.323  12.948  0.3343 -1.9098 -1.0878
 3336TIP3    H231424   6.177   3.295  12.999  0.1535 -1.3240 -1.2639
 3337TIP3   OH231425   2.964   5.996   3.034  0.3966 -0.5069  0.3053
 3337TIP3    H131426   2.994   5.954   3.115 -1.0241  0.8108  1.5933
 3337TIP3    H231427   3.008   6.081   3.033 -2.2965  1.0789  1.7630
 3338TIP3   OH231428   3.113   1.287   1.436 -0.7111  0.4804  0.3797
 3338TIP3    H131429   3.154   1.354   1.382 -0.4020  0.4532  0.5806
 3338TIP3    H231430   3.104   1.327   1.522 -0.2334  0.1594  0.5843
 3339TIP3   OH231431   6.413   1.365   2.790 -0.1712 -0.3618  0.3204
 3339TIP3    H131432   6.494   1.390   2.833 -0.8041  0.7226  0.9301
 3339TIP3    H231433   6.378   1.293   2.844 -0.3551  0.1730  0.9199
 3340TIP3   OH231434   3.603   1.940  13.654 -0.0856  0.3526  0.1637
 3340TIP3    H131435   3.657   1.985  13.719  0.4123 -0.8386  0.6102
 3340TIP3    H231436   3.663   1.877  13.614 -1.1042 -0.9360  0.6150
 3341TIP3   OH231437   6.456   4.396   0.616 -0.3249  0.2490 -0.2427
 3341TIP3    H131438   6.470   4.371   0.525 -0.7806  0.8331 -0.4761
 3341TIP3    H231439   6.444   4.313   0.662  0.3504 -0.0758 -0.6315
 3342TIP3   OH231440   4.417   5.579   5.164 -0.2312 -0.4185 -0.5428
 3342TIP3    H131441   4.459   5.663   5.182  0.3006 -0.5505 -1.1525
 3342TIP3    H231442   4.452   5.519   5.230 -1.2774  0.0287  0.4606
 3343TIP3   OH231443   1.079   3.620   0.691  0.0848  0.0621  0.3597
 3343TIP3    H131444   0.995   3.581   0.664  0.3252  0.6011 -1.3037
 3343TIP3    H231445   1.085   3.602   0.785 -1.7513 -0.2545  0.4581
 3344TIP3   OH231446   2.022   4.262   2.232 -0.3460  0.1966 -0.5110
 3344TIP3    H131447   1.970   4.194   2.275  0.0477 -0.5869 -1.2418
 3344TIP3    H231448   1.959   4.310   2.178 -0.4869 -0.0958 -0.6064
 3345TIP3   OH231449   2.310   5.383  15.662 -0.7042  0.1090  0.3425
 3345TIP3    H131450   2.317   5.327  15.584  1.2539 -0.2351  0.7120
 3345TIP3    H231451   2.358   5.336  15.730  0.3550  1.8576  0.8757
 3346TIP3   OH231452   4.630   2.116   5.761 -0.5092 -0.0497  0.0487
 3346TIP3    H131453   4.535   2.120   5.749 -0.3035  0.7381 -1.5030
 3346TIP3    H231454   4.654   2.206   5.785 -0.2753 -0.5051  1.6113
 3347TIP3   OH231455   5.908   1.591  15.183 -0.1294 -0.1233 -0.2273
 3347TIP3    H131456   5.993   1.629  15.160  0.2793 -0.1399  1.1300
 3347TIP3    H231457   5.855   1.600  15.105  0.8262  0.7701 -0.7902
 3348TIP3   OH231458   2.055   2.689  14.405  0.0930 -0.1338  0.4566
 3348TIP3    H131459   2.109   2.645  14.339 -0.1360 -1.2888  1.0131
 3348TIP3    H231460   2.038   2.775  14.368  0.0171 -0.7327 -0.9772
 3349TIP3   OH231461   5.411   0.560   1.274 -0.5378  0.4647 -0.2279
 3349TIP3    H131462   5.422   0.620   1.200 -0.2985 -0.0008 -0.5784
 3349TIP3    H231463   5.442   0.476   1.241  0.8037  0.5180  0.7954
 3350TIP3   OH231464   5.592   3.609  11.906  0.1697 -0.6809 -0.2444
 3350TIP3    H131465   5.589   3.582  11.998  1.0654 -0.0632 -0.0227
 3350TIP3    H231466   5.643   3.541  11.863 -2.4296 -2.3952 -0.8381
 3351TIP3   OH231467   6.723   4.070  14.039 -0.3167  0.4698 -0.6192
 3351TIP3    H131468   6.750   4.111  14.121  0.1120  0.3288 -0.6878
 3351TIP3    H231469   6.754   4.129  13.971  0.0171  0.1963 -0.7055
 3352TIP3   OH231470   5.587   2.003  12.996 -0.8091 -0.6760 -0.0743
 3352TIP3    H131471   5.666   2.044  12.962 -0.8468 -1.1222 -0.7211
 3352TIP3    H231472   5.516   2.038  12.941 -1.2164  0.5415  1.1783
 3353TIP3   OH231473   2.204   2.094  13.552  0.4540  0.3835 -0.2417
 3353TIP3    H131474   2.142   2.137  13.611  1.1305  0.4289  0.4521
 3353TIP3    H231475   2.149   2.044  13.492 -0.4221  2.8628 -1.6264
 3354TIP3   OH231476   3.549   2.395   4.024  0.5255 -0.4223 -0.1072
 3354TIP3    H131477   3.571   2.468   4.082  1.4217 -0.3912 -0.4840
 3354TIP3    H231478   3.496   2.434   3.955  0.7538 -0.1768 -0.1457
 3355TIP3   OH231479   1.019   0.548  15.828 -0.0843 -0.0223  0.0167
 3355TIP3    H131480   1.068   0.559  15.746 -0.4826  1.1832 -0.0658
 3355TIP3    H231481   0.941   0.499  15.802 -0.3095  0.5271 -0.3678
 3356TIP3   OH231482   0.908   4.836   4.667  0.3818 -0.7289 -0.0582
 3356TIP3    H131483   0.960   4.875   4.738  0.4715 -0.7234 -0.1269
 3356TIP3    H231484   0.931   4.887   4.589 -1.1833  0.5552  0.2763
 3357TIP3   OH231485   5.283   1.869   5.901 -0.5628 -0.2303 -0.3099
 3357TIP3    H131486   5.287   1.806   5.829  0.4852 -0.5628  0.0180
 3357TIP3    H231487   5.267   1.816   5.979 -0.7688  0.0302 -0.1732
 3358TIP3   OH231488   5.397   2.538  17.155 -0.0441 -0.3051 -0.1025
 3358TIP3    H131489   5.323   2.590  17.126  0.9270  0.3434 -1.5789
 3358TIP3    H231490   5.399   2.463  17.095  0.8847  0.0520 -0.5423
 3359TIP3   OH231491   4.238   6.525  12.276 -0.2263 -0.4077 -0.2595
 3359TIP3    H131492   4.244   6.431  12.260 -1.3446 -0.4868 -0.3507
 3359TIP3    H231493   4.275   6.566  12.198 -1.4464 -0.7880 -1.0736
 3360TIP3   OH231494   3.304   2.574   3.564 -0.5154  0.4550 -0.4218
 3360TIP3    H131495   3.271   2.626   3.638 -0.6990 -1.1933  0.7067
 3360TIP3    H231496   3.398   2.571   3.577 -0.3569  1.4938 -1.1862
 3361TIP3   OH231497   2.639   6.373   5.452 -0.2852  0.3483 -0.1021
 3361TIP3    H131498   2.727   6.373   5.488 -1.0607  1.3700  1.9625
 3361TIP3    H231499   2.644   6.315   5.376  1.9208 -0.3607  0.5090
 3362TIP3   OH231500   0.053   1.560  10.124 -0.0868  0.1077  0.1337
 3362TIP3    H131501   0.093   1.478  10.092  0.2287  1.1123 -2.2699
 3362TIP3    H231502  -0.041   1.549  10.106 -0.0697  0.1954 -0.0094
 3363TIP3   OH231503   5.190   1.579   2.557 -0.2234  0.2903  0.2885
 3363TIP3    H131504   5.128   1.639   2.515 -0.6825  0.0633  0.6324
 3363TIP3    H231505   5.198   1.612   2.647  1.8532  1.6355 -0.3246
 3364TIP3   OH231506   3.601   1.026  14.910  0.0660 -0.2374 -0.3057
 3364TIP3    H131507   3.544   1.100  14.929  0.6533 -0.1963  1.5317
 3364TIP3    H231508   3.541   0.955  14.886 -0.4371  1.2547 -4.2560
 3365TIP3   OH231509   6.330   0.938  13.981  0.3238 -0.3627  0.2153
 3365TIP3    H131510   6.288   0.860  13.946  0.4795  0.1484 -1.1850
 3365TIP3    H231511   6.416   0.909  14.010  0.1021 -0.8394  0.4045
 3366TIP3   OH231512   5.001   0.360  11.762 -0.4352 -0.2997  0.2441
 3366TIP3    H131513   4.906   0.357  11.745 -0.6643  0.1052  1.3848
 3366TIP3    H231514   5.014   0.305  11.839  0.4461 -1.3358 -0.6233
 3367TIP3   OH231515   3.829   2.071  16.950  0.1695  0.6555  0.6153
 3367TIP3    H131516   3.776   2.015  16.894  1.5484 -2.1068  1.9065
 3367TIP3    H231517   3.795   2.056  17.038  0.0543  2.5519  0.9485
 3368TIP3   OH231518   1.275   5.063   5.656 -0.0427 -0.6765 -0.3208
 3368TIP3    H131519   1.188   5.035   5.628 -0.8898  0.7781  0.7322
 3368TIP3    H231520   1.261   5.104   5.741  1.7827 -0.9863  0.1716
 3369TIP3   OH231521   6.510   1.906   3.569  0.1714 -0.1589 -0.0776
 3369TIP3    H131522   6.511   1.942   3.658  2.4415 -1.0897  0.3364
 3369TIP3    H231523   6.484   1.814   3.581  0.0471 -0.1715 -0.4462
 3370TIP3   OH231524   0.270   0.479   2.225 -0.1087  0.1108 -0.5226
 3370TIP3    H131525   0.189   0.484   2.275  0.6263  0.0095  0.7508
 3370TIP3    H231526   0.243   0.455   2.137 -1.4744  0.3529 -0.1944
 3371TIP3   OH231527   3.400   5.906  13.701  0.2034  0.2844 -0.6006
 3371TIP3    H131528   3.428   5.983  13.750 -2.8053  0.1718  1.5883
 3371TIP3    H231529   3.388   5.938  13.612 -0.1806  2.1923  0.0822
 3372TIP3   OH231530   2.749   0.590  13.016  0.2539  0.2246  0.3181
 3372TIP3    H131531   2.710   0.543  13.090 -2.3475  1.8501  0.0652
 3372TIP3    H231532   2.676   0.611  12.959  1.8555  1.3130 -1.4554
 3373TIP3   OH231533   1.191   0.859   4.396  0.8720  0.0833 -0.1331
 3373TIP3    H131534   1.252   0.831   4.464  0.4699  1.6468  0.9221
 3373TIP3    H231535   1.239   0.925   4.346  1.3318 -1.3742 -1.7222
 3374TIP3   OH231536   3.562   5.882   4.920  0.2270 -0.0536 -0.6049
 3374TIP3    H131537   3.471   5.911   4.924  0.1686 -0.3271  0.7956
 3374TIP3    H231538   3.568   5.813   4.987  1.1192 -1.0511 -1.6639
 3375TIP3   OH231539   2.572   0.866   6.141 -0.1107 -0.5691  0.0904
 3375TIP3    H131540   2.492   0.917   6.151  0.3461 -0.1409  2.2556
 3375TIP3    H231541   2.569   0.803   6.214  1.2826 -0.8540 -0.0660
 3376TIP3   OH231542   2.633   5.478  13.942 -0.0603 -0.1363  0.3133
 3376TIP3    H131543   2.638   5.416  13.869 -1.5187  0.7220 -0.5709
 3376TIP3    H231544   2.585   5.553  13.906 -0.4074  0.5117  2.0357
 3377TIP3   OH231545   1.579   1.393   2.302  0.1189 -0.4666 -0.6097
 3377TIP3    H131546   1.630   1.432   2.372  0.6799 -0.3646 -1.0709
 3377TIP3    H231547   1.642   1.343   2.250 -0.8084 -3.3682  0.8540
 3378TIP3   OH231548   3.615   5.469  15.729  0.1351 -0.2194 -0.2026
 3378TIP3    H131549   3.564   5.392  15.702  1.1400 -0.9299 -0.1316
 3378TIP3    H231550   3.551   5.528  15.767 -0.7623 -0.7430 -0.8543
 3379TIP3   OH231551   0.500   1.886   4.517 -0.0129 -0.1885 -0.9458
 3379TIP3    H131552   0.414   1.847   4.534  0.5401 -1.2376 -0.4699
 3379TIP3    H231553   0.489   1.979   4.537 -0.3337 -0.7383  1.8146
 3380TIP3   OH231554   6.426   5.913   0.401  0.3924  0.6575  0.6355
 3380TIP3    H131555   6.383   5.999   0.400  0.3878  0.6536  0.4248
 3380TIP3    H231556   6.514   5.930   0.435  0.6346  0.8632 -0.0731
 3381TIP3   OH231557   5.793   3.875   2.289 -0.1051  0.4223 -0.0343
 3381TIP3    H131558   5.707   3.835   2.304 -1.2589  2.4035 -0.9257
 3381TIP3    H231559   5.777   3.969   2.297  1.4171  1.0098 -2.6581
 3382TIP3   OH231560   4.549   1.631  10.798  0.2090  0.1244  0.0713
 3382TIP3    H131561   4.512   1.558  10.847 -2.1024 -1.1643 -3.1861
 3382TIP3    H231562   4.531   1.708  10.852  0.0968 -1.3750  2.3110
 3383TIP3   OH231563   2.651   6.773  12.451 -0.4282  0.1010  0.5478
 3383TIP3    H131564   2.684   6.688  12.478 -2.1479 -0.4857  0.9211
 3383TIP3    H231565   2.611   6.810  12.530 -1.7983  0.1985 -0.1599
 3384TIP3   OH231566   6.371   6.086  12.524  0.0575  0.1282 -0.1460
 3384TIP3    H131567   6.443   6.113  12.581  1.3423  0.2007 -1.7377
 3384TIP3    H231568   6.405   6.097  12.435 -1.8595 -0.0223 -0.9522
 3385TIP3   OH231569   3.181   3.660  15.142  0.8902 -0.0793 -0.0989
 3385TIP3    H131570   3.209   3.695  15.227  0.9933 -0.1242 -0.1153
 3385TIP3    H231571   3.192   3.565  15.150  2.5513  0.0276 -0.7573
 3386TIP3   OH231572   3.942   3.282  12.285 -0.4206  0.5624  0.0358
 3386TIP3    H131573   3.849   3.269  12.299 -1.1292  1.9748 -2.6204
 3386TIP3    H231574   3.950   3.374  12.258  1.5563  0.1885 -0.9024
 3387TIP3   OH231575   3.193   2.091  15.436 -0.2445 -0.1486  0.2785
 3387TIP3    H131576   3.278   2.051  15.418 -0.3530 -0.6429  0.8045
 3387TIP3    H231577   3.169   2.057  15.523 -0.0091  1.6367  1.0884
 3388TIP3   OH231578   1.800   4.464   5.517  0.0984  0.7758  0.3202
 3388TIP3    H131579   1.750   4.456   5.436 -0.1968  1.6271  0.4130
 3388TIP3    H231580   1.828   4.375   5.536  0.0432  0.5399 -0.6378
 3389TIP3   OH231581   2.263   6.173  11.944 -0.1508 -0.2920  0.5366
 3389TIP3    H131582   2.266   6.077  11.947 -0.9780 -0.3313  0.3924
 3389TIP3    H231583   2.264   6.199  12.036  1.8837 -0.3422  0.5807
 3390TIP3   OH231584   4.426   2.016   0.447 -0.1706 -0.1091  0.2473
 3390TIP3    H131585   4.453   1.994   0.358 -1.0250 -0.7612  0.1216
 3390TIP3    H231586   4.482   1.962   0.504 -1.2819 -1.6305 -0.0137
 3391TIP3   OH231587   3.675   2.842  17.082 -0.2444 -0.0355  0.5820
 3391TIP3    H131588   3.597   2.863  17.032  0.6205 -0.5771 -1.0655
 3391TIP3    H231589   3.706   2.759  17.046  1.9210  0.9044  0.1166
 3392TIP3   OH231590   3.978   3.762  16.381 -0.2729 -0.4342  0.0233
 3392TIP3    H131591   3.944   3.705  16.450 -1.1294  0.4255  0.3357
 3392TIP3    H231592   3.904   3.818  16.358 -0.5123 -1.7104 -2.7030
 3393TIP3   OH231593   4.005   5.355  12.650 -0.0863  0.7949 -0.1379
 3393TIP3    H131594   3.965   5.369  12.564 -0.6001  1.6670  0.2355
 3393TIP3    H231595   4.074   5.421  12.655  1.0565 -0.3231 -0.5393
 3394TIP3   OH231596   4.610   5.560  13.573 -0.5625  0.2465  0.0275
 3394TIP3    H131597   4.568   5.620  13.511  1.8413  1.3101 -0.7094
 3394TIP3    H231598   4.571   5.475  13.554 -1.1007  0.8540 -1.8103
 3395TIP3   OH231599   0.252   1.078  14.764  0.1858  0.0026 -0.4622
 3395TIP3    H131600   0.261   0.983  14.758 -1.5259 -0.1849 -0.6558
 3395TIP3    H231601   0.212   1.103  14.680  0.1611  0.8255 -0.2089
 3396TIP3   OH231602   1.071   1.105  13.265  0.1457  0.2095  0.0710
 3396TIP3    H131603   1.032   1.047  13.331 -1.5646  1.9222  0.6862
 3396TIP3    H231604   1.164   1.104  13.285  0.2279 -2.4232 -0.0895
 3397TIP3   OH231605   3.921   4.182   4.523  0.1532 -0.1245  0.9124
 3397TIP3    H131606   3.946   4.096   4.491  1.9857  0.4381  0.6676
 3397TIP3    H231607   3.998   4.213   4.571 -0.4902  1.3382  1.0782
 3398TIP3   OH231608   2.536   3.430   5.249 -0.2635 -0.5718 -0.3723
 3398TIP3    H131609   2.481   3.499   5.211 -0.0518  0.1485  0.5928
 3398TIP3    H231610   2.493   3.408   5.332  1.1505  0.3821  0.6596
 3399TIP3   OH231611   5.589   5.655  15.397 -0.2910  0.3463  0.0337
 3399TIP3    H131612   5.568   5.616  15.313  0.1075  0.5290 -0.1555
 3399TIP3    H231613   5.671   5.613  15.423  0.9681  2.0953 -0.8877
 3400TIP3   OH231614   3.101   2.593   1.910 -0.2131  0.4977 -0.5075
 3400TIP3    H131615   3.080   2.649   1.835 -0.3851  1.2949  0.1201
 3400TIP3    H231616   3.022   2.541   1.923 -0.9263  1.7306  0.3015
 3401TIP3   OH231617   1.749   3.530   0.608 -0.1412  0.0267 -0.2760
 3401TIP3    H131618   1.698   3.494   0.680 -0.4512  1.4925  0.2745
 3401TIP3    H231619   1.684   3.552   0.541  0.0326 -0.2959 -0.5577
 3402TIP3   OH231620   3.153   3.418   5.511  0.7847 -0.5372 -0.2922
 3402TIP3    H131621   3.166   3.460   5.426 -0.8892 -1.1433 -0.8883
 3402TIP3    H231622   3.198   3.333   5.504  0.7264 -0.5472 -0.5231
 3403TIP3   OH231623   2.069   6.037  13.895  0.1806 -0.2095  0.2124
 3403TIP3    H131624   1.984   6.080  13.909 -0.1626 -0.2390 -1.5992
 3403TIP3    H231625   2.133   6.100  13.929 -0.3353  1.6753 -2.0597
 3404TIP3   OH231626   5.769   0.109   5.054  0.0741  0.0984 -0.3798
 3404TIP3    H131627   5.834   0.157   5.002 -1.6917  0.6465 -2.1962
 3404TIP3    H231628   5.817   0.083   5.133  2.8939 -0.7936 -2.2326
 3405TIP3   OH231629   1.911   2.385   0.676 -0.7731 -0.0601 -0.4277
 3405TIP3    H131630   2.003   2.409   0.682 -0.8813  0.0685  0.9542
 3405TIP3    H231631   1.904   2.305   0.728 -1.7169  0.7969  0.8181
 3406TIP3   OH231632   5.773   3.326  11.971 -0.4302  0.3791 -0.6206
 3406TIP3    H131633   5.811   3.239  11.983  1.9231  1.2026 -1.5482
 3406TIP3    H231634   5.836   3.386  12.012 -1.5927  1.7220 -0.7094
 3407TIP3   OH231635   5.223   5.755  16.140 -0.6215  0.1945  0.2698
 3407TIP3    H131636   5.185   5.795  16.062  0.5470 -1.1426 -1.0659
 3407TIP3    H231637   5.148   5.737  16.197 -1.3972  2.0602 -0.1064
 3408TIP3   OH231638   3.416   1.075   2.672 -0.1393  0.5165  0.4126
 3408TIP3    H131639   3.497   1.123   2.657  0.7871 -0.7153  1.2596
 3408TIP3    H231640   3.356   1.140   2.709  1.0710  1.0558  1.5150
 3409TIP3   OH231641   2.999   1.082  12.980  0.9476  0.1963 -0.5801
 3409TIP3    H131642   2.980   1.072  13.073  0.6155 -0.0100 -0.6681
 3409TIP3    H231643   2.992   0.994  12.944  1.7284  0.1695 -0.6856
 3410TIP3   OH231644   5.288   2.007   2.066  0.3694 -0.5325 -0.2391
 3410TIP3    H131645   5.328   2.014   2.153  0.4687 -2.8737 -0.0173
 3410TIP3    H231646   5.361   2.020   2.005 -0.1056  3.5986 -0.1642
 3411TIP3   OH231647   2.112   5.949  16.238 -0.5241 -0.3318  0.3723
 3411TIP3    H131648   2.201   5.919  16.254 -0.4936 -0.7561 -0.5125
 3411TIP3    H231649   2.122   6.027  16.184 -0.7096 -1.1796 -0.9217
 3412TIP3   OH231650   2.484   5.107   3.141  0.0153 -0.0697  0.4383
 3412TIP3    H131651   2.555   5.059   3.098  1.3173  0.9195  1.4062
 3412TIP3    H231652   2.429   5.139   3.069  0.2936 -1.2025 -0.3082
 3413TIP3   OH231653   2.524   1.240   4.617  0.6646  0.1935  0.1984
 3413TIP3    H131654   2.467   1.211   4.546 -0.2603  1.1796  0.5134
 3413TIP3    H231655   2.470   1.232   4.696  1.1232  0.6508  0.5661
 3414TIP3   OH231656   0.263   6.504   0.369 -0.2264  0.0392 -0.0555
 3414TIP3    H131657   0.293   6.487   0.459 -0.4285 -0.5907 -0.1048
 3414TIP3    H231658   0.182   6.454   0.361 -2.6961  3.4975  0.8587
 3415TIP3   OH231659   0.518   5.242   3.932 -0.1365 -0.4372  0.0184
 3415TIP3    H131660   0.519   5.275   4.022  0.2089  1.3936 -0.6103
 3415TIP3    H231661   0.606   5.209   3.917  0.5454  1.4184 -0.3494
 3416TIP3   OH231662   3.643   3.050  14.949  0.0873  0.2787 -0.0381
 3416TIP3    H131663   3.619   3.036  15.040 -2.3977  0.4449 -0.6037
 3416TIP3    H231664   3.597   2.981  14.901 -1.1763  2.0043 -1.4377
 3417TIP3   OH231665   4.812   3.320   0.391  0.4589 -0.0772 -1.2597
 3417TIP3    H131666   4.835   3.366   0.472 -0.0548  2.1448 -2.2957
 3417TIP3    H231667   4.870   3.357   0.325  0.7288 -1.7039 -1.9778
 3418TIP3   OH231668   0.346   1.255   2.122 -0.4495 -0.5448  0.0766
 3418TIP3    H131669   0.434   1.228   2.149  0.2714  1.9840  0.4773
 3418TIP3    H231670   0.290   1.230   2.196  0.0610 -1.3364  0.2175
 3419TIP3   OH231671   6.153   3.889  15.437 -0.2370 -0.3792 -0.3727
 3419TIP3    H131672   6.111   3.880  15.351 -0.1309 -1.3854 -0.3352
 3419TIP3    H231673   6.097   3.949  15.485 -0.5089 -0.1082 -1.0121
 3420TIP3   OH231674   0.926   4.478  11.216  0.6770 -0.5452 -0.2157
 3420TIP3    H131675   0.926   4.470  11.311  2.8019 -1.6785 -0.2584
 3420TIP3    H231676   0.866   4.550  11.197 -0.3665 -0.7961  1.9162
 3421TIP3   OH231677   3.677   0.711  11.479  0.4143 -0.1425 -0.2311
 3421TIP3    H131678   3.683   0.727  11.574  0.0546  1.0127 -0.3846
 3421TIP3    H231679   3.677   0.616  11.471  2.2828 -0.2969  0.8062
 3422TIP3   OH231680   5.893   1.869  13.935 -1.1339  0.1294  0.2486
 3422TIP3    H131681   5.914   1.934  13.868 -3.2457  3.4002  2.4652
 3422TIP3    H231682   5.805   1.840  13.913 -0.9017 -0.6551  0.3092
 3423TIP3   OH231683   0.437   3.986  13.285 -0.0361  0.6114 -0.4152
 3423TIP3    H131684   0.500   3.915  13.273 -0.8590  0.1556 -2.5457
 3423TIP3    H231685   0.394   3.994  13.200 -1.4056  2.3055  0.3739
 3424TIP3   OH231686   6.335   4.228   5.269  0.2026 -0.2298 -0.0243
 3424TIP3    H131687   6.354   4.134   5.264 -0.7498 -0.4337  0.0163
 3424TIP3    H231688   6.243   4.235   5.246  0.0118  0.5994  0.9434
 3425TIP3   OH231689   5.513   2.001   2.639 -0.2835  0.5209  0.6434
 3425TIP3    H131690   5.555   2.015   2.724  2.0026 -0.8720 -0.1604
 3425TIP3    H231691   5.429   1.960   2.660  1.4205 -2.5423  2.2367
 3426TIP3   OH231692   3.709   6.764  12.698 -0.1014 -0.5642  0.3603
 3426TIP3    H131693   3.661   6.690  12.660 -0.7524 -0.1466  0.3425
 3426TIP3    H231694   3.677   6.840  12.649 -3.6701  0.5607  3.8947
 3427TIP3   OH231695   3.120   3.422  13.145 -0.4342 -0.1285  0.2929
 3427TIP3    H131696   3.210   3.440  13.118 -0.2086 -2.4917 -0.8402
 3427TIP3    H231697   3.074   3.504  13.131  1.5606  1.2027  1.1042
 3428TIP3   OH231698   0.236   1.333  12.931 -0.2896 -0.2566 -0.0262
 3428TIP3    H131699   0.302   1.342  12.862  2.1405  2.7194  2.3994
 3428TIP3    H231700   0.254   1.248  12.971  0.4118 -0.5557 -0.9492
 3429TIP3   OH231701   6.770   0.368   6.240  0.0292  0.7171  0.2433
 3429TIP3    H131702   6.774   0.313   6.318 -1.1906 -0.3649 -0.4242
 3429TIP3    H231703   6.738   0.453   6.272 -1.4326 -0.0071  0.7903
 3430TIP3   OH231704   0.386   4.601  11.665 -0.0284 -0.3649  0.1122
 3430TIP3    H131705   0.387   4.594  11.570  2.3195 -0.3758  0.0860
 3430TIP3    H231706   0.316   4.663  11.684  0.3103  0.6282 -1.7080
 3431TIP3   OH231707   5.416   1.871   4.015 -0.1492 -0.0424  0.0242
 3431TIP3    H131708   5.335   1.916   4.038  0.1467  0.6806 -0.3342
 3431TIP3    H231709   5.395   1.778   4.025 -0.6789  0.1742  1.0553
 3432TIP3   OH231710   5.637   4.326   4.826 -0.3708  0.6540 -0.6000
 3432TIP3    H131711   5.585   4.246   4.835  0.2749  0.3786  1.1148
 3432TIP3    H231712   5.690   4.310   4.747  0.8991 -1.3551  0.5580
 3433TIP3   OH231713   0.200   1.916  13.698  0.5171  0.0845  0.3652
 3433TIP3    H131714   0.197   1.894  13.605  2.2602  1.5747 -0.1013
 3433TIP3    H231715   0.210   2.011  13.700 -2.8033  0.5524  2.1899
 3434TIP3   OH231716   5.687   6.197   5.341 -0.2515 -0.7066  0.1637
 3434TIP3    H131717   5.736   6.238   5.412 -0.6978 -1.7833  1.1307
 3434TIP3    H231718   5.614   6.255   5.325  1.1223  0.7697 -1.0896
 3435TIP3   OH231719   0.658   4.357   0.943  0.0747  0.5371  0.3773
 3435TIP3    H131720   0.714   4.428   0.912  1.3255 -0.7133 -0.3842
 3435TIP3    H231721   0.713   4.309   1.005 -0.0914 -0.8010 -0.4817
 3436TIP3   OH231722   2.128   2.993  11.619  0.1666 -0.2545 -0.3386
 3436TIP3    H131723   2.161   2.964  11.534 -0.5417  0.5582 -0.9135
 3436TIP3    H231724   2.177   2.941  11.683  1.8832  0.2626 -1.1720
 3437TIP3   OH231725   4.496   1.430  11.573 -0.0241  0.1344 -0.3204
 3437TIP3    H131726   4.408   1.439  11.608  0.5454 -0.3938  1.3155
 3437TIP3    H231727   4.483   1.400  11.483 -1.4894 -0.7416  0.1575
 3438TIP3   OH231728   5.335   4.364  11.075 -0.0357  0.1223  0.5233
 3438TIP3    H131729   5.398   4.420  11.030 -2.3035  1.9682 -0.5652
 3438TIP3    H231730   5.251   4.386  11.036 -1.5040 -1.6490  2.4553
 3439TIP3   OH231731   1.114   5.904   2.526  0.1362 -0.1910  0.0438
 3439TIP3    H131732   1.108   5.996   2.551 -0.4975 -0.3583  0.5488
 3439TIP3    H231733   1.187   5.870   2.577 -0.0343 -0.1139  0.3438
 3440TIP3   OH231734   2.746   6.486  17.184 -0.6561 -0.4567 -0.4336
 3440TIP3    H131735   2.686   6.559  17.197  1.9770  1.6817  0.5760
 3440TIP3    H231736   2.736   6.432  17.262 -0.1578  0.7659  0.4990
 3441TIP3   OH231737   2.254   3.409   3.934  0.3836  0.1791 -0.3731
 3441TIP3    H131738   2.338   3.397   3.889  0.2151  0.2270 -0.7031
 3441TIP3    H231739   2.277   3.414   4.027  0.8961  1.4657 -0.5493
 3442TIP3   OH231740   1.005   1.839  16.688  0.4489  0.6726  0.1677
 3442TIP3    H131741   1.030   1.887  16.610  1.4875  0.5196  0.3947
 3442TIP3    H231742   0.909   1.843  16.689  0.4835  1.9767 -0.2832
 3443TIP3   OH231743   4.951   0.919  12.963 -0.1471  0.0468  0.6086
 3443TIP3    H131744   4.894   0.983  12.920 -0.4631  0.0044  0.9554
 3443TIP3    H231745   4.892   0.848  12.987  0.3818 -0.9411 -0.8309
 3444TIP3   OH231746   2.235   5.082  14.430 -0.4120 -0.5082  0.3378
 3444TIP3    H131747   2.209   5.077  14.338  0.5625 -0.5133  0.0420
 3444TIP3    H231748   2.183   5.015  14.474 -1.1376 -0.2654 -0.1466
 3445TIP3   OH231749   0.049   6.732   5.195  0.1651 -0.0117  0.4722
 3445TIP3    H131750   0.003   6.715   5.113 -1.1033 -1.2165  1.3816
 3445TIP3    H231751   0.045   6.827   5.206  1.2307  0.2959 -1.3104
 3446TIP3   OH231752   3.737   2.799  13.619  0.2413  0.2886 -0.0541
 3446TIP3    H131753   3.674   2.766  13.556  1.3064 -1.5010 -0.2347
 3446TIP3    H231754   3.779   2.873  13.574 -0.0055 -0.0613 -0.8776
 3447TIP3   OH231755   0.436   4.062  12.768 -0.2407 -0.5028  0.4137
 3447TIP3    H131756   0.411   4.136  12.712  0.5801 -0.9111 -0.5174
 3447TIP3    H231757   0.523   4.036  12.737 -0.4680 -1.7933  0.7814
 3448TIP3   OH231758   3.960   5.077   1.221  0.9025 -0.3104  0.0767
 3448TIP3    H131759   3.938   4.994   1.179 -0.6520 -0.2287  0.6555
 3448TIP3    H231760   3.935   5.144   1.158 -1.8215 -0.1708  1.1518
 3449TIP3   OH231761   5.175   1.830  13.116  0.2965 -0.0622 -0.6068
 3449TIP3    H131762   5.143   1.908  13.072  1.4302  0.1833 -1.0302
 3449TIP3    H231763   5.136   1.833  13.204  1.8844  2.0632  0.1058
 3450TIP3   OH231764   6.036   6.773   1.915  0.1789  0.1830 -0.3672
 3450TIP3    H131765   6.112   6.729   1.875 -0.6463 -1.6969  0.0081
 3450TIP3    H231766   6.073   6.819   1.990  1.3282  1.5129 -1.6894
 3451TIP3   OH231767   4.505   0.910   5.873 -0.3015  0.5502 -0.1031
 3451TIP3    H131768   4.564   0.984   5.884 -0.1599  0.4130  0.0731
 3451TIP3    H231769   4.421   0.949   5.849  0.1880  0.6837 -1.7391
 3452TIP3   OH231770   4.597   6.646  12.456 -0.6101  0.0078 -0.1069
 3452TIP3    H131771   4.647   6.712  12.409 -1.7210  0.8232 -0.1855
 3452TIP3    H231772   4.513   6.688  12.475 -0.4866 -0.5392  1.9430
 3453TIP3   OH231773   0.072   0.101   3.279  0.2682 -0.0624  0.0525
 3453TIP3    H131774   0.018   0.056   3.213 -0.0423 -0.9142  0.8587
 3453TIP3    H231775   0.131   0.156   3.228 -0.9407  0.4265 -0.8819
 3454TIP3   OH231776   6.285   1.050   1.474  0.4990 -0.8259 -0.0595
 3454TIP3    H131777   6.296   1.077   1.383  0.8686  0.4554  0.3504
 3454TIP3    H231778   6.193   1.026   1.481  0.0715  0.6608 -0.3678
 3455TIP3   OH231779   5.191   5.210  12.899  0.5395  0.5951 -0.0943
 3455TIP3    H131780   5.121   5.266  12.931  0.3763  1.2711 -1.5739
 3455TIP3    H231781   5.192   5.223  12.805  0.9284 -1.4046 -0.4219
 3456TIP3   OH231782   6.754   6.651  12.627  0.3971  0.1575 -0.2479
 3456TIP3    H131783   6.744   6.725  12.568  2.0812  1.1015  0.5742
 3456TIP3    H231784   6.672   6.647  12.676  1.1774  3.3082  1.6342
 3457TIP3   OH231785   4.554   0.465   0.196 -0.8922 -0.1181  0.7641
 3457TIP3    H131786   4.617   0.507   0.138  0.6655 -2.7926  0.3342
 3457TIP3    H231787   4.471   0.471   0.150 -0.5410  1.5253  0.2841
 3458TIP3   OH231788   3.203   0.153  14.268  0.4196  0.3772  0.2845
 3458TIP3    H131789   3.160   0.069  14.284  1.1511 -0.1392 -0.3567
 3458TIP3    H231790   3.296   0.131  14.261  0.7948  1.4609  1.5966
 3459TIP3   OH231791   0.517   1.499  16.615 -0.2337 -0.0075 -0.2994
 3459TIP3    H131792   0.577   1.449  16.671 -0.3360  0.9012  0.6403
 3459TIP3    H231793   0.480   1.434  16.556  1.3918 -0.6591 -0.6542
 3460TIP3   OH231794   5.721   2.644   4.504 -0.0836  0.4633 -0.1848
 3460TIP3    H131795   5.645   2.597   4.540  0.9455  0.1074  1.6616
 3460TIP3    H231796   5.743   2.596   4.424 -1.1031 -0.1177 -0.1354
 3461TIP3   OH231797   1.940   1.364   2.094  0.3216 -0.3412  0.8858
 3461TIP3    H131798   1.998   1.292   2.118  0.8127 -0.4658 -0.5367
 3461TIP3    H231799   1.869   1.322   2.045  1.6354  0.2675 -1.7016
 3462TIP3   OH231800   6.609   4.155   0.872  0.0299  0.0134  0.1844
 3462TIP3    H131801   6.527   4.140   0.824  0.9189 -1.1759 -1.0178
 3462TIP3    H231802   6.674   4.169   0.803  1.3449 -1.7182  1.0355
 3463TIP3   OH231803   6.224   2.812  13.507 -0.5623 -0.0825 -0.0764
 3463TIP3    H131804   6.132   2.787  13.519 -0.0841 -1.7891  0.3780
 3463TIP3    H231805   6.269   2.729  13.491  1.4832  0.1842  3.3293
 3464TIP3   OH231806   4.068   2.436  13.685  0.0023  0.0209  0.2607
 3464TIP3    H131807   4.077   2.490  13.606 -0.5713 -0.7296 -0.3422
 3464TIP3    H231808   4.071   2.498  13.757  0.5819  0.7252 -0.3484
 3465TIP3   OH231809   2.683   3.939   0.206 -0.3534 -0.6520  0.6191
 3465TIP3    H131810   2.659   3.851   0.178 -0.6640 -0.5932  0.6977
 3465TIP3    H231811   2.612   3.995   0.175  0.1705 -0.3269 -0.0176
 3466TIP3   OH231812   0.889   0.395   5.172  0.2630  0.0876 -0.0053
 3466TIP3    H131813   0.874   0.393   5.266  0.2319  1.2595  0.0225
 3466TIP3    H231814   0.976   0.434   5.162  0.7468 -1.0411 -0.4270
 3467TIP3   OH231815   5.767   1.144  11.995  0.0555 -0.4337 -0.2261
 3467TIP3    H131816   5.832   1.207  11.963 -3.0096  1.4100 -3.6800
 3467TIP3    H231817   5.706   1.197  12.046 -0.9735 -1.1921 -0.6413
 3468TIP3   OH231818   5.967   1.195  12.551  0.1772 -0.8040 -0.6765
 3468TIP3    H131819   5.905   1.149  12.495 -0.0598 -0.2196 -0.9104
 3468TIP3    H231820   6.025   1.127  12.584  0.6080 -1.1048 -2.0041
 3469TIP3   OH231821   2.167   2.862   4.142 -0.4147  0.1767  0.5452
 3469TIP3    H131822   2.210   2.946   4.121 -0.0612 -0.1722 -0.1851
 3469TIP3    H231823   2.160   2.818   4.057 -1.2625 -0.2297  0.8188
 3470TIP3   OH231824   4.405   3.182  12.428 -0.2679 -0.4531 -0.0457
 3470TIP3    H131825   4.342   3.114  12.403 -1.4488 -1.0531  3.8880
 3470TIP3    H231826   4.354   3.263  12.426  0.4780  0.0243 -2.3258
 3471TIP3   OH231827   5.147   1.240  15.210  0.0242  0.3450  0.1582
 3471TIP3    H131828   5.161   1.146  15.221 -0.8008  0.3330  1.2170
 3471TIP3    H231829   5.228   1.280  15.241  0.1687  0.0071  0.2215
 3472TIP3   OH231830   5.678   5.857   0.339  0.2989  0.4028  0.0185
 3472TIP3    H131831   5.633   5.927   0.387 -0.3991 -0.2693  0.3677
 3472TIP3    H231832   5.644   5.863   0.250 -0.5773 -0.1533  0.2983
 3473TIP3   OH231833   1.671   2.055  13.840  0.0512  0.2723  0.3662
 3473TIP3    H131834   1.592   2.103  13.818 -0.4875 -1.4732 -1.8377
 3473TIP3    H231835   1.668   2.046  13.936 -1.9287  0.9973  0.4138
 3474TIP3   OH231836   1.049   0.334   5.852 -0.0688 -0.2909  0.4975
 3474TIP3    H131837   0.972   0.336   5.910  0.3723 -1.4462  1.1377
 3474TIP3    H231838   1.062   0.241   5.832  0.3767  0.0093 -0.6793
 3475TIP3   OH231839   3.042   1.075   0.271  0.7306 -0.6393 -0.4680
 3475TIP3    H131840   3.000   1.059   0.186 -1.7811 -0.0292  0.5467
 3475TIP3    H231841   3.073   1.165   0.266 -2.4774  0.6596  0.2732
 3476TIP3   OH231842   0.338   6.770  16.042  0.2089  0.3852 -0.7059
 3476TIP3    H131843   0.433   6.764  16.054  0.0056 -0.4043  0.7370
 3476TIP3    H231844   0.303   6.697  16.092 -1.2121  1.0806 -0.6409
 3477TIP3   OH231845   0.647   4.241   3.064 -0.6410 -0.0080 -0.0253
 3477TIP3    H131846   0.724   4.198   3.025 -0.0607 -1.1194  2.1695
 3477TIP3    H231847   0.591   4.169   3.091 -1.4230  0.7434  0.3993
 3478TIP3   OH231848   5.651   1.660   3.417  0.0737 -0.3044  0.0211
 3478TIP3    H131849   5.643   1.752   3.440 -0.1574 -0.3762  0.2335
 3478TIP3    H231850   5.717   1.658   3.348 -0.1558  0.0552 -0.2098
 3479TIP3   OH231851   5.442   0.135  13.946 -0.1338  0.3705 -0.2121
 3479TIP3    H131852   5.494   0.205  13.907 -0.2842  0.2145 -0.7002
 3479TIP3    H231853   5.356   0.142  13.904 -0.4429  0.4967  0.4399
 3480TIP3   OH231854   5.901   1.636  13.576 -0.1545 -0.1872 -0.6430
 3480TIP3    H131855   5.837   1.706  13.565  0.2009  0.2378 -0.0691
 3480TIP3    H231856   5.926   1.612  13.486 -2.6007 -1.7959 -1.0092
 3481TIP3   OH231857   2.865   6.053  15.916 -0.5043  0.1130 -0.3103
 3481TIP3    H131858   2.826   6.026  16.000 -0.4523  0.9184 -0.0152
 3481TIP3    H231859   2.839   5.985  15.854 -1.4830  0.0835  0.1215
 3482TIP3   OH231860   1.618   0.275   6.035  0.2474  0.5030  0.7016
 3482TIP3    H131861   1.577   0.189   6.048 -1.7570  1.4770  1.2683
 3482TIP3    H231862   1.644   0.303   6.122  0.2151  0.7847  0.6221
 3483TIP3   OH231863   6.121   4.185  15.250 -0.3223 -0.2646  0.5493
 3483TIP3    H131864   6.061   4.162  15.180 -1.1583 -0.8778  1.4516
 3483TIP3    H231865   6.185   4.114  15.252  2.5963  1.9120 -2.6229
 3484TIP3   OH231866   1.836   4.325  13.347  0.4617 -0.4780  0.1404
 3484TIP3    H131867   1.770   4.256  13.335  0.2406 -0.8334  2.8699
 3484TIP3    H231868   1.807   4.373  13.424  2.5687  0.3695  0.4720
 3485TIP3   OH231869   4.997   2.709   5.656 -0.2060  0.9393 -0.4173
 3485TIP3    H131870   4.917   2.753   5.628  0.4830  1.4646 -1.6326
 3485TIP3    H231871   5.032   2.765   5.725 -0.5354  1.0628 -0.3502
 3486TIP3   OH231872   5.768   2.079   2.825 -0.0324 -0.1261  0.0474
 3486TIP3    H131873   5.850   2.128   2.821 -0.2977  0.2410 -1.1215
 3486TIP3    H231874   5.703   2.137   2.786 -0.0376 -2.0214 -3.0469
 3487TIP3   OH231875   1.711   0.223   2.766 -0.2355  0.2764 -0.2702
 3487TIP3    H131876   1.658   0.299   2.789 -1.6469 -0.7166 -0.0913
 3487TIP3    H231877   1.681   0.154   2.825 -0.4122 -0.9710 -1.7446
 3488TIP3   OH231878   2.915   3.390  15.947  0.2789 -0.2531  0.5714
 3488TIP3    H131879   2.894   3.469  15.996  0.5175 -0.1133  0.4482
 3488TIP3    H231880   2.855   3.391  15.872  0.6138  0.0649  0.3036
 3489TIP3   OH231881   4.158   5.948  12.886 -0.5546 -0.0053  0.1776
 3489TIP3    H131882   4.068   5.976  12.871 -0.7561 -1.4567 -1.8737
 3489TIP3    H231883   4.190   5.924  12.799  0.5997 -2.9039  1.2603
 3490TIP3   OH231884   2.327   3.541  13.009  0.0039  0.8566 -0.2587
 3490TIP3    H131885   2.415   3.508  13.026  1.1749  3.2663 -1.1495
 3490TIP3    H231886   2.300   3.582  13.091 -0.0664  0.5901 -0.1476
 3491TIP3   OH231887   5.645   2.100   4.962  0.3950 -0.7288  0.0547
 3491TIP3    H131888   5.549   2.110   4.958  0.3349 -1.1780  0.3081
 3491TIP3    H231889   5.665   2.037   4.892  0.5889 -0.0893 -0.4710
 3492TIP3   OH231890   5.473   2.045   5.284 -0.3650  0.2397  0.4991
 3492TIP3    H131891   5.565   2.030   5.261 -0.8848  0.1365 -1.8259
 3492TIP3    H231892   5.445   2.114   5.224 -2.1850 -0.7783  0.1100
 3493TIP3   OH231893   2.184   5.796   5.674 -0.2266 -0.2082  0.1963
 3493TIP3    H131894   2.165   5.794   5.768  0.4577  2.2476  0.4487
 3493TIP3    H231895   2.098   5.801   5.633 -0.5346 -1.3726  0.6725
 3494TIP3   OH231896   4.002   3.799  13.403 -0.2091  0.2833 -0.2251
 3494TIP3    H131897   4.017   3.849  13.323 -0.8874  0.3048 -0.3406
 3494TIP3    H231898   3.952   3.722  13.374  3.2124 -2.0629 -0.5754
 3495TIP3   OH231899   6.072   2.055  11.417 -0.1632  0.3840  0.2052
 3495TIP3    H131900   5.992   2.011  11.388 -0.1183  0.3694  0.1029
 3495TIP3    H231901   6.133   1.984  11.436 -0.5183  0.3566  1.2971
 3496TIP3   OH231902   4.178   3.951   4.962  0.0599  0.2645 -0.5048
 3496TIP3    H131903   4.161   3.917   5.050 -0.2510 -1.1458 -1.0881
 3496TIP3    H231904   4.143   4.040   4.963  0.7988  0.5672  1.0453
 3497TIP3   OH231905   2.422   5.628   2.470 -0.0825  0.3099  0.0420
 3497TIP3    H131906   2.497   5.644   2.527 -1.6675  0.5395  2.1936
 3497TIP3    H231907   2.455   5.568   2.403  1.3131 -2.1240  2.6765
 3498TIP3   OH231908   2.859   2.012   5.506 -0.4224 -0.2254 -0.0606
 3498TIP3    H131909   2.870   2.101   5.539 -0.8373 -0.5747  1.0663
 3498TIP3    H231910   2.768   1.990   5.524 -0.2375 -1.0027 -0.0215
 3499TIP3   OH231911   0.244   4.455   3.025  0.4312 -0.2902  0.1269
 3499TIP3    H131912   0.306   4.526   3.010 -0.7530  1.2769  2.0652
 3499TIP3    H231913   0.266   4.389   2.960  2.0609  1.5395 -1.2934
 3500TIP3   OH231914   1.652   3.381   0.839 -0.1609  0.7037  0.9680
 3500TIP3    H131915   1.582   3.355   0.899 -0.1325 -0.7767  0.3901
 3500TIP3    H231916   1.727   3.398   0.896  0.0205 -1.2070  1.3581
 3501TIP3   OH231917   6.254   1.918   2.923 -0.7738 -0.1967  0.2457
 3501TIP3    H131918   6.187   1.869   2.971 -1.3037 -0.7555 -1.0338
 3501TIP3    H231919   6.219   1.926   2.834  0.1692  0.8535 -0.0456
 3502TIP3   OH231920   5.285   1.316   4.286  0.1295 -0.0573 -0.2423
 3502TIP3    H131921   5.264   1.302   4.379  0.4268  1.0591  0.0050
 3502TIP3    H231922   5.381   1.321   4.284  0.1005  0.4423 -0.5252
 3503TIP3   OH231923   0.007   3.682  12.785  0.1288 -0.1759 -0.3483
 3503TIP3    H131924   0.019   3.597  12.743 -0.6760 -0.6144  0.2701
 3503TIP3    H231925   0.045   3.745  12.724  0.9523 -0.9961 -0.7131
 3504TIP3   OH231926   0.754   5.701   1.793 -0.3627  0.5693 -0.2756
 3504TIP3    H131927   0.816   5.660   1.734  0.0706 -0.3882  0.8043
 3504TIP3    H231928   0.802   5.775   1.830 -1.4263  2.7338 -2.8794
 3505TIP3   OH231929   6.582   1.846  17.029  0.2818  0.2672  0.3914
 3505TIP3    H131930   6.498   1.834  16.984  0.6564  1.7107 -0.7678
 3505TIP3    H231931   6.644   1.795  16.978 -0.0863 -2.1547  2.1756
 3506TIP3   OH231932   2.426   2.276  16.638 -0.1199 -0.2560 -0.1750
 3506TIP3    H131933   2.455   2.263  16.548 -1.0355 -0.4863 -0.4480
 3506TIP3    H231934   2.448   2.194  16.682 -0.0194 -0.2899 -0.2874
 3507TIP3   OH231935   2.451   4.137  13.792  0.1963  0.4375  0.5400
 3507TIP3    H131936   2.446   4.103  13.703 -0.5001 -0.1409  0.7941
 3507TIP3    H231937   2.462   4.231  13.781  0.3913  0.3448 -0.1526
 3508TIP3   OH231938   0.539   3.707  11.580  0.3075 -0.7234  0.0522
 3508TIP3    H131939   0.547   3.623  11.534  0.0179 -0.7153 -0.0157
 3508TIP3    H231940   0.452   3.740  11.555 -0.1420 -1.0385  1.1322
 3509TIP3   OH231941   2.690   6.295   3.612  0.0770  0.2400  0.4769
 3509TIP3    H131942   2.595   6.290   3.604 -0.0746  1.6571  1.0614
 3509TIP3    H231943   2.716   6.357   3.544  0.8275 -1.4939 -0.9088
 3510TIP3   OH231944   4.696   1.916   4.366  1.1185 -0.2023  0.2111
 3510TIP3    H131945   4.734   1.993   4.323  2.1243 -0.5760  0.4013
 3510TIP3    H231946   4.614   1.947   4.403 -0.6775 -0.2310 -3.3486
 3511TIP3   OH231947   5.242   6.250   1.500  0.1545 -0.4440 -0.3732
 3511TIP3    H131948   5.316   6.310   1.506  0.5500 -0.9979  0.4654
 3511TIP3    H231949   5.167   6.300   1.533 -0.0194  0.3442 -1.8478
 3512TIP3   OH231950   2.992   3.052  13.627  0.4766  0.3509  0.4383
 3512TIP3    H131951   2.959   3.063  13.716 -0.8451  1.1734 -0.1248
 3512TIP3    H231952   3.060   3.118  13.618 -0.6644  1.5325  0.2572
 3513TIP3   OH231953   1.515   1.661   1.731 -0.1379  0.1282 -0.0139
 3513TIP3    H131954   1.517   1.717   1.809  2.0621  0.0494  0.0285
 3513TIP3    H231955   1.455   1.706   1.671  1.1056  2.2683  0.2501
 3514TIP3   OH231956   1.721   1.999  16.628  0.3560  0.1206 -0.2451
 3514TIP3    H131957   1.802   1.956  16.654  0.3363  0.8116  1.0305
 3514TIP3    H231958   1.705   1.967  16.539  0.6475 -2.0369  0.4103
 3515TIP3   OH231959   0.987   3.968  11.654 -0.1182  0.2283  0.6022
 3515TIP3    H131960   0.943   3.884  11.642 -0.4642  0.5087 -0.1617
 3515TIP3    H231961   0.967   3.993  11.744 -0.4729 -0.2395  0.6584
 3516TIP3   OH231962   6.373   3.754   1.766  0.4064 -0.0179  0.5792
 3516TIP3    H131963   6.301   3.731   1.707 -0.5247 -2.6729  2.5099
 3516TIP3    H231964   6.349   3.839   1.802 -1.6139 -0.6666  0.8733
 3517TIP3   OH231965   2.588   0.803  11.354  0.1268  0.2339 -0.3166
 3517TIP3    H131966   2.498   0.821  11.329  0.3146  1.3572 -0.2025
 3517TIP3    H231967   2.640   0.866  11.305  0.7927  0.1173  0.2226
 3518TIP3   OH231968   3.893   5.948  10.969  0.0001 -0.3057  0.2462
 3518TIP3    H131969   3.863   6.012  10.904 -1.7643 -0.8978  0.4123
 3518TIP3    H231970   3.836   5.872  10.955 -0.2097 -0.5683  2.2472
 3519TIP3   OH231971   2.696   3.842  14.677  0.2124  0.3872  0.1638
 3519TIP3    H131972   2.742   3.921  14.706 -1.1709  0.7953  1.3246
 3519TIP3    H231973   2.746   3.770  14.716  1.2782  0.6819 -0.6156
 3520TIP3   OH231974   2.683   1.363   1.738  0.2939 -0.7724  0.1639
 3520TIP3    H131975   2.769   1.405   1.733 -0.5571  1.0104 -0.0399
 3520TIP3    H231976   2.695   1.292   1.802  1.7778 -0.2647  0.4948
 3521TIP3   OH231977   4.336   4.442  15.399 -0.3358 -0.1323  0.8634
 3521TIP3    H131978   4.378   4.512  15.349 -1.8250  1.1151  1.2780
 3521TIP3    H231979   4.286   4.393  15.334  0.3332 -0.5311  0.6430
 3522TIP3   OH231980   1.542   4.074  13.028  0.1718 -0.3477  0.2336
 3522TIP3    H131981   1.598   4.040  12.958  0.1808  1.6102 -0.7669
 3522TIP3    H231982   1.471   4.010  13.035  2.0207 -2.4586  0.9713
 3523TIP3   OH231983   2.179   6.201  14.611 -0.4160 -0.1681  0.1570
 3523TIP3    H131984   2.113   6.178  14.677  1.3490  2.1246  2.9516
 3523TIP3    H231985   2.214   6.285  14.640  2.5400 -0.4445 -2.1156
 3524TIP3   OH231986   2.938   0.540  11.888 -0.8643  0.5091  0.4291
 3524TIP3    H131987   2.918   0.506  11.801  1.4696 -0.4875  0.2226
 3524TIP3    H231988   2.925   0.634  11.881 -0.4403  0.4707 -1.0755
 3525TIP3   OH231989   0.925   5.458   2.706 -0.0389 -0.2969  0.7847
 3525TIP3    H131990   0.870   5.383   2.731 -0.5630 -0.7404 -1.4694
 3525TIP3    H231991   1.010   5.419   2.685 -0.1021 -0.1897  0.3058
 3526TIP3   OH231992   5.432   2.826   5.701  0.5190  0.6454  0.2889
 3526TIP3    H131993   5.401   2.913   5.680  0.5774  0.4131 -0.8277
 3526TIP3    H231994   5.387   2.768   5.640  1.6323  0.0787 -0.0313
 3527TIP3   OH231995   0.968   0.782   5.099 -0.1521 -0.0067  0.6644
 3527TIP3    H131996   0.959   0.837   5.021 -0.5151 -1.8312 -0.6402
 3527TIP3    H231997   0.924   0.831   5.168 -0.6532  1.2346 -0.4858
 3528TIP3   OH231998   2.714   0.791   3.466 -0.9065 -0.0675  0.4799
 3528TIP3    H131999   2.765   0.758   3.541 -0.5482 -0.6940 -0.0266
 3528TIP3    H232000   2.744   0.737   3.392 -0.5714  1.1672 -0.3031
 3529TIP3   OH232001   2.451   5.700  12.853  0.1332  0.1219  0.7189
 3529TIP3    H132002   2.429   5.608  12.867  1.6675 -0.0539  2.2704
 3529TIP3    H232003   2.544   5.700  12.832 -0.4416  1.1187 -2.2181
 3530TIP3   OH232004   6.226   6.314  15.669  0.3370  0.4425  0.3929
 3530TIP3    H132005   6.247   6.255  15.597  0.2316 -1.3372  1.7413
 3530TIP3    H232006   6.279   6.282  15.742 -1.4457  0.5698  1.8074
 3531TIP3   OH232007   2.006   3.841  17.140  0.2085 -0.4581 -0.6913
 3531TIP3    H132008   2.086   3.891  17.126  2.4913 -3.2184  1.4273
 3531TIP3    H232009   1.950   3.899  17.191  1.0273  1.3349 -1.7343
 3532TIP3   OH232010   2.821   5.312  16.684  0.1365  0.0321  0.1783
 3532TIP3    H132011   2.744   5.326  16.740 -0.0156 -1.7335  0.4920
 3532TIP3    H232012   2.882   5.381  16.709 -0.7907  0.6008  0.9628
 3533TIP3   OH232013   3.364   2.807   2.088 -0.8149 -1.4255  0.1772
 3533TIP3    H132014   3.384   2.797   2.181  2.5103 -2.7361 -0.5406
 3533TIP3    H232015   3.363   2.901   2.074 -1.0978 -1.2153  1.4705
 3534TIP3   OH232016   0.098   3.365   1.427  0.7435 -0.1381 -0.4092
 3534TIP3    H132017   0.188   3.357   1.394  0.7711  1.5670 -0.8736
 3534TIP3    H232018   0.093   3.455   1.458 -0.0967 -0.9095  1.8770
 3535TIP3   OH232019   5.231   1.103   1.718  0.4858  0.4092  1.0082
 3535TIP3    H132020   5.190   1.061   1.794 -0.7035 -0.2378  0.0461
 3535TIP3    H232021   5.315   1.057   1.708  0.2766 -0.0758  1.4210
 3536TIP3   OH232022   1.608   0.072   4.197 -0.6126 -0.4187  0.1505
 3536TIP3    H132023   1.656   0.003   4.243 -1.6584 -1.0055  0.3988
 3536TIP3    H232024   1.620   0.051   4.104  1.0755  0.4741  0.1397
 3537TIP3   OH232025   4.182   3.032   3.337  0.3605  0.1287  0.3055
 3537TIP3    H132026   4.269   2.999   3.315 -0.2329 -0.4691 -1.2351
 3537TIP3    H232027   4.195   3.126   3.348  1.1196  0.1249 -0.4261
 3538TIP3   OH232028   5.609   3.856  11.416 -0.3400 -0.6362  0.2203
 3538TIP3    H132029   5.515   3.842  11.428 -0.3172 -0.2231  0.9113
 3538TIP3    H232030   5.649   3.817  11.493  0.0581 -0.8224 -0.0821
 3539TIP3   OH232031   5.174   6.195   1.856  0.2992 -0.5443  0.3115
 3539TIP3    H132032   5.098   6.251   1.841 -1.1621 -2.1199  1.3594
 3539TIP3    H232033   5.241   6.254   1.889 -0.8050  0.7593  0.3383
 3540TIP3   OH232034   2.251   6.684  14.240  0.2211  0.0078 -0.0849
 3540TIP3    H132035   2.198   6.608  14.217 -0.7496  0.5129  0.4641
 3540TIP3    H232036   2.264   6.677  14.335 -0.1497  0.6867  0.0256
 3541TIP3   OH232037   0.416   2.065  16.731 -0.1261 -0.1875 -0.5281
 3541TIP3    H132038   0.428   1.983  16.778 -0.3147 -0.4234 -0.8897
 3541TIP3    H232039   0.468   2.129  16.780 -0.8984 -0.2725  0.4176
 3542TIP3   OH232040   0.857   4.176  15.951  0.2804 -0.5677  0.3251
 3542TIP3    H132041   0.792   4.152  15.884  0.6419 -0.6144 -0.0146
 3542TIP3    H232042   0.931   4.118  15.934  0.7236  0.0237  0.2025
 3543TIP3   OH232043   1.692   2.518  13.465  0.1128  0.4680 -0.4177
 3543TIP3    H132044   1.748   2.562  13.529 -0.0160  0.7043 -0.4661
 3543TIP3    H232045   1.735   2.434  13.450 -0.7914 -0.3478  1.2972
 3544TIP3   OH232046   6.765   5.689  11.158  0.5991 -0.2210  0.0371
 3544TIP3    H132047   6.673   5.708  11.145  0.6609 -0.2825 -0.5384
 3544TIP3    H232048   6.809   5.774  11.152  0.3842  0.1108  2.3965
 3545TIP3   OH232049   4.567   2.812  14.022 -0.8202  0.3046  0.3306
 3545TIP3    H132050   4.532   2.783  14.106  0.0663  0.1320  0.6496
 3545TIP3    H232051   4.520   2.759  13.958 -0.6434 -0.4298  0.7936
 3546TIP3   OH232052   2.276   6.038   1.076 -0.2965  0.3293  0.0611
 3546TIP3    H132053   2.278   6.038   1.172  1.5541  0.0502  0.0538
 3546TIP3    H232054   2.249   5.949   1.053  0.1623  0.1161  0.3299
 3547TIP3   OH232055   4.090   1.733  12.002  0.4646  0.2428  0.5412
 3547TIP3    H132056   4.006   1.779  12.008 -0.0388 -0.5009 -0.6231
 3547TIP3    H232057   4.147   1.793  11.953  0.6033  0.7003  1.2385
 3548TIP3   OH232058   1.376   0.420   6.116  0.4812  0.2303 -0.2693
 3548TIP3    H132059   1.352   0.462   6.034  3.4287  3.7868  0.3625
 3548TIP3    H232060   1.451   0.365   6.094 -0.6262 -1.2685 -0.3853
 3549TIP3   OH232061   4.977   4.287  15.000 -0.3702  0.0057 -0.2691
 3549TIP3    H132062   4.963   4.278  15.095  1.7685  1.8841  0.3271
 3549TIP3    H232063   5.066   4.255  14.986 -1.4470 -2.4690 -2.1348
 3550TIP3   OH232064   5.414   2.958  15.458 -0.3445 -0.5068  0.0662
 3550TIP3    H132065   5.358   3.014  15.404 -2.1580 -1.0738  1.2478
 3550TIP3    H232066   5.425   3.006  15.540  2.6536  0.4941 -0.7868
 3551TIP3   OH232067   4.391   3.856  12.651 -0.3070 -0.0589  0.1076
 3551TIP3    H132068   4.416   3.943  12.684  0.0621 -0.2623  0.3716
 3551TIP3    H232069   4.338   3.819  12.722 -2.8480  1.0283 -1.1144
 3552TIP3   OH232070   3.504   6.539   2.060 -0.0871 -0.9241 -0.0151
 3552TIP3    H132071   3.482   6.468   2.000 -0.3134 -0.7762 -0.1083
 3552TIP3    H232072   3.451   6.522   2.138  0.6800 -1.4732  0.3991
 3553TIP3   OH232073   4.817   5.208   1.601  0.5541  0.0393  0.0887
 3553TIP3    H132074   4.863   5.291   1.611  0.9860 -0.1292 -0.4572
 3553TIP3    H232075   4.729   5.233   1.572  1.1685  0.2557 -1.6966
 3554TIP3   OH232076   5.852   3.325  14.490  0.1612  0.0534 -0.2288
 3554TIP3    H132077   5.916   3.264  14.452 -2.9242 -2.5029 -1.7339
 3554TIP3    H232078   5.773   3.314  14.437 -2.8881 -0.0387  3.8550
 3555TIP3   OH232079   4.851   1.119  16.629  0.1689  0.6697  0.1277
 3555TIP3    H132080   4.803   1.201  16.641 -0.9525  0.0881 -0.2759
 3555TIP3    H232081   4.941   1.147  16.613 -0.4833  1.9375 -1.7476
 3556TIP3   OH232082   1.340   6.375  12.830 -0.5470 -0.3264 -0.2817
 3556TIP3    H132083   1.297   6.322  12.763  0.7644  1.3344 -2.5972
 3556TIP3    H232084   1.310   6.465  12.813  1.0582  0.3594  0.2961
 3557TIP3   OH232085   1.487   2.201   1.794  0.0983 -0.1056 -0.1206
 3557TIP3    H132086   1.399   2.238   1.791  0.4061  0.6013 -1.1379
 3557TIP3    H232087   1.495   2.150   1.713 -0.3698 -2.6359  1.3095
 3558TIP3   OH232088   6.408   5.934   2.540 -0.1123 -0.0142  0.0278
 3558TIP3    H132089   6.391   5.901   2.628 -0.0316  0.4076  0.2052
 3558TIP3    H232090   6.322   5.937   2.497 -0.4048  1.3544  0.6516
 3559TIP3   OH232091   3.130   6.650   2.294 -0.0541  0.1583  0.1000
 3559TIP3    H132092   3.204   6.685   2.344 -0.0638 -0.3271  0.4666
 3559TIP3    H232093   3.062   6.633   2.359 -1.0863  2.0301 -0.4236
 3560TIP3   OH232094   0.336   6.672   2.018 -0.1668  0.0017  0.0192
 3560TIP3    H132095   0.296   6.664   1.932 -0.0592 -0.2793 -0.0079
 3560TIP3    H232096   0.418   6.719   2.002 -0.1236 -0.0930 -0.0408
 3561TIP3   OH232097   4.374   4.393   1.781 -0.2264 -0.1671  0.0444
 3561TIP3    H132098   4.372   4.470   1.724  0.6118 -0.0299  0.1865
 3561TIP3    H232099   4.282   4.378   1.803 -0.5458 -0.0750 -1.1322
 3562TIP3   OH232100   3.384   1.171  16.177 -0.0652 -0.3499 -0.4360
 3562TIP3    H132101   3.334   1.093  16.201  0.3430  0.0091  1.8298
 3562TIP3    H232102   3.373   1.230  16.252  2.4671  0.3473 -0.5194
 3563TIP3   OH232103   0.875   4.687   0.065 -0.0281 -0.1381  0.2513
 3563TIP3    H132104   0.830   4.759   0.022 -0.6422 -0.7112 -0.0953
 3563TIP3    H232105   0.804   4.633   0.101  0.3354 -1.2914 -0.6760
 3564TIP3   OH232106   4.605   5.959   2.867 -1.1098  0.5986 -0.1038
 3564TIP3    H132107   4.555   5.888   2.827 -1.8627  0.4633  1.0238
 3564TIP3    H232108   4.584   6.036   2.815 -0.5249  0.0669 -1.1508
 3565TIP3   OH232109   2.614   1.602  16.667 -0.2918 -0.6805  0.3891
 3565TIP3    H132110   2.543   1.572  16.612 -1.5135  1.9860  0.3543
 3565TIP3    H232111   2.684   1.627  16.606 -0.0724 -1.4641  0.3123
 3566TIP3   OH232112   6.673   5.389  11.150  0.1394  0.5899 -0.1975
 3566TIP3    H132113   6.598   5.330  11.154  0.5045  0.1647  0.5152
 3566TIP3    H232114   6.636   5.475  11.170  0.0401  0.1718  1.6608
 3567TIP3   OH232115   4.147   1.510   5.935 -0.1842 -0.3384 -0.2248
 3567TIP3    H132116   4.093   1.545   5.863  0.1816 -1.0559 -0.8524
 3567TIP3    H232117   4.204   1.583   5.960 -1.4342  0.4478  0.4667
 3568TIP3   OH232118   2.565   1.915   3.708 -0.3133  0.2825  0.2209
 3568TIP3    H132119   2.599   1.884   3.624  0.5148  1.1217  0.2294
 3568TIP3    H232120   2.514   1.841   3.742 -2.1329  0.5211 -1.8039
 3569TIP3   OH232121   2.694   1.155   2.847 -0.2628 -0.4635  0.5461
 3569TIP3    H132122   2.683   1.116   2.933 -0.5376  0.2667  0.8544
 3569TIP3    H232123   2.748   1.093   2.798  2.7009  0.5729  2.2500
 3570TIP3   OH232124   2.780   1.198   0.668 -0.0514  0.0803 -0.1416
 3570TIP3    H132125   2.852   1.187   0.730 -0.9883  0.8865  1.1354
 3570TIP3    H232126   2.722   1.124   0.684  0.3367 -0.4249 -0.9882
 3571TIP3   OH232127   3.482   1.169  13.513 -0.2191  0.1525  0.0633
 3571TIP3    H132128   3.407   1.110  13.507  0.0258 -0.3561  1.5804
 3571TIP3    H232129   3.503   1.191  13.422 -1.5919 -0.4677 -0.4237
 3572TIP3   OH232130   6.612   1.418  12.298 -0.6335  0.6470  0.0101
 3572TIP3    H132131   6.551   1.457  12.235 -1.7228  0.5946  0.9934
 3572TIP3    H232132   6.612   1.478  12.373  0.1684  0.4024  0.2198
 3573TIP3   OH232133   6.098   1.868  11.706 -0.4630  0.3034 -0.3101
 3573TIP3    H132134   6.144   1.952  11.707 -0.0028  0.0605 -0.5610
 3573TIP3    H232135   6.116   1.832  11.620  1.0913 -0.9853  0.4984
 3574TIP3   OH232136   0.384   4.883  13.971 -0.0887  0.3917  0.0335
 3574TIP3    H132137   0.440   4.901  13.896 -0.8570 -1.1735 -0.9641
 3574TIP3    H232138   0.356   4.792  13.959 -2.8829  1.1146  0.4225
 3575TIP3   OH232139   0.085   5.022   0.762 -0.2215  0.0948 -0.9466
 3575TIP3    H132140   0.115   4.961   0.829  0.0910  0.1025 -1.0785
 3575TIP3    H232141   0.101   5.109   0.800 -0.3881  0.0980 -0.8819
 3576TIP3   OH232142   1.772   5.555  16.270 -0.2108  0.6052 -0.2494
 3576TIP3    H132143   1.824   5.630  16.242  0.3448 -0.1253 -1.2713
 3576TIP3    H232144   1.823   5.479  16.242 -1.1079 -0.1412  0.0930
 3577TIP3   OH232145   4.269   6.520   0.437 -0.6906  0.5851  0.3083
 3577TIP3    H132146   4.268   6.532   0.342 -1.4019  0.1327  0.2510
 3577TIP3    H232147   4.188   6.561   0.467 -0.3349  0.9707  0.7568
 3578TIP3   OH232148   2.013   5.381  16.243  0.6094  0.6691  0.1613
 3578TIP3    H132149   2.052   5.334  16.316 -1.4729  0.2392  1.0735
 3578TIP3    H232150   2.087   5.419  16.196  2.1338 -0.7714  1.2938
 3579TIP3   OH232151   3.116   5.643  14.413 -0.5204 -0.8005 -0.1433
 3579TIP3    H132152   3.082   5.718  14.461  0.7891 -0.1181 -0.2416
 3579TIP3    H232153   3.123   5.673  14.322  1.5682 -0.4541  0.0931
 3580TIP3   OH232154   6.106   3.538  10.992 -0.1760  0.1522 -0.1397
 3580TIP3    H132155   6.106   3.500  10.904 -0.9226 -1.0237  0.3460
 3580TIP3    H232156   6.018   3.575  11.002 -0.6225 -1.0760  0.6531
 3581TIP3   OH232157   4.091   0.396  13.931 -0.0521  0.0662  0.0066
 3581TIP3    H132158   4.119   0.317  13.977 -0.5359  0.9229  1.8889
 3581TIP3    H232159   4.170   0.448  13.919 -0.1781  0.7390  1.7850
 3582TIP3   OH232160   5.965   0.547  12.549 -0.9530  0.1831  0.2267
 3582TIP3    H132161   5.986   0.534  12.642  1.6556 -0.6022 -0.3979
 3582TIP3    H232162   5.948   0.459  12.516  1.1897  0.0425 -0.6480
 3583TIP3   OH232163   4.526   4.687   2.819 -0.4865 -0.1606  0.0064
 3583TIP3    H132164   4.515   4.619   2.752  0.9839 -0.3463 -0.0766
 3583TIP3    H232165   4.552   4.764   2.770  2.5305 -0.7825  0.4379
 3584TIP3   OH232166   0.963   5.203   2.459 -0.4791  0.2442  0.4385
 3584TIP3    H132167   1.029   5.267   2.484  1.7728 -1.6618 -0.2630
 3584TIP3    H232168   0.887   5.255   2.433  1.2061  2.6096 -0.0334
 3585TIP3   OH232169   0.713   2.838   1.846  1.0660 -0.2520 -0.0726
 3585TIP3    H132170   0.667   2.903   1.900 -1.2505 -0.2584 -1.8875
 3585TIP3    H232171   0.675   2.754   1.873  0.6762 -0.3596 -0.9377
 3586TIP3   OH232172   1.179   1.195   1.684  0.0735  0.4883 -0.3996
 3586TIP3    H132173   1.105   1.192   1.745 -0.2288  0.8280 -0.7433
 3586TIP3    H232174   1.188   1.287   1.662 -0.4022  0.2849 -1.5566
 3587TIP3   OH232175   4.212   1.279  16.111 -0.1209  0.1692 -0.4480
 3587TIP3    H132176   4.139   1.306  16.055 -1.6026 -3.1301 -0.3766
 3587TIP3    H232177   4.264   1.221  16.056  0.1204 -0.7367  0.6965
 3588TIP3   OH232178   3.792   2.118   3.498 -0.1082  0.2079  0.4230
 3588TIP3    H132179   3.789   2.076   3.412 -1.7443 -1.5009  1.2455
 3588TIP3    H232180   3.875   2.164   3.499  1.1405 -1.8372 -1.1263
 3589TIP3   OH232181   2.024   5.204   4.141  0.6108  0.4095  0.0182
 3589TIP3    H132182   1.943   5.187   4.189 -0.8308  2.7501 -1.4322
 3589TIP3    H232183   2.043   5.122   4.095 -1.3421  0.0278 -0.1741
 3590TIP3   OH232184   6.096   5.895   0.057  0.2445  0.1177 -0.0375
 3590TIP3    H132185   6.022   5.849   0.018  0.9648 -0.5254 -0.6937
 3590TIP3    H232186   6.059   5.942   0.131 -0.7334 -0.5610 -0.0746
 3591TIP3   OH232187   0.884   4.941   2.520 -0.0864 -0.3299 -0.6483
 3591TIP3    H132188   0.883   4.948   2.615  0.9504 -2.3577 -0.4206
 3591TIP3    H232189   0.908   5.028   2.489  0.4571  0.1418  1.0025
 3592TIP3   OH232190   6.468   0.329  15.340  0.2656 -0.2586 -0.0398
 3592TIP3    H132191   6.532   0.258  15.330  0.0269 -0.2642 -2.0831
 3592TIP3    H232192   6.522   0.409  15.343  0.4360 -0.2199 -2.2817
 3593TIP3   OH232193   0.024   5.960  16.745 -0.2610  0.0622  0.0089
 3593TIP3    H132194   0.037   5.901  16.818  0.2823  2.0953  1.6601
 3593TIP3    H232195  -0.032   5.912  16.684 -1.3335 -1.4410  2.0657
 3594TIP3   OH232196   4.660   4.015   6.621 -0.6106 -0.2926  0.0549
 3594TIP3    H132197   4.611   4.062   6.688 -0.5466 -1.4260  0.9284
 3594TIP3    H232198   4.647   3.923   6.642 -0.8753 -0.6961 -1.7026
 3595TIP3   OH232199   1.597   1.942   2.409 -0.0778  0.1662  0.3885
 3595TIP3    H132200   1.637   1.895   2.482 -3.1063 -3.0862  0.2042
 3595TIP3    H232201   1.659   1.930   2.337 -0.0620 -2.4760  0.7406
 3596TIP3   OH232202   1.977   1.617   2.137  0.2363  0.3243  0.1537
 3596TIP3    H132203   1.972   1.640   2.044  0.3384 -0.7377 -0.1297
 3596TIP3    H232204   1.950   1.525   2.140 -1.1050  0.7347  1.3575
 3597TIP3   OH232205   2.192   2.722  11.926  0.1846 -0.1101  0.2632
 3597TIP3    H132206   2.141   2.746  12.003 -0.8420  1.2668 -0.7985
 3597TIP3    H232207   2.233   2.803  11.897  1.3761 -0.8045 -0.0833
 3598TIP3   OH232208   1.553   0.690   6.136 -0.1600  0.0729 -0.3330
 3598TIP3    H132209   1.635   0.664   6.178  0.2796  1.3803 -0.3447
 3598TIP3    H232210   1.496   0.614   6.145  0.0500  0.1420  2.2663
 3599TIP3   OH232211   4.186   4.985  12.959 -0.2676  0.0952  0.3433
 3599TIP3    H132212   4.152   4.909  12.913 -0.1845 -0.0508  0.5236
 3599TIP3    H232213   4.207   5.048  12.890 -0.7138  0.1077  0.2178
 3600TIP3   OH232214   5.693   5.647  15.680  0.3057  0.6632 -0.4710
 3600TIP3    H132215   5.714   5.586  15.609 -0.1444  0.6714 -0.6136
 3600TIP3    H232216   5.762   5.713  15.676  0.1084  0.8423 -1.1089
 3601TIP3   OH232217   6.420   4.272  13.977  0.0809  0.4754  0.2965
 3601TIP3    H132218   6.417   4.257  13.882 -0.0059  1.2076  0.1811
 3601TIP3    H232219   6.374   4.354  13.990  1.1318  1.0010  0.8417
 3602TIP3   OH232220   5.552   1.143  15.335  0.2755  0.3036 -0.4209
 3602TIP3    H132221   5.468   1.126  15.378 -0.0340 -0.2214 -1.2100
 3602TIP3    H232222   5.605   1.065  15.355 -0.1464 -0.3119 -1.6375
 3603TIP3   OH232223   0.590   0.520  14.147  0.0597 -0.3837 -0.3130
 3603TIP3    H132224   0.671   0.520  14.097  0.4335 -0.6016  0.2905
 3603TIP3    H232225   0.617   0.510  14.238 -0.6862 -1.5741 -0.1904
 3604TIP3   OH232226   3.249   0.545  11.812  0.3259  0.2827  0.4028
 3604TIP3    H132227   3.283   0.586  11.891  0.5386  0.2161  0.3475
 3604TIP3    H232228   3.170   0.499  11.841 -0.1251  1.0351  0.3932
 3605TIP3   OH232229   6.149   5.071   5.046  0.0357  0.3174 -0.0114
 3605TIP3    H132230   6.172   5.164   5.043 -0.1629  0.4139  1.0636
 3605TIP3    H232231   6.061   5.067   5.010 -0.1947  0.6332  0.5112
 3606TIP3   OH232232   1.223   6.531   4.579 -0.2335 -0.1307  0.2257
 3606TIP3    H132233   1.258   6.620   4.580 -1.3733  0.3190  1.2432
 3606TIP3    H232234   1.288   6.479   4.627  0.7744 -0.0099 -0.9567
 3607TIP3   OH232235   2.286   2.277   5.480 -0.1214  0.5972  0.3725
 3607TIP3    H132236   2.297   2.365   5.443 -0.7752  0.6935  0.4001
 3607TIP3    H232237   2.244   2.292   5.565 -2.5093  0.1450 -0.6396
 3608TIP3   OH232238   0.740   5.778   3.391 -0.1757 -0.3608 -0.2713
 3608TIP3    H132239   0.698   5.835   3.327 -0.1387 -0.1076 -0.0680
 3608TIP3    H232240   0.834   5.788   3.373 -0.1744 -0.4636 -0.3253
 3609TIP3   OH232241   1.536   1.148  12.434 -0.5527 -0.1182 -0.2845
 3609TIP3    H132242   1.446   1.155  12.404 -0.5117  1.8067 -0.0775
 3609TIP3    H232243   1.561   1.057  12.415 -2.3739 -0.5638 -0.7239
 3610TIP3   OH232244   3.592   5.940   3.560  0.2789  0.8177  0.5211
 3610TIP3    H132245   3.540   5.971   3.486 -1.2971  0.5488  1.4829
 3610TIP3    H232246   3.537   5.955   3.636  1.7751  0.8747  1.6434
 3611TIP3   OH232247   3.486   5.356  12.926 -0.0908 -0.3323  0.2525
 3611TIP3    H132248   3.517   5.276  12.969 -0.8529 -1.1609 -0.7100
 3611TIP3    H232249   3.540   5.363  12.847  0.1620  0.2732  0.4698
 3612TIP3   OH232250   6.176   0.739  16.561  0.2687  0.0701  0.7730
 3612TIP3    H132251   6.122   0.817  16.547 -0.8629 -0.4175  2.0970
 3612TIP3    H232252   6.144   0.676  16.497  2.0792  1.0510 -1.2070
 3613TIP3   OH232253   2.347   4.376  16.433 -0.1056 -0.0462 -0.1390
 3613TIP3    H132254   2.322   4.352  16.522  2.4600 -1.9068  0.2022
 3613TIP3    H232255   2.330   4.297  16.381 -0.7494  0.7228 -1.1294
 3614TIP3   OH232256   3.787   6.564  12.062 -0.5053  0.2077 -0.1292
 3614TIP3    H132257   3.776   6.623  12.137  0.1373  1.0255 -0.6712
 3614TIP3    H232258   3.878   6.576  12.034  0.3419 -2.5731  1.0236
 3615TIP3   OH232259   0.750   6.296   2.160 -0.0353  0.0188 -0.9130
 3615TIP3    H132260   0.671   6.350   2.163 -0.3706 -0.4872  1.0949
 3615TIP3    H232261   0.801   6.325   2.236  1.1912 -0.4367 -1.5417
 3616TIP3   OH232262   1.935   0.352   5.785 -0.5018 -0.1408  0.0764
 3616TIP3    H132263   1.952   0.445   5.803  0.4434 -0.4018  0.5934
 3616TIP3    H232264   1.847   0.337   5.820 -0.0899  0.2177  1.3138
 3617TIP3   OH232265   3.025   0.170  12.012 -0.1197  0.1701 -0.0695
 3617TIP3    H132266   3.117   0.194  12.000 -0.1472  0.5959  0.5395
 3617TIP3    H232267   3.007   0.107  11.941  0.1375  1.4126 -1.2676
 3618TIP3   OH232268   6.345   1.335  15.414  0.5754 -0.3501  0.2861
 3618TIP3    H132269   6.362   1.377  15.330 -3.0900  0.5722 -0.1519
 3618TIP3    H232270   6.338   1.242  15.393 -1.7988  0.0128 -0.8060
 3619TIP3   OH232271   4.597   1.510   5.525  0.2390  0.2114 -0.5081
 3619TIP3    H132272   4.673   1.529   5.469  0.9356  1.0272  0.6655
 3619TIP3    H232273   4.571   1.596   5.559 -1.8853  0.0961 -1.6681
 3620TIP3   OH232274   3.145   6.460  11.093  0.0892  0.3809  0.4410
 3620TIP3    H132275   3.088   6.395  11.053 -0.9533  2.2416 -1.2958
 3620TIP3    H232276   3.221   6.464  11.034 -1.1401  2.6425 -1.1624
 3621TIP3   OH232277   2.862   2.512   3.467 -0.4509 -0.0387 -0.1199
 3621TIP3    H132278   2.790   2.478   3.413 -0.7402  0.2128  0.1101
 3621TIP3    H232279   2.837   2.602   3.486 -0.2309 -0.0532  0.2358
 3622TIP3   OH232280   3.292   1.080   3.715  0.2878 -0.2409 -0.6769
 3622TIP3    H132281   3.230   1.052   3.782  0.5760 -1.1138 -0.7576
 3622TIP3    H232282   3.327   1.163   3.748 -0.3729 -0.1160 -0.2772
 3623TIP3   OH232283   1.479   4.534  14.978  0.8308  0.1735  0.0946
 3623TIP3    H132284   1.475   4.470  15.049 -1.4688 -1.7018 -1.5360
 3623TIP3    H232285   1.454   4.617  15.019 -1.7424 -1.1008  1.3355
 3624TIP3   OH232286   1.079   6.600   2.335  0.0408 -0.2512  0.1234
 3624TIP3    H132287   1.059   6.692   2.314  2.2723  0.3206  0.2677
 3624TIP3    H232288   1.071   6.554   2.251 -0.0660  0.2723 -0.1598
 3625TIP3   OH232289   2.848   5.642  16.337 -0.1325  0.1921 -0.0517
 3625TIP3    H132290   2.941   5.648  16.314  0.0736 -1.5090  0.2476
 3625TIP3    H232291   2.803   5.638  16.253  0.3057 -1.7338 -0.2452
 3626TIP3   OH232292   4.647   4.135   1.233  0.6165  0.3079  0.2585
 3626TIP3    H132293   4.607   4.099   1.154  0.6998  1.1916 -0.2013
 3626TIP3    H232294   4.623   4.073   1.303  1.7741 -1.3020 -0.6893
 3627TIP3   OH232295   1.658   3.139  14.747 -0.0748  0.0665  0.1452
 3627TIP3    H132296   1.681   3.141  14.839  1.1374  0.6309 -0.1511
 3627TIP3    H232297   1.736   3.170  14.702 -0.8978  0.5016 -1.0268
 3628TIP3   OH232298   2.679   5.081   3.351 -0.1508  0.6341  0.3752
 3628TIP3    H132299   2.621   5.088   3.276  0.0912 -3.0469 -0.3210
 3628TIP3    H232300   2.633   5.023   3.412 -0.0691  3.0123  2.9573
 3629TIP3   OH232301   6.719   5.955   3.706 -0.7186 -0.0055  0.0710
 3629TIP3    H132302   6.773   6.018   3.752 -2.3517  0.7359  1.0565
 3629TIP3    H232303   6.771   5.874   3.706  0.5891  0.8036  0.4808
 3630TIP3   OH232304   3.536   5.079  16.131  0.5185 -0.6178 -0.0439
 3630TIP3    H132305   3.561   5.134  16.206  0.4841 -0.2456 -0.3056
 3630TIP3    H232306   3.518   4.993  16.170 -2.7743  0.3675  0.8938
 3631TIP3   OH232307   1.934   0.753  13.804 -0.3594  0.3881 -0.4907
 3631TIP3    H132308   1.986   0.833  13.796 -0.8527  0.7633 -0.0496
 3631TIP3    H232309   1.996   0.687  13.836  0.0179  0.6250 -0.7200
 3632TIP3   OH232310   2.041   1.831  14.782  0.1515 -0.1156 -0.1942
 3632TIP3    H132311   2.035   1.851  14.875 -1.2029 -0.0007 -0.2926
 3632TIP3    H232312   2.116   1.882  14.751  0.3029  0.2352  0.7222
 3633TIP3   OH232313   0.073   0.964  12.156  0.8068 -0.2772  0.5178
 3633TIP3    H132314   0.099   1.047  12.197 -1.3546  0.1228  1.2250
 3633TIP3    H232315   0.133   0.954  12.083  2.3689  0.9242  1.5696
 3634TIP3   OH232316   4.300   4.504   0.392 -0.1065  0.0824  0.2293
 3634TIP3    H132317   4.231   4.509   0.458  0.4414 -1.0547  0.9240
 3634TIP3    H232318   4.333   4.593   0.385 -0.9247  0.4366  0.6579
 3635TIP3   OH232319   4.800   5.448  11.875 -0.6307  0.0694  0.3485
 3635TIP3    H132320   4.796   5.394  11.797 -1.0815  1.1067 -0.3707
 3635TIP3    H232321   4.818   5.387  11.946 -0.3505 -0.9064 -0.5444
 3636TIP3   OH232322   5.776   1.142   1.161  0.2149  0.0610  0.5957
 3636TIP3    H132323   5.797   1.071   1.221 -0.7845 -2.1015 -1.4469
 3636TIP3    H232324   5.797   1.107   1.074 -1.3950  1.8187 -0.5899
 3637TIP3   OH232325   4.733   2.658  12.163  0.0360  0.6248 -0.0525
 3637TIP3    H132326   4.740   2.605  12.083 -0.1001 -0.9086  0.9095
 3637TIP3    H232327   4.648   2.702  12.155 -1.1353 -1.4347  0.3215
 3638TIP3   OH232328   2.422   5.639  15.678 -0.1490 -0.3767 -0.5206
 3638TIP3    H132329   2.385   5.551  15.669  0.2899 -0.6617  0.3490
 3638TIP3    H232330   2.517   5.626  15.672  0.1975 -0.5024  2.9862
 3639TIP3   OH232331   4.213   5.591   4.975 -0.3950 -0.4136 -0.7910
 3639TIP3    H132332   4.266   5.587   5.055 -1.0411 -0.8968 -0.3709
 3639TIP3    H232333   4.182   5.682   4.972 -0.8432 -0.5350 -0.1596
 3640TIP3   OH232334   2.249   6.518   0.548  0.0996 -0.1214  0.1400
 3640TIP3    H132335   2.231   6.433   0.589  0.4558 -0.8808 -1.1883
 3640TIP3    H232336   2.342   6.533   0.565  0.6771 -1.2451 -1.6891
 3641TIP3   OH232337   3.044   5.703   6.273  0.1572 -0.4433  0.1252
 3641TIP3    H132338   3.134   5.733   6.260 -0.0381 -0.9928 -3.2372
 3641TIP3    H232339   2.995   5.783   6.294  1.3585 -0.1694  2.2704
 3642TIP3   OH232340   4.588   4.742   0.055 -0.4237  0.4752 -0.1931
 3642TIP3    H132341   4.611   4.772   0.143 -1.1056 -1.0366  0.5370
 3642TIP3    H232342   4.495   4.764   0.046  0.0961  2.4343 -1.3574
 3643TIP3   OH232343   5.586   5.545   0.282  0.7905 -0.6734 -0.1113
 3643TIP3    H132344   5.585   5.458   0.321 -1.8484 -0.6013  0.1662
 3643TIP3    H232345   5.536   5.599   0.343  0.7366  0.5823 -1.2240
 3644TIP3   OH232346   5.705   4.692   2.861  0.6903 -0.5917 -0.0443
 3644TIP3    H132347   5.733   4.653   2.778 -2.1102 -0.6677 -1.0696
 3644TIP3    H232348   5.631   4.638   2.889 -1.6684  2.2946 -0.1862
 3645TIP3   OH232349   6.614   5.705   1.998 -0.0330 -0.3291  0.1523
 3645TIP3    H132350   6.615   5.615   2.031  0.6156  0.3450  2.1269
 3645TIP3    H232351   6.523   5.732   2.005  0.0454 -0.2933  1.2269
 3646TIP3   OH232352   6.099   6.725   2.871  0.2168 -0.0985  0.0929
 3646TIP3    H132353   6.097   6.641   2.918 -0.2093 -0.2148 -0.1325
 3646TIP3    H232354   6.007   6.750   2.862  0.3770  1.0951  1.3891
 3647TIP3   OH232355   5.865   3.392   2.896  0.8036 -0.5846 -0.1384
 3647TIP3    H132356   5.796   3.358   2.954  2.3175 -1.3403  1.3051
 3647TIP3    H232357   5.921   3.316   2.880 -0.4151 -0.8603 -4.0311
 3648TIP3   OH232358   5.979   6.027  12.764  0.3380 -0.4567  0.5740
 3648TIP3    H132359   5.939   5.951  12.806 -2.6591  0.7584  0.2187
 3648TIP3    H232360   5.936   6.102  12.806  1.8682  0.9906 -0.3228
 3649TIP3   OH232361   6.238   3.986   3.661 -0.0480  0.4479  0.2812
 3649TIP3    H132362   6.312   3.965   3.604  0.8718 -1.4481  2.0306
 3649TIP3    H232363   6.278   3.994   3.748 -1.8562 -0.3899  1.2302
 3650TIP3   OH232364   2.542   4.174   5.762 -0.3769  0.0271 -0.1652
 3650TIP3    H132365   2.518   4.114   5.833  1.7238  2.0752  2.4239
 3650TIP3    H232366   2.619   4.133   5.721 -1.7929 -1.3294 -1.6635
 3651TIP3   OH232367   5.948   3.947   3.854  0.4218  0.1833 -0.3357
 3651TIP3    H132368   5.854   3.957   3.870  0.4960  1.9923 -0.7369
 3651TIP3    H232369   5.955   3.946   3.758  0.6779 -1.9557 -0.3344
 3652TIP3   OH232370   3.104   3.577   1.588 -0.1804 -1.1357  0.3914
 3652TIP3    H132371   3.114   3.503   1.527 -1.4044  0.0693 -1.3666
 3652TIP3    H232372   3.190   3.585   1.629  0.5516 -2.3263 -0.7982
 3653TIP3   OH232373   3.993   3.470   5.735  0.3900  0.1570  0.1900
 3653TIP3    H132374   4.075   3.429   5.763 -0.2406 -0.4400  1.2595
 3653TIP3    H232375   3.935   3.396   5.717 -0.7558  0.5449  2.0944
 3654TIP3   OH232376   5.543   6.090   0.634 -0.3818  0.5896  0.0594
 3654TIP3    H132377   5.600   6.167   0.639  0.0638  0.2938 -0.3575
 3654TIP3    H232378   5.467   6.113   0.687  0.7260  0.4826  1.7602
 3655TIP3   OH232379   2.223   1.634   4.583 -0.3498 -0.3043 -0.3635
 3655TIP3    H132380   2.311   1.672   4.586 -0.4496 -0.1499  1.3385
 3655TIP3    H232381   2.212   1.607   4.492  1.5607 -0.5930 -0.5431
 3656TIP3   OH232382   4.833   3.896  11.797 -0.1242  0.2066  0.5109
 3656TIP3    H132383   4.765   3.846  11.752 -2.3607  3.2275  0.1963
 3656TIP3    H232384   4.894   3.922  11.728 -2.0751  2.5412 -0.4846
 3657TIP3   OH232385   4.872   5.310  12.151 -0.5316  0.1647  0.3834
 3657TIP3    H132386   4.967   5.319  12.142 -0.4716 -0.0259  0.8393
 3657TIP3    H232387   4.859   5.232  12.204 -0.9377  0.3590  0.5781
 3658TIP3   OH232388   1.611   2.311  15.775  0.1830 -0.1698 -0.8694
 3658TIP3    H132389   1.629   2.393  15.821  0.4037 -0.5037 -0.3540
 3658TIP3    H232390   1.536   2.331  15.719 -1.9352 -0.4566  1.6438
 3659TIP3   OH232391   0.731   3.089   5.614 -0.1944  0.0116 -0.0252
 3659TIP3    H132392   0.801   3.109   5.552 -1.0562 -2.1121 -1.8367
 3659TIP3    H232393   0.771   3.029   5.677 -0.3123 -1.1537 -1.0239
 3660TIP3   OH232394   2.099   1.568  15.803 -0.4299  0.6963  0.1482
 3660TIP3    H132395   2.146   1.579  15.886 -0.9209 -0.1444  0.5396
 3660TIP3    H232396   2.143   1.495  15.760 -0.0781  1.2264 -0.4126
 3661TIP3   OH232397   6.594   0.480   2.076  0.0543 -0.3371  0.6397
 3661TIP3    H132398   6.564   0.497   1.987  1.2733 -0.5785  0.1531
 3661TIP3    H232399   6.556   0.395   2.099  1.0340 -1.0610 -0.2972
 3662TIP3   OH232400   1.115   0.367  13.644  0.3078 -0.0096  0.1206
 3662TIP3    H132401   1.029   0.375  13.601  0.0927 -2.7146 -0.1142
 3662TIP3    H232402   1.149   0.456  13.644 -1.7460  0.8818 -1.3692
 3663TIP3   OH232403   0.745   0.528   4.486  0.1189  0.4741  0.2369
 3663TIP3    H132404   0.828   0.518   4.533  0.6666 -1.1844 -0.9804
 3663TIP3    H232405   0.769   0.524   4.394 -1.2993  0.1087 -0.1429
 3664TIP3   OH232406   4.570   2.546  12.558 -0.3701  0.5495 -0.4357
 3664TIP3    H132407   4.545   2.630  12.596 -0.7317 -0.1025  0.7996
 3664TIP3    H232408   4.487   2.504  12.536 -0.1776  0.7383 -1.6081
 3665TIP3   OH232409   5.625   6.706  15.032  0.6255  0.3883  0.5267
 3665TIP3    H132410   5.610   6.613  15.012  0.6163  0.8875 -2.2914
 3665TIP3    H232411   5.542   6.748  15.010  1.1992  1.2568 -0.0392
 3666TIP3   OH232412   1.890   1.721  12.679  0.0625  0.0780  0.2057
 3666TIP3    H132413   1.980   1.689  12.671  0.3546  1.0145 -0.5602
 3666TIP3    H232414   1.866   1.705  12.770  1.7095  1.5642  0.9593
 3667TIP3   OH232415   1.954   3.377  14.691  0.2245 -0.3125  0.0081
 3667TIP3    H132416   1.944   3.282  14.699  0.7771 -0.3662  0.1186
 3667TIP3    H232417   1.975   3.391  14.598 -1.9060 -0.0901 -0.5062
 3668TIP3   OH232418   2.512   2.898  14.445 -0.0819  0.2075  0.1481
 3668TIP3    H132419   2.530   2.991  14.451  1.0213 -0.1043  2.4789
 3668TIP3    H232420   2.502   2.869  14.535  1.5963 -2.2739 -0.3499
 3669TIP3   OH232421   0.472   0.058  14.410  0.6239  0.4847 -0.8800
 3669TIP3    H132422   0.523   0.131  14.446  1.2301 -0.0740 -0.5678
 3669TIP3    H232423   0.528   0.022  14.342  0.9858 -0.5994 -0.0334
 3670TIP3   OH232424   0.079   4.228   4.408  0.4988  0.2097  0.3680
 3670TIP3    H132425   0.147   4.207   4.344 -0.0115 -1.2912  0.2815
 3670TIP3    H232426  -0.001   4.236   4.356  0.1768 -0.4863  0.7435
 3671TIP3   OH232427   3.417   1.802  11.371 -0.4108 -0.0959 -0.4108
 3671TIP3    H132428   3.420   1.728  11.431  1.4947  0.2813  0.0225
 3671TIP3    H232429   3.380   1.873  11.422  0.1044 -0.0961 -0.0271
 3672TIP3   OH232430   6.066   2.204  16.732 -0.0014 -0.2496 -0.3602
 3672TIP3    H132431   6.046   2.295  16.754  1.1900 -0.2047  0.6516
 3672TIP3    H232432   6.111   2.170  16.810  1.0841 -1.1909 -1.3584
 3673TIP3   OH232433   2.002   2.216  14.835 -0.3456  0.0966  0.0006
 3673TIP3    H132434   2.027   2.186  14.923 -1.4710 -2.0023 -0.3246
 3673TIP3    H232435   1.996   2.311  14.843  0.2719  0.0129  2.0050
 3674TIP3   OH232436   4.119   4.575   4.458 -0.3777 -0.2983  0.1116
 3674TIP3    H132437   4.181   4.522   4.407  0.8049  1.1483 -0.0177
 3674TIP3    H232438   4.037   4.526   4.454  0.6432 -2.0797 -0.0502
 3675TIP3   OH232439   2.461   4.937  11.549  0.1610  0.3422  0.7641
 3675TIP3    H132440   2.486   4.945  11.457  0.3950 -1.0296  0.6902
 3675TIP3    H232441   2.529   4.986  11.596  0.9323 -0.2605  0.3094
 3676TIP3   OH232442   3.461   4.648  16.398 -0.3196 -0.1385  0.2223
 3676TIP3    H132443   3.403   4.577  16.369  0.9876 -1.5566  0.8773
 3676TIP3    H232444   3.429   4.669  16.486 -0.1721 -0.5626  0.3835
 3677TIP3   OH232445   3.172   5.454   1.638 -0.0016  0.1563  0.1127
 3677TIP3    H132446   3.085   5.414   1.628 -0.2506  1.0986 -2.5335
 3677TIP3    H232447   3.233   5.384   1.616 -0.2277  0.1389 -0.4780
 3678TIP3   OH232448   3.345   4.958  17.109 -0.0612  0.4600  0.5381
 3678TIP3    H132449   3.267   5.006  17.080  0.7434  1.6728  0.3060
 3678TIP3    H232450   3.317   4.867  17.113 -1.6640  0.9466  1.0415
 3679TIP3   OH232451   3.283   3.442   4.806  0.2228 -0.0665 -0.0927
 3679TIP3    H132452   3.322   3.445   4.718  1.0050  2.1348  0.2733
 3679TIP3    H232453   3.335   3.503   4.858 -0.8148 -0.6119  1.6757
 3680TIP3   OH232454   0.556   0.733  11.114  0.2186 -0.0870  0.0033
 3680TIP3    H132455   0.517   0.731  11.026 -1.3723  2.0982  0.5908
 3680TIP3    H232456   0.609   0.813  11.115 -0.6272  0.4897  1.3352
 3681TIP3   OH232457   4.197   6.588  13.563 -0.2894  0.2786  0.6360
 3681TIP3    H132458   4.265   6.628  13.509 -0.2439  0.0110  0.4902
 3681TIP3    H232459   4.140   6.660  13.589 -0.8638  0.2755 -0.5747
 3682TIP3   OH232460   2.702   2.824  13.391  0.2418  0.0098  0.1694
 3682TIP3    H132461   2.794   2.818  13.366  0.3430  0.9727  0.2673
 3682TIP3    H232462   2.704   2.829  13.487  0.0414 -0.6249  0.2105
 3683TIP3   OH232463   4.864   6.012  12.173  0.5962 -0.1963  0.1192
 3683TIP3    H132464   4.889   5.998  12.082  1.8899  0.8753  0.2786
 3683TIP3    H232465   4.943   5.994  12.223  0.1805  0.2167  0.9395
 3684TIP3   OH232466   6.456   4.584  14.036 -0.3891 -0.1028 -0.2425
 3684TIP3    H132467   6.427   4.571  13.946 -1.1636 -0.7265  0.0811
 3684TIP3    H232468   6.382   4.626  14.080 -0.5295 -0.9980  0.4093
 3685TIP3   OH232469   4.912   5.398  16.514  0.3311 -0.6936  0.3419
 3685TIP3    H132470   4.877   5.439  16.435  0.5586 -0.5398  0.3204
 3685TIP3    H232471   4.837   5.395  16.574  0.7349  1.5350  1.0751
 3686TIP3   OH232472   3.752   2.348  13.337  0.0742  0.2505 -0.0172
 3686TIP3    H132473   3.672   2.302  13.310 -0.4751  1.3505 -0.3392
 3686TIP3    H232474   3.734   2.376  13.427  0.2085  0.2820 -0.0005
 3687TIP3   OH232475   2.584   0.250  12.351 -0.0053  0.0823  0.3813
 3687TIP3    H132476   2.589   0.163  12.310 -1.0654  0.9851 -1.8588
 3687TIP3    H232477   2.585   0.233  12.445  1.0455 -2.2527  0.0129
 3688TIP3   OH232478   3.846   3.135  14.689 -0.7095  0.0108 -0.1419
 3688TIP3    H132479   3.886   3.214  14.654  0.7874 -0.5680  0.2008
 3688TIP3    H232480   3.788   3.167  14.759 -1.2925  0.8982 -0.9971
 3689TIP3   OH232481   0.781   3.762  11.683  0.1119  0.3050 -0.4474
 3689TIP3    H132482   0.832   3.701  11.630 -0.2145 -0.6084  0.2627
 3689TIP3    H232483   0.690   3.749  11.654  0.0506  0.5368 -0.3636
 3690TIP3   OH232484   1.673   0.754  16.723  0.7385  0.5858 -0.5382
 3690TIP3    H132485   1.640   0.677  16.676  0.6367  1.4866 -2.0247
 3690TIP3    H232486   1.706   0.720  16.806 -2.0218 -0.6445  0.1387
 3691TIP3   OH232487   1.193   3.140  14.516  0.0247  0.2438  0.1455
 3691TIP3    H132488   1.235   3.134  14.601  1.0662  0.3441 -0.3378
 3691TIP3    H232489   1.252   3.196  14.464  0.0636 -0.8142 -1.0069
 3692TIP3   OH232490   6.230   1.192   3.369  0.1411  0.2617 -0.1342
 3692TIP3    H132491   6.319   1.227   3.376 -0.4112  1.3830  2.7424
 3692TIP3    H232492   6.239   1.098   3.384  0.9265  0.1493 -1.1664
 3693TIP3   OH232493   1.183   2.577  16.267 -0.0118  0.4855  0.7992
 3693TIP3    H132494   1.135   2.630  16.203  1.3810 -1.0848 -1.6675
 3693TIP3    H232495   1.115   2.548  16.329 -1.7284  0.7679 -0.8482
 3694TIP3   OH232496   0.228   2.690   4.936 -0.4116  0.2437 -0.2952
 3694TIP3    H132497   0.199   2.776   4.906 -0.0288  0.5796  0.2634
 3694TIP3    H232498   0.153   2.655   4.984 -0.0056  1.0130  0.9582
 3695TIP3   OH232499   1.234   5.188   4.102  0.4027  0.0024 -0.4419
 3695TIP3    H132500   1.318   5.228   4.126 -0.1220  0.3548  0.9576
 3695TIP3    H232501   1.172   5.262   4.104 -0.2503 -0.5482  0.3543
 3696TIP3   OH232502   5.547   0.967  17.050 -0.2465 -0.2558 -0.0678
 3696TIP3    H132503   5.592   0.890  17.085  1.7345  0.2328 -1.4048
 3696TIP3    H232504   5.498   1.002  17.125 -0.7903 -2.4756  0.7053
 3697TIP3   OH232505   2.077   2.545   5.860 -0.3426 -0.3931 -0.4339
 3697TIP3    H132506   2.003   2.491   5.887 -0.8173  0.2651 -0.4102
 3697TIP3    H232507   2.136   2.543   5.936 -1.8076  1.6952  0.8493
 3698TIP3   OH232508   0.778   2.876  15.578  0.6421 -0.6106  0.4253
 3698TIP3    H132509   0.848   2.940  15.569  1.2947 -1.6075 -2.7609
 3698TIP3    H232510   0.698   2.924  15.557  0.9338 -0.4367 -0.3186
 3699TIP3   OH232511   1.826   3.631  13.914 -0.3441 -0.0605  0.0781
 3699TIP3    H132512   1.856   3.689  13.844 -2.9956  1.8332  0.3472
 3699TIP3    H232513   1.877   3.658  13.991 -0.9878  1.5012  0.0096
 3700TIP3   OH232514   5.134   4.087  13.533 -0.5422  0.2526 -0.0073
 3700TIP3    H132515   5.068   4.104  13.600  0.1289 -0.5539  0.8905
 3700TIP3    H232516   5.173   4.003  13.558 -0.0059  0.1199 -1.1955
 3701TIP3   OH232517   2.457   5.632   4.496  0.3873 -0.0166  0.4084
 3701TIP3    H132518   2.426   5.603   4.582 -0.4395 -0.7586 -0.1320
 3701TIP3    H232519   2.421   5.721   4.487 -0.2239 -0.2513  0.4816
 3702TIP3   OH232520   4.017   4.288   2.758  0.1595  0.2103  0.2013
 3702TIP3    H132521   4.057   4.312   2.841 -0.2859  2.3484 -0.1408
 3702TIP3    H232522   3.966   4.209   2.777  0.5623  0.3110  1.7903
 3703TIP3   OH232523   1.994   6.584  10.474 -0.1678 -0.3505  0.9822
 3703TIP3    H132524   2.067   6.639  10.503 -0.8396  0.7559  0.6415
 3703TIP3    H232525   1.932   6.645  10.434 -0.1819 -1.5560 -0.9883
 3704TIP3   OH232526   1.021   2.720  13.762 -0.2866  0.4718  0.0538
 3704TIP3    H132527   1.018   2.646  13.700  1.8037  1.2319 -1.0645
 3704TIP3    H232528   1.045   2.795  13.708  1.8715  1.1252  1.7734
 3705TIP3   OH232529   4.823   2.160   2.105 -1.3472 -0.4014  0.3260
 3705TIP3    H132530   4.837   2.196   2.017  0.5329  1.7280  1.3824
 3705TIP3    H232531   4.740   2.197   2.134 -0.8110  0.8675  0.3097
 3706TIP3   OH232532   3.991   5.866  15.572  0.2085  0.0434 -0.0324
 3706TIP3    H132533   3.899   5.883  15.593  0.3387 -0.4405  1.0310
 3706TIP3    H232534   4.013   5.787  15.622  1.1669  0.0715 -0.3777
 3707TIP3   OH232535   6.364   6.563  13.726  0.1718  0.4679 -0.0907
 3707TIP3    H132536   6.372   6.543  13.819  0.3160 -0.4146 -0.2775
 3707TIP3    H232537   6.386   6.655  13.718 -1.2364  0.9285  0.9415
 3708TIP3   OH232538   4.167   1.615  15.098 -0.2191  0.3211  0.1815
 3708TIP3    H132539   4.252   1.601  15.139 -0.0737 -0.0835 -0.2384
 3708TIP3    H232540   4.162   1.709  15.083  0.5691  0.2522 -0.6420
 3709TIP3   OH232541   1.214   6.598  17.247 -0.5383 -0.2336 -0.3308
 3709TIP3    H132542   1.260   6.649  17.181 -0.6317  1.9677  1.2065
 3709TIP3    H232543   1.279   6.535  17.278  0.3641  0.5276 -0.6309
 3710TIP3   OH232544   3.344   5.105  14.121 -0.3443  0.2038 -0.3660
 3710TIP3    H132545   3.348   5.023  14.170  0.4459  0.2759 -0.2844
 3710TIP3    H232546   3.400   5.165  14.171 -1.0235  0.8323 -0.3510
 3711TIP3   OH232547   3.431   3.165   2.034 -0.2027  0.1718 -0.6335
 3711TIP3    H132548   3.485   3.239   2.062 -0.2258 -0.9735  2.9130
 3711TIP3    H232549   3.489   3.110   1.982  1.4116  0.0807  1.1959
 3712TIP3   OH232550   2.638   0.536   4.887 -0.7199  0.0111 -0.2967
 3712TIP3    H132551   2.667   0.489   4.809 -1.9807 -2.1106  0.4118
 3712TIP3    H232552   2.704   0.515   4.953 -0.5162  0.4624 -0.3542
 3713TIP3   OH232553   3.422   1.801   4.352 -0.2712  0.2743 -0.5186
 3713TIP3    H132554   3.389   1.836   4.270 -0.4926  0.3840 -0.3837
 3713TIP3    H232555   3.370   1.721   4.367  0.5080 -0.3391 -1.0306
 3714TIP3   OH232556   4.040   5.468  16.728 -0.0189  0.1822  0.3992
 3714TIP3    H132557   4.127   5.449  16.692  0.2261 -0.4740  1.2900
 3714TIP3    H232558   4.048   5.555  16.766 -0.2858  0.8905 -1.1075
 3715TIP3   OH232559   0.796   5.202   5.402  0.2511  0.0810 -0.5519
 3715TIP3    H132560   0.818   5.281   5.353  0.3656  0.1493 -0.3913
 3715TIP3    H232561   0.734   5.156   5.347  0.6022  0.0130 -0.8951
 3716TIP3   OH232562   1.361   4.299  12.971 -0.4247 -0.2697  0.3362
 3716TIP3    H132563   1.415   4.225  12.942 -1.2717 -0.7196 -0.1373
 3716TIP3    H232564   1.403   4.328  13.053  0.4217 -0.7142  0.0806
 3717TIP3   OH232565   2.426   1.681  13.948  0.1871  0.1509 -0.6265
 3717TIP3    H132566   2.448   1.593  13.979 -0.3110 -0.3384 -1.5943
 3717TIP3    H232567   2.342   1.701  13.991  1.6231  1.3587  1.8115
 3718TIP3   OH232568   3.615   0.545  11.042 -0.3408 -0.1725 -0.6261
 3718TIP3    H132569   3.546   0.550  11.108 -0.1734 -0.8927 -0.3849
 3718TIP3    H232570   3.569   0.549  10.959 -0.5812  0.4511 -0.4678
 3719TIP3   OH232571   4.814   2.522   1.699  0.1650 -0.8981  0.1333
 3719TIP3    H132572   4.749   2.526   1.629  0.3364 -1.2359 -0.0469
 3719TIP3    H232573   4.842   2.613   1.711 -2.0015 -0.3461  1.8138
 3720TIP3   OH232574   1.903   6.291   1.374 -0.3469  0.2760 -0.2733
 3720TIP3    H132575   1.953   6.209   1.378 -3.5155 -1.9129 -1.6750
 3720TIP3    H232576   1.930   6.331   1.291  0.2699 -0.0001 -0.2126
 3721TIP3   OH232577   4.002   1.155   5.552  0.2756  1.0326  0.3567
 3721TIP3    H132578   3.971   1.116   5.470  0.5963  0.2526  0.5873
 3721TIP3    H232579   4.097   1.159   5.542  0.2669  1.4950  0.4558
 3722TIP3   OH232580   6.062   1.665   1.117 -0.1807 -0.3078  0.0613
 3722TIP3    H132581   6.067   1.631   1.206  0.5932  2.0057  0.9706
 3722TIP3    H232582   5.968   1.671   1.098 -0.3428 -1.1902  0.5400
 3723TIP3   OH232583   5.972   4.718   3.103 -0.0231  0.1843 -0.1597
 3723TIP3    H132584   5.956   4.687   3.014  1.9944  1.6561 -1.1293
 3723TIP3    H232585   6.010   4.806   3.091  0.1683  0.4887  2.1613
 3724TIP3   OH232586   2.365   4.077  15.424  0.7839  0.4800 -0.0666
 3724TIP3    H132587   2.436   4.109  15.480  0.9560  0.0287 -0.0200
 3724TIP3    H232588   2.410   4.024  15.357  0.4388 -0.4336  0.4066
 3725TIP3   OH232589   0.533   2.541  13.059 -0.3141 -0.6947 -0.1823
 3725TIP3    H132590   0.620   2.555  13.022  0.4991 -0.3951  1.7234
 3725TIP3    H232591   0.493   2.628  13.060  1.1517  0.1051  3.0127
 3726TIP3   OH232592   6.328   0.220   5.400 -0.0632 -0.3886 -0.3372
 3726TIP3    H132593   6.393   0.189   5.462 -0.6024 -0.3188  0.2784
 3726TIP3    H232594   6.271   0.278   5.451 -1.4402 -1.5306 -0.5008
 3727TIP3   OH232595   4.463   5.706   3.015  0.1214 -0.3226 -0.3211
 3727TIP3    H132596   4.470   5.730   3.107  0.6268 -0.0807 -0.4186
 3727TIP3    H232597   4.452   5.611   3.016 -0.5117 -0.2483  0.0123
 3728TIP3   OH232598   2.035   4.777  15.546  0.7728 -0.1622 -0.0930
 3728TIP3    H132599   2.016   4.827  15.625  0.1165 -1.1428  0.3901
 3728TIP3    H232600   2.087   4.703  15.576  0.9916 -0.2519 -0.6688
 3729TIP3   OH232601   3.969   6.147   3.313 -0.4232  0.4936 -0.2767
 3729TIP3    H132602   4.016   6.064   3.320  1.4754  1.5766  0.7498
 3729TIP3    H232603   3.925   6.142   3.228  0.9593 -0.9150 -0.9600
 3730TIP3   OH232604   1.660   5.004  14.536 -0.2758  0.3096  0.6037
 3730TIP3    H132605   1.596   5.059  14.581 -0.4195  1.6544 -1.1626
 3730TIP3    H232606   1.650   5.026  14.443  1.5739 -0.7062  0.1183
 3731TIP3   OH232607   2.044   2.650   2.599  0.1179  0.0343 -0.3417
 3731TIP3    H132608   2.013   2.655   2.508  0.3781 -0.3587 -0.4543
 3731TIP3    H232609   2.125   2.701   2.600  0.9876 -1.2994 -0.7154
 3732TIP3   OH232610   4.401   3.470  13.060 -0.3074 -0.2625 -0.0027
 3732TIP3    H132611   4.347   3.528  13.113 -0.4567 -0.3813 -0.0222
 3732TIP3    H232612   4.403   3.388  13.109  0.4993 -0.0279  0.3854
 3733TIP3   OH232613   4.514   2.168   1.109  0.1851  0.0721 -0.6298
 3733TIP3    H132614   4.477   2.216   1.034 -1.7154  1.9373  1.3593
 3733TIP3    H232615   4.572   2.231   1.152  0.6770 -0.7230 -0.1065
 3734TIP3   OH232616   3.769   4.695  14.583 -0.5347 -0.0004 -0.1738
 3734TIP3    H132617   3.731   4.711  14.670  0.8114  0.7108  0.3061
 3734TIP3    H232618   3.708   4.634  14.542 -1.0736 -0.5619  1.3708
 3735TIP3   OH232619   4.603   4.235  13.916 -0.6128  0.3623 -0.4251
 3735TIP3    H132620   4.606   4.330  13.908 -0.7520  0.3082 -1.2491
 3735TIP3    H232621   4.683   4.212  13.964  0.2121  0.7833 -1.5419
 3736TIP3   OH232622   5.239   3.744   4.608  0.4779 -0.3394  0.4277
 3736TIP3    H132623   5.315   3.796   4.584  1.0413 -1.3573 -0.0550
 3736TIP3    H232624   5.270   3.653   4.606 -0.7363 -0.7709  0.2510
 3737TIP3   OH232625   1.415   3.826   1.992  0.3924  0.7590  0.5590
 3737TIP3    H132626   1.396   3.834   1.899  0.6842  3.2035  0.6212
 3737TIP3    H232627   1.474   3.751   1.998 -1.0896 -0.5867 -0.9480
 3738TIP3   OH232628   4.784   2.373   5.761  1.0019 -0.1887  0.9669
 3738TIP3    H132629   4.875   2.363   5.788  1.6224 -0.7469 -1.1350
 3738TIP3    H232630   4.788   2.379   5.665 -1.1502  0.0823  0.8443
 3739TIP3   OH232631   4.459   5.416  14.587  0.1559  0.0254  0.1467
 3739TIP3    H132632   4.544   5.449  14.558 -0.5053  1.2221 -0.4949
 3739TIP3    H232633   4.448   5.334  14.539  0.5465  0.3113 -0.4409
 3740TIP3   OH232634   2.153   3.700   0.359  0.5290  0.4969 -0.3004
 3740TIP3    H132635   2.198   3.717   0.276  0.4758  1.3026 -0.1764
 3740TIP3    H232636   2.148   3.605   0.365  0.6187  0.4274 -1.1765
 3741TIP3   OH232637   5.305   0.682  13.859  0.6885  0.8563 -0.1289
 3741TIP3    H132638   5.302   0.755  13.921 -0.3202  0.7910 -0.0924
 3741TIP3    H232639   5.364   0.712  13.790  0.5345  1.5844  0.0443
 3742TIP3   OH232640   4.606   3.289  16.778  0.0430  0.2688  0.0621
 3742TIP3    H132641   4.682   3.250  16.822 -0.9505 -0.4219  1.2406
 3742TIP3    H232642   4.532   3.241  16.813 -1.2127  2.7436  1.0451
 3743TIP3   OH232643   1.642   4.139   0.896 -0.0643 -0.2689 -0.4242
 3743TIP3    H132644   1.607   4.115   0.982  1.1051  0.8805  0.3976
 3743TIP3    H232645   1.564   4.147   0.841 -0.9010 -0.2393  0.7113
 3744TIP3   OH232646   2.928   4.125  11.455  0.1643 -0.0184 -0.2450
 3744TIP3    H132647   2.902   4.102  11.544 -1.7617  1.2766 -0.4162
 3744TIP3    H232648   3.015   4.165  11.465 -0.0199  0.1040  1.0447
 3745TIP3   OH232649   0.220   6.369   1.850  0.5913  0.0521 -0.3908
 3745TIP3    H132650   0.212   6.464   1.841 -0.4200 -0.2269 -3.0799
 3745TIP3    H232651   0.134   6.340   1.880  0.9445 -0.0388  0.5787
 3746TIP3   OH232652   6.519   6.494  15.958  1.0133  0.1112 -0.0484
 3746TIP3    H132653   6.488   6.408  15.929  1.0310 -0.0446  0.3932
 3746TIP3    H232654   6.463   6.557  15.912  1.1775 -0.1258 -0.5824
 3747TIP3   OH232655   5.289   5.258  16.085 -0.3189  0.0955  0.1586
 3747TIP3    H132656   5.307   5.320  16.156 -1.0784  0.2070  0.2546
 3747TIP3    H232657   5.270   5.313  16.009 -0.2107 -0.0268  0.0412
 3748TIP3   OH232658   6.258   0.827   2.720 -0.1288 -0.5218  0.1337
 3748TIP3    H132659   6.185   0.784   2.764 -0.3085 -0.0731  0.2787
 3748TIP3    H232660   6.336   0.796   2.767 -0.3323  0.1080  0.9067
 3749TIP3   OH232661   2.910   1.551  12.823 -0.0466 -0.6596  0.7438
 3749TIP3    H132662   2.981   1.566  12.886  1.0393  1.2530 -0.8104
 3749TIP3    H232663   2.947   1.493  12.758 -1.5463 -3.6172  2.3188
 3750TIP3   OH232664   4.522   0.209   1.775  0.0713 -0.6405 -0.1679
 3750TIP3    H132665   4.582   0.185   1.846  0.5439  1.0084  0.0347
 3750TIP3    H232666   4.478   0.288   1.807  0.6962  0.4499 -1.9166
 3751TIP3   OH232667   2.587   0.252  12.959  0.0908  0.2915  0.2677
 3751TIP3    H132668   2.563   0.286  12.873 -1.3402  0.6987  0.7950
 3751TIP3    H232669   2.533   0.174  12.970  0.5043  0.0568  0.6657
 3752TIP3   OH232670   1.745   6.273  11.256  0.0534  0.5284  0.3337
 3752TIP3    H132671   1.815   6.266  11.321 -0.7100  1.0131  1.2559
 3752TIP3    H232672   1.789   6.278  11.172  1.1045  0.4964  0.8693
 3753TIP3   OH232673   2.278   6.578   4.603  0.7230  0.0376 -0.0148
 3753TIP3    H132674   2.294   6.486   4.580 -1.1473 -0.5190  0.7417
 3753TIP3    H232675   2.360   6.606   4.644  1.9637 -0.7338 -1.8511
 3754TIP3   OH232676   6.044   6.462  10.738 -0.5104 -0.4191  0.1681
 3754TIP3    H132677   6.108   6.426  10.676 -0.8037 -1.0948  0.2401
 3754TIP3    H232678   6.079   6.548  10.762 -0.2117 -0.3024 -0.6532
 3755TIP3   OH232679   3.899   2.904   0.023 -0.0769  0.1768 -0.1510
 3755TIP3    H132680   3.835   2.897  -0.047  1.5596 -1.1785 -1.5990
 3755TIP3    H232681   3.860   2.857   0.096 -1.3017  0.5766 -0.5251
 3756TIP3   OH232682   4.754   2.119   4.871  0.0704  0.1990  0.1708
 3756TIP3    H132683   4.746   2.050   4.805 -0.5732  0.3952  0.0418
 3756TIP3    H232684   4.666   2.130   4.905  0.4952 -0.3237  1.5175
 3757TIP3   OH232685   3.131   1.170   2.204  0.2260 -0.7082 -0.1945
 3757TIP3    H132686   3.050   1.186   2.253 -1.2920 -0.1167 -2.7370
 3757TIP3    H232687   3.200   1.194   2.266 -1.5707  0.6238  1.4517
 3758TIP3   OH232688   5.385   5.430  13.901 -0.1674 -0.3333  0.0185
 3758TIP3    H132689   5.289   5.436  13.899 -0.2276  0.4407  2.0657
 3758TIP3    H232690   5.415   5.515  13.867 -0.2284 -0.3385 -0.0488
 3759TIP3   OH232691   0.767   3.019   3.033  0.0738 -0.2474 -0.6650
 3759TIP3    H132692   0.720   3.076   3.094 -1.7392 -1.5169 -0.7967
 3759TIP3    H232693   0.825   2.967   3.088 -1.5147 -1.3494  0.0652
 3760TIP3   OH232694   0.752   6.396   5.690 -0.1559 -0.0757 -0.2492
 3760TIP3    H132695   0.714   6.396   5.602 -0.3143  0.7391 -0.1866
 3760TIP3    H232696   0.803   6.315   5.693  1.4322  0.7935 -1.7775
 3761TIP3   OH232697   4.955   1.791   1.664 -0.3465 -0.1904 -0.4517
 3761TIP3    H132698   4.875   1.803   1.715  0.2408 -1.1550  0.7389
 3761TIP3    H232699   5.025   1.785   1.730  0.4319 -1.4559 -1.3495
 3762TIP3   OH232700   1.432   4.426  12.694  0.0410 -0.0737  0.0815
 3762TIP3    H132701   1.452   4.333  12.683 -0.6501 -0.3543  1.0437
 3762TIP3    H232702   1.341   4.436  12.666  0.8195  0.8263 -2.4100
 3763TIP3   OH232703   5.762   0.679  12.374  0.2086  0.1842 -0.9072
 3763TIP3    H132704   5.805   0.646  12.295  0.1106 -0.4719 -0.6969
 3763TIP3    H232705   5.819   0.649  12.445 -0.9720 -1.3811 -0.5620
 3764TIP3   OH232706   5.132   1.044  16.703  0.5924  0.1676 -0.5351
 3764TIP3    H132707   5.198   1.101  16.743  0.3680 -0.1919  0.3668
 3764TIP3    H232708   5.066   1.032  16.771 -0.2276  0.2219 -1.2995
 3765TIP3   OH232709   5.865   1.910   0.977 -0.0378  0.2109  0.1880
 3765TIP3    H132710   5.947   1.957   0.961 -0.3511 -0.1684 -3.2212
 3765TIP3    H232711   5.839   1.876   0.891 -3.7431  0.2272  1.1285
 3766TIP3   OH232712   2.397   1.193   0.530 -0.5407 -0.3250 -0.0136
 3766TIP3    H132713   2.360   1.162   0.613  0.7165 -0.6688  0.4477
 3766TIP3    H232714   2.328   1.178   0.465 -0.1668 -3.8456  0.2285
 3767TIP3   OH232715   6.419   5.210  12.366 -0.0141 -0.3051 -0.3626
 3767TIP3    H132716   6.438   5.149  12.437 -0.7091  0.5355  0.5751
 3767TIP3    H232717   6.492   5.200  12.305  0.3276 -1.4196  0.2066
 3768TIP3   OH232718   4.275   1.533  11.931 -0.0342  0.7746  0.3021
 3768TIP3    H132719   4.279   1.495  12.019  0.8090  0.8080  0.2834
 3768TIP3    H232720   4.228   1.616  11.943 -1.5467 -0.0713  0.4058
 3769TIP3   OH232721   3.137   5.324   5.658 -0.2944 -0.0013  0.1478
 3769TIP3    H132722   3.165   5.269   5.731 -0.1167 -0.7035 -0.4365
 3769TIP3    H232723   3.185   5.290   5.583 -0.5174  0.6783 -0.3110
 3770TIP3   OH232724   3.513   2.020  12.730  0.2369  0.0595 -0.5474
 3770TIP3    H132725   3.485   2.029  12.821 -0.0194  0.0692 -0.6272
 3770TIP3    H232726   3.552   1.933  12.725  0.0550 -0.0251 -0.4812
 3771TIP3   OH232727   4.083   1.728  11.262 -0.5345 -0.3828  0.0467
 3771TIP3    H132728   4.002   1.678  11.249 -0.5725 -0.3015 -0.0257
 3771TIP3    H232729   4.057   1.819  11.251 -0.7440 -0.2464  1.5376
 3772TIP3   OH232730   1.011   0.899   3.859 -0.1245  0.2365  0.1056
 3772TIP3    H132731   1.048   0.986   3.873  2.4000 -0.6700 -0.3724
 3772TIP3    H232732   0.988   0.868   3.947  0.4933  0.7573  0.4532
 3773TIP3   OH232733   4.462   0.408   3.687 -0.4053 -0.1760 -0.0538
 3773TIP3    H132734   4.416   0.431   3.606 -1.8186 -0.7899  0.5497
 3773TIP3    H232735   4.509   0.328   3.665 -1.3378 -0.7292 -0.0901
 3774TIP3   OH232736   0.527   4.020   4.625  0.3045  0.0886  0.6960
 3774TIP3    H132737   0.599   4.072   4.659 -0.2916  2.3076 -1.1494
 3774TIP3    H232738   0.543   4.014   4.531 -1.1197 -0.7173  0.4624
 3775TIP3   OH232739   6.101   3.536  17.016 -0.1770 -0.6973  0.3953
 3775TIP3    H132740   6.013   3.566  17.036 -0.9959 -1.9858 -1.0698
 3775TIP3    H232741   6.135   3.503  17.099 -0.4344  1.2458  1.3299
 3776TIP3   OH232742   1.468   1.130   5.351  0.2154 -0.1366  0.4440
 3776TIP3    H132743   1.479   1.109   5.258  0.1745  1.9153 -0.0826
 3776TIP3    H232744   1.392   1.188   5.353 -1.2841 -2.0120  2.1003
 3777TIP3   OH232745   3.243   2.348  15.259  0.3156  0.0631 -0.6251
 3777TIP3    H132746   3.168   2.385  15.212 -0.4392 -0.2020  0.3487
 3777TIP3    H232747   3.204   2.296  15.329  1.4034 -0.7892 -0.6272
 3778TIP3   OH232748   1.408   1.012   4.308 -0.0981  0.3984 -0.2891
 3778TIP3    H132749   1.469   0.938   4.318  0.4164  0.9949  1.1900
 3778TIP3    H232750   1.436   1.055   4.227  1.9252  1.0615  0.7053
 3779TIP3   OH232751   1.544   4.482  14.732 -0.3188 -0.1550  0.2481
 3779TIP3    H132752   1.525   4.504  14.823  0.5615 -0.1453  0.4382
 3779TIP3    H232753   1.459   4.489  14.687 -1.1744 -2.0660  1.4228
 3780TIP3   OH232754   3.918   2.381   1.366  0.1332 -0.2230 -0.4879
 3780TIP3    H132755   3.912   2.342   1.279  1.0011  0.6977 -0.9974
 3780TIP3    H232756   3.989   2.333   1.409  0.0195 -0.3701 -0.4655
 3781TIP3   OH232757   6.400   3.613   5.715  0.8138 -0.8128  0.1148
 3781TIP3    H132758   6.475   3.561   5.745  2.1009  0.1922 -1.2435
 3781TIP3    H232759   6.376   3.666   5.792  2.3553 -0.1931  0.2011
 3782TIP3   OH232760   3.044   3.525  14.303 -0.2738  0.7194 -0.0786
 3782TIP3    H132761   3.013   3.601  14.353  0.7553  1.5838 -0.7049
 3782TIP3    H232762   3.002   3.450  14.345  0.5862  1.3995  2.1300
 3783TIP3   OH232763   0.340   2.408  16.167  0.7586 -0.0640 -0.0973
 3783TIP3    H132764   0.421   2.457  16.182  0.5097 -0.0990  1.5016
 3783TIP3    H232765   0.362   2.318  16.190  0.3734 -0.1431 -0.0371
 3784TIP3   OH232766   4.979   1.858  13.697 -0.2525 -0.3943 -0.3651
 3784TIP3    H132767   5.024   1.832  13.778  0.6896  0.4925 -0.5813
 3784TIP3    H232768   5.049   1.888  13.639 -1.0396  0.2307 -1.0270
 3785TIP3   OH232769   4.532   1.433   0.929  0.1130  0.0799 -0.4449
 3785TIP3    H132770   4.624   1.445   0.950 -0.0681 -0.0616  0.4807
 3785TIP3    H232771   4.498   1.522   0.920  0.0729  0.1678  0.4761
 3786TIP3   OH232772   3.192   1.895  14.326  0.3550 -0.0129  0.2120
 3786TIP3    H132773   3.122   1.960  14.331  0.9933  0.6877  0.2218
 3786TIP3    H232774   3.231   1.907  14.239 -0.7284 -1.6773 -0.5445
 3787TIP3   OH232775   5.824   5.560   6.038  0.4535  0.2889  0.4826
 3787TIP3    H132776   5.781   5.524   6.116  1.7017  0.0988  1.1096
 3787TIP3    H232777   5.858   5.483   5.992  0.7095  0.4784  0.3500
 3788TIP3   OH232778   0.194   5.507  10.676  0.0139 -0.1738  0.3456
 3788TIP3    H132779   0.132   5.509  10.602 -1.2585 -0.1287  1.3749
 3788TIP3    H232780   0.211   5.413  10.690 -0.8071 -0.2618  0.8281
 3789TIP3   OH232781   1.796   3.291  14.289 -0.5175 -0.1049  0.5643
 3789TIP3    H132782   1.786   3.376  14.330  0.0546  1.3242 -2.0141
 3789TIP3    H232783   1.862   3.305  14.221 -0.9587 -2.3951 -0.4303
 3790TIP3   OH232784   0.388   0.973  12.393  0.0649 -0.3977  0.4168
 3790TIP3    H132785   0.312   0.915  12.397 -1.0905  1.1421  2.5066
 3790TIP3    H232786   0.354   1.060  12.414  2.0321  0.7913 -0.9388
 3791TIP3   OH232787   4.434   2.513  14.067  0.5705 -0.2744  0.0791
 3791TIP3    H132788   4.516   2.464  14.059  1.5084  1.1682  0.3992
 3791TIP3    H232789   4.416   2.544  13.979  1.2142  0.6618  0.2570
 3792TIP3   OH232790   4.205   1.025  12.716  0.3830  0.2711  0.3279
 3792TIP3    H132791   4.149   0.948  12.703 -0.4156  1.0650 -1.3040
 3792TIP3    H232792   4.292   0.996  12.687 -0.0159  0.1021 -0.7563
 3793TIP3   OH232793   2.715   5.880  15.766  0.1717 -0.9322 -0.3172
 3793TIP3    H132794   2.729   5.883  15.671  0.2924 -1.1016 -0.3056
 3793TIP3    H232795   2.705   5.787  15.786  1.2182 -0.9842 -0.0084
 3794TIP3   OH232796   5.469   5.051  16.931 -0.1655 -0.2864 -0.4371
 3794TIP3    H132797   5.495   4.963  16.903  0.4312 -0.4841  0.6580
 3794TIP3    H232798   5.384   5.066  16.890 -0.9467 -1.9561  0.4912
 3795TIP3   OH232799   6.407   0.167  11.096  0.2324 -0.0115  0.7548
 3795TIP3    H132800   6.497   0.173  11.128  0.3933  3.6752  0.0378
 3795TIP3    H232801   6.415   0.125  11.010  1.3930  0.6650  0.5030
 3796TIP3   OH232802   5.789   0.851   2.748 -0.1076  1.0000 -0.8362
 3796TIP3    H132803   5.825   0.810   2.826  1.3458  4.2407  0.3922
 3796TIP3    H232804   5.695   0.840   2.755  0.1224 -0.4602  0.3424
 3797TIP3   OH232805   6.518   4.363  16.458  0.1120 -0.5123  0.1675
 3797TIP3    H132806   6.529   4.372  16.553  1.9090  1.2245 -0.1484
 3797TIP3    H232807   6.439   4.413  16.438 -0.3152 -0.9445  0.7275
 3798TIP3   OH232808   0.689   3.496  13.570  0.3243 -0.0681  0.1879
 3798TIP3    H132809   0.686   3.420  13.512  0.4447 -1.6051  2.1219
 3798TIP3    H232810   0.641   3.469  13.648  0.6582  1.7264  1.0713
 3799TIP3   OH232811   4.112   5.413  13.867 -0.5366  0.6927 -0.1668
 3799TIP3    H132812   4.019   5.413  13.844 -1.2103 -3.3490  1.5667
 3799TIP3    H232813   4.114   5.446  13.957 -0.4933 -0.1751  0.1626
 3800TIP3   OH232814   1.167   5.588  13.707 -0.2058 -0.3506  0.0143
 3800TIP3    H132815   1.236   5.650  13.730 -0.5616 -0.0138  0.1799
 3800TIP3    H232816   1.210   5.502  13.710 -0.2388 -0.3405  1.9909
 3801TIP3   OH232817   3.853   4.073   4.793 -0.0057  0.1944 -0.2130
 3801TIP3    H132818   3.909   4.125   4.735  0.1171 -0.0910 -0.3510
 3801TIP3    H232819   3.773   4.125   4.802  0.3642  0.7038  0.1559
 3802TIP3   OH232820   6.202   3.296  10.274  0.8478 -0.2700  0.5150
 3802TIP3    H132821   6.246   3.238  10.336  0.3917 -1.9762 -0.6877
 3802TIP3    H232822   6.122   3.249  10.250  0.5112  0.8156 -0.5844
 3803TIP3   OH232823   5.920   1.350   0.957 -0.3313  0.1209 -0.2475
 3803TIP3    H132824   6.013   1.373   0.956 -0.6760  1.5786 -0.4733
 3803TIP3    H232825   5.912   1.287   1.029  1.5904 -3.5852 -2.9563
 3804TIP3   OH232826   1.522   2.457   5.477 -0.1508  0.6729 -1.1706
 3804TIP3    H132827   1.520   2.465   5.572  2.4316  0.0981 -0.9930
 3804TIP3    H232828   1.594   2.514   5.450 -0.3486  0.2312 -2.7216
 3805TIP3   OH232829   2.503   5.989   4.284  0.1293 -0.0440 -0.2046
 3805TIP3    H132830   2.588   5.945   4.274  0.3551 -0.0418  1.4582
 3805TIP3    H232831   2.451   5.929   4.338 -0.5639  0.4364 -0.3326
 3806TIP3   OH232832   2.472   3.742   1.384  0.0074 -0.4080  0.7506
 3806TIP3    H132833   2.377   3.744   1.373  0.0327 -1.6694  0.1956
 3806TIP3    H232834   2.499   3.658   1.348  1.5070  0.4840 -0.3356
 3807TIP3   OH232835   6.741   3.850  10.901 -0.4973 -0.3467 -0.4675
 3807TIP3    H132836   6.768   3.881  10.814 -0.3184 -1.1580 -0.7074
 3807TIP3    H232837   6.715   3.930  10.947  0.3742  0.2200 -0.9216
 3808TIP3   OH232838   3.514   0.903   3.023  0.5314  0.1953  0.1388
 3808TIP3    H132839   3.603   0.911   2.989  1.0569 -2.2330  0.7299
 3808TIP3    H232840   3.475   0.831   2.974 -0.7134  0.4662  0.6777
 3809TIP3   OH232841   1.268   4.173  12.337  0.0100  0.5594  0.1629
 3809TIP3    H132842   1.277   4.080  12.318  0.3376  0.9783 -2.0111
 3809TIP3    H232843   1.299   4.182  12.427 -0.2535 -1.4555  0.4969
 3810TIP3   OH232844   1.989   5.148  15.036 -0.0450  0.5420  0.0754
 3810TIP3    H132845   2.077   5.131  15.003  0.2616  0.8951  0.6878
 3810TIP3    H232846   1.934   5.083  14.993  0.1405  1.6377 -1.9525
 3811TIP3   OH232847   3.277   5.378   4.918  0.0770  0.6556 -0.4507
 3811TIP3    H132848   3.311   5.297   4.880  0.3182 -0.6331  2.2357
 3811TIP3    H232849   3.343   5.443   4.899  1.0036 -0.3303 -0.7158
 3812TIP3   OH232850   2.304   1.412  14.292 -0.0190 -0.5110 -0.1833
 3812TIP3    H132851   2.367   1.377  14.355 -0.5809 -1.0639  0.0683
 3812TIP3    H232852   2.353   1.414  14.209  0.0113 -1.9542 -0.2262
 3813TIP3   OH232853   3.749   5.758   0.056 -0.5135  0.2461  0.2231
 3813TIP3    H132854   3.783   5.669   0.065 -0.1881  0.4784  1.4483
 3813TIP3    H232855   3.654   5.748   0.051 -0.5755 -0.1003  1.7487
 3814TIP3   OH232856   1.788   0.839  16.442 -0.4089  0.4594  0.4000
 3814TIP3    H132857   1.811   0.845  16.534 -0.3128 -0.3275  0.4352
 3814TIP3    H232858   1.738   0.918  16.424  2.4760  2.4082  0.2623
 3815TIP3   OH232859   3.751   3.744   2.159 -0.4215 -0.2933  0.3588
 3815TIP3    H132860   3.708   3.804   2.097 -0.9828 -0.7874  0.2657
 3815TIP3    H232861   3.717   3.770   2.245 -1.1197 -0.8496  0.2602
 3816TIP3   OH232862   4.925   5.603  11.699  0.0123 -0.6359  0.0097
 3816TIP3    H132863   4.999   5.657  11.726  0.5714 -1.0422 -0.6681
 3816TIP3    H232864   4.903   5.551  11.777 -1.1456  1.1962  0.9777
 3817TIP3   OH232865   4.721   6.788  14.357  0.1305 -0.0403 -0.4119
 3817TIP3    H132866   4.629   6.797  14.384 -0.8537  0.3462 -3.5070
 3817TIP3    H232867   4.751   6.709  14.401 -1.8736 -0.4808  0.2646
 3818TIP3   OH232868   3.655   3.320  14.909 -0.3352  0.0265 -0.5277
 3818TIP3    H132869   3.643   3.227  14.924  0.5844  0.1663  1.4848
 3818TIP3    H232870   3.572   3.350  14.873 -0.8720 -1.4444 -0.5751
 3819TIP3   OH232871   2.983   3.999   3.947  0.4474  0.6465 -0.0883
 3819TIP3    H132872   2.916   4.009   4.015  1.1978 -0.9047  0.9330
 3819TIP3    H232873   3.028   4.084   3.945  1.2145  0.3595  2.2521
 3820TIP3   OH232874   0.707   6.362   5.090 -0.4652  0.4395 -0.2922
 3820TIP3    H132875   0.659   6.320   5.019 -1.4074  1.8921 -0.5563
 3820TIP3    H232876   0.639   6.390   5.152  0.3938 -2.0200  1.9616
 3821TIP3   OH232877   5.509   6.651   6.772 -0.1630 -0.5892  0.5698
 3821TIP3    H132878   5.554   6.667   6.689  1.3410  0.1883  1.5118
 3821TIP3    H232879   5.578   6.623   6.832 -1.5610 -3.6892  0.9535
 3822TIP3   OH232880   2.979   1.098   3.315  0.1427  0.3288  0.3951
 3822TIP3    H132881   3.007   1.007   3.310  0.1841  0.3369  0.4877
 3822TIP3    H232882   2.927   1.103   3.395 -2.9022 -0.4667 -1.3511
 3823TIP3   OH232883   4.735   3.817   0.987 -0.7219 -0.2159  0.3729
 3823TIP3    H132884   4.828   3.808   0.966 -0.5378  0.4537  0.8461
 3823TIP3    H232885   4.699   3.729   0.979  0.0335 -0.5429  0.5304
 3824TIP3   OH232886   0.190   6.209   5.983 -0.2408  0.8853 -0.1083
 3824TIP3    H132887   0.153   6.240   5.901  0.3527  1.8555 -0.0281
 3824TIP3    H232888   0.264   6.267   5.999 -0.7651  1.1645  1.4670
 3825TIP3   OH232889   2.647   2.125   2.742  0.1920 -0.7045  0.2442
 3825TIP3    H132890   2.736   2.118   2.706  0.5336  2.7937  0.1418
 3825TIP3    H232891   2.620   2.215   2.724 -4.2178 -2.1093 -1.4415
 3826TIP3   OH232892   1.173   1.343  15.765 -0.6595  0.4158 -0.7889
 3826TIP3    H132893   1.116   1.337  15.689 -0.2494 -1.6482 -0.9871
 3826TIP3    H232894   1.115   1.366  15.837 -0.8590  3.7239 -1.8738
 3827TIP3   OH232895   1.687   5.773  13.474 -0.2038 -0.3958 -0.0931
 3827TIP3    H132896   1.645   5.835  13.415  0.8394  0.9477  0.5433
 3827TIP3    H232897   1.615   5.737  13.526 -0.5993  2.0752  1.1826
 3828TIP3   OH232898   3.642   2.490  12.587 -0.5472  0.6058  0.3897
 3828TIP3    H132899   3.643   2.436  12.508  0.2711  1.4114 -0.1753
 3828TIP3    H232900   3.643   2.427  12.659 -1.6172 -0.1490 -0.2270
 3829TIP3   OH232901   0.128   2.600  14.300 -0.0329 -0.2716  0.3324
 3829TIP3    H132902   0.122   2.567  14.390 -0.0884 -2.0702 -0.2983
 3829TIP3    H232903   0.211   2.648  14.297  1.2575 -2.3917  0.6760
 3830TIP3   OH232904   2.700   6.754  11.601 -0.7641 -0.9412  0.1817
 3830TIP3    H132905   2.725   6.846  11.608  0.7121 -1.4347  2.9180
 3830TIP3    H232906   2.667   6.745  11.512 -1.1342  2.2542 -0.1396
 3831TIP3   OH232907   6.150   5.583  15.193 -0.1372  0.2180  0.6720
 3831TIP3    H132908   6.205   5.564  15.269  0.8146  1.0348  0.2175
 3831TIP3    H232909   6.199   5.649  15.144 -0.4541 -0.7088 -0.9613
 3832TIP3   OH232910   2.823   5.090   5.044 -0.5509  0.0029 -0.5532
 3832TIP3    H132911   2.755   5.042   4.998  0.3260 -1.2256 -0.6334
 3832TIP3    H232912   2.905   5.057   5.007  0.1081  0.8372  0.1140
 3833TIP3   OH232913   1.340   5.361  13.676  0.0509  0.4504 -0.3336
 3833TIP3    H132914   1.435   5.374  13.675  0.1258 -0.0540 -0.2587
 3833TIP3    H232915   1.327   5.284  13.621 -0.3650  0.8201 -0.7584
 3834TIP3   OH232916   6.149   4.046   4.025 -0.4977  0.4236  0.2998
 3834TIP3    H132917   6.185   3.980   4.084 -0.3189 -0.3655 -0.6635
 3834TIP3    H232918   6.076   4.001   3.981  0.1677  0.5738 -0.9997
 3835TIP3   OH232919   3.432   3.614   2.050  0.1305 -0.0925  0.0420
 3835TIP3    H132920   3.511   3.628   1.999 -1.1146  1.9066 -1.5124
 3835TIP3    H232921   3.428   3.689   2.110  1.0292 -1.8689  2.4779
 3836TIP3   OH232922   1.629   2.819   4.219  0.3603  0.2001 -0.3264
 3836TIP3    H132923   1.651   2.829   4.126 -2.0829 -0.8843 -1.1069
 3836TIP3    H232924   1.549   2.766   4.219 -0.0952  0.7494  2.3789
 3837TIP3   OH232925   0.216   2.799   3.893 -0.0837  0.5453  0.1607
 3837TIP3    H132926   0.180   2.713   3.875 -1.5200  1.4085 -1.3556
 3837TIP3    H232927   0.146   2.846   3.938  1.3802  0.3563  2.8157
 3838TIP3   OH232928   2.954   3.875  14.109  0.2538  0.1026  0.0817
 3838TIP3    H132929   2.900   3.814  14.060  0.2367 -0.9212  1.3249
 3838TIP3    H232930   2.893   3.921  14.166  0.3415  0.9155 -0.4656
 3839TIP3   OH232931   4.645   2.269  12.371 -0.5254 -0.0249  0.2280
 3839TIP3    H132932   4.705   2.239  12.302  0.3751  1.1107  0.4699
 3839TIP3    H232933   4.560   2.276  12.328 -0.3726 -1.0985 -0.2838
 3840TIP3   OH232934   1.866   6.785  16.700 -0.4676  0.6198  0.1459
 3840TIP3    H132935   1.771   6.785  16.714 -0.4722 -2.2755  0.7275
 3840TIP3    H232936   1.903   6.794  16.788 -0.2837 -1.2783  0.2933
 3841TIP3   OH232937   5.771   5.737   1.238  0.1727  0.3996 -0.3759
 3841TIP3    H132938   5.707   5.672   1.210  0.8199 -0.2502 -0.3769
 3841TIP3    H232939   5.850   5.716   1.188  1.1562 -0.3910  1.3900
 3842TIP3   OH232940   4.243   2.800  13.267  0.2111 -0.4618 -0.2169
 3842TIP3    H132941   4.224   2.752  13.186  0.8710 -0.1240 -0.5755
 3842TIP3    H232942   4.305   2.868  13.241 -2.5747  2.2766 -0.2567
 3843TIP3   OH232943   3.416   6.173  15.989  0.7020 -0.3143  0.0650
 3843TIP3    H132944   3.443   6.264  15.986  0.6162 -0.3027 -0.6252
 3843TIP3    H232945   3.372   6.158  15.905 -1.3795 -0.3551  1.0943
 3844TIP3   OH232946   6.476   3.054  15.085 -0.1100 -0.3686  0.0809
 3844TIP3    H132947   6.483   3.139  15.129  2.1570 -0.1538 -0.5723
 3844TIP3    H232948   6.480   3.076  14.991 -0.5413 -1.1335 -0.1230
 3845TIP3   OH232949   4.042   1.186  13.244 -0.0505 -0.0680 -0.2412
 3845TIP3    H132950   3.965   1.134  13.222 -0.7403  0.0460  1.6946
 3845TIP3    H232951   4.105   1.168  13.174 -1.6949 -0.4343 -1.6795
 3846TIP3   OH232952   4.799   6.547   0.090  0.1247  0.1364 -0.2881
 3846TIP3    H132953   4.848   6.574   0.012 -0.3659  0.3881 -0.5204
 3846TIP3    H232954   4.804   6.452   0.090  0.9475  0.1784 -0.0839
 3847TIP3   OH232955   3.215   6.762   5.612 -0.0700 -0.2833  0.4709
 3847TIP3    H132956   3.231   6.811   5.693 -0.4296  2.8191 -1.1712
 3847TIP3    H232957   3.281   6.693   5.612  0.9145  0.5514  2.6841
 3848TIP3   OH232958   1.957   0.980  14.834 -0.7017  0.4810 -0.3481
 3848TIP3    H132959   1.952   0.964  14.928 -3.2135  0.2396 -0.4430
 3848TIP3    H232960   1.987   1.071  14.826 -1.2266  0.7677  0.7347
 3849TIP3   OH232961   1.593   4.668  13.693  0.2268 -0.0419  0.4576
 3849TIP3    H132962   1.592   4.652  13.787  2.3362  0.0822  0.5450
 3849TIP3    H232963   1.617   4.761  13.685  2.6241 -0.6455 -0.1700
 3850TIP3   OH232964   6.080   5.709  13.182  0.2308  0.0504  0.0714
 3850TIP3    H132965   6.035   5.629  13.211  0.8373  0.9502  4.0306
 3850TIP3    H232966   6.159   5.678  13.138 -1.4511 -1.4497 -2.1609
 3851TIP3   OH232967   1.402   1.440  13.306  0.4845 -0.4787  0.6838
 3851TIP3    H132968   1.377   1.389  13.229  0.4063 -0.8937  0.9754
 3851TIP3    H232969   1.394   1.378  13.378 -1.8558  0.5166  1.3962
 3852TIP3   OH232970   5.594   6.278  13.228 -0.1726  0.2866 -0.2013
 3852TIP3    H132971   5.622   6.217  13.160 -0.1025  0.4798 -0.3497
 3852TIP3    H232972   5.544   6.345  13.182  2.7023  2.3214 -0.6754
 3853TIP3   OH232973   4.308   0.697   5.191  0.1916 -0.2985  0.4333
 3853TIP3    H132974   4.368   0.634   5.232 -0.8006 -1.5170  0.0697
 3853TIP3    H232975   4.290   0.660   5.105  0.3391  0.9966 -0.1754
 3854TIP3   OH232976   5.470   0.631  12.976  0.6375  0.2290 -0.1318
 3854TIP3    H132977   5.422   0.670  13.049 -0.0493 -0.6527 -0.0841
 3854TIP3    H232978   5.562   0.646  12.997  0.4575 -0.0715  0.9633
 3855TIP3   OH232979   6.015   3.197  11.516 -0.0810  0.6013  0.7183
 3855TIP3    H132980   6.069   3.144  11.457 -0.6968  0.8749 -0.1205
 3855TIP3    H232981   5.984   3.269  11.461  0.3088  1.5452  1.7006
 3856TIP3   OH232982   6.467   4.448   3.067 -0.0574  0.1183 -0.4436
 3856TIP3    H132983   6.517   4.497   3.002  0.0918  1.6411  0.7683
 3856TIP3    H232984   6.401   4.509   3.099  0.1986 -0.4063  1.2069
 3857TIP3   OH232985   4.459   1.319   5.681 -0.6764  0.2266  0.1473
 3857TIP3    H132986   4.421   1.385   5.739 -1.1063  2.6179 -2.6030
 3857TIP3    H232987   4.512   1.370   5.620  0.6929 -2.2657 -0.8625
 3858TIP3   OH232988   1.971   2.992  14.264 -0.0513  0.4373 -0.2542
 3858TIP3    H132989   1.991   2.984  14.171  0.0492  2.1784 -0.4095
 3858TIP3    H232990   2.012   3.074  14.291  1.1311 -0.6819  1.6694
 3859TIP3   OH232991   0.999   3.895  14.634  0.7665  0.1787  0.4396
 3859TIP3    H132992   0.919   3.946  14.630  0.7875  0.1499 -1.5068
 3859TIP3    H232993   0.985   3.834  14.706 -0.4543  0.9869  0.9176
 3860TIP3   OH232994   2.569   1.963  17.072 -0.5192 -0.3257  0.4040
 3860TIP3    H132995   2.644   1.931  17.022 -1.7407 -1.9654 -0.5139
 3860TIP3    H232996   2.595   2.050  17.103  1.8672 -0.9932  0.4571
 3861TIP3   OH232997   1.661   1.312  11.191 -0.3412  0.2327  0.7659
 3861TIP3    H132998   1.648   1.275  11.278 -1.1057 -1.1750  0.0863
 3861TIP3    H232999   1.578   1.297  11.146  1.0357 -1.9482 -1.2201
 3862TIP3   OH233000   0.610   3.198   0.928 -0.4264  0.1796  0.4823
 3862TIP3    H133001   0.609   3.102   0.938  0.3817  0.1452  0.3163
 3862TIP3    H233002   0.669   3.214   0.854  1.0418  0.8928  1.7457
 3863TIP3   OH233003   0.877   4.461   3.560  0.2986  0.1864 -0.1123
 3863TIP3    H133004   0.833   4.544   3.576  1.6703  0.6431  1.5640
 3863TIP3    H233005   0.827   4.421   3.489 -0.6089  2.2576 -0.7150
 3864TIP3   OH233006   2.133   4.914  13.776 -0.3853 -0.1805 -0.0751
 3864TIP3    H133007   2.094   4.847  13.832 -1.4509 -0.5234 -1.1938
 3864TIP3    H233008   2.165   4.980  13.838 -1.8849 -0.3389  0.9356
 3865TIP3   OH233009   2.668   1.767   4.124  0.4596  0.0706 -0.2974
 3865TIP3    H133010   2.744   1.819   4.096  0.2716  0.3885 -0.2294
 3865TIP3    H233011   2.700   1.677   4.126  0.5058  0.0400 -1.4709
 3866TIP3   OH233012   2.426   1.733  13.396  0.0491 -0.5919  0.1836
 3866TIP3    H133013   2.510   1.688  13.403  0.7992  0.7680  0.2984
 3866TIP3    H233014   2.434   1.809  13.454 -1.0323 -0.1126 -0.2592
 3867TIP3   OH233015   1.512   6.067   5.655  0.2735 -0.3787 -0.5435
 3867TIP3    H133016   1.521   5.975   5.628  0.2866  0.1125 -2.3369
 3867TIP3    H233017   1.592   6.109   5.624  0.0460  0.3359 -0.1767
 3868TIP3   OH233018   3.215   0.938  11.912  0.0910 -0.2575 -0.2051
 3868TIP3    H133019   3.123   0.910  11.912 -0.2270  0.6474 -1.9635
 3868TIP3    H233020   3.214   1.021  11.960  0.1284 -0.5937  0.3893
 3869TIP3   OH233021   4.604   6.698   3.140 -0.6034 -0.0435 -0.0496
 3869TIP3    H133022   4.595   6.724   3.232 -1.3282 -0.5171  0.0224
 3869TIP3    H233023   4.517   6.711   3.104  0.0683  1.7798 -1.1169
 3870TIP3   OH233024   3.840   2.634   3.500 -0.6187 -0.5419 -0.6740
 3870TIP3    H133025   3.887   2.603   3.577 -1.3274 -0.9714 -0.4054
 3870TIP3    H233026   3.826   2.728   3.517 -0.7173 -0.6197 -0.3106
 3871TIP3   OH233027   5.577   6.256  12.912  0.4094 -0.7110 -0.0410
 3871TIP3    H133028   5.526   6.242  12.832  0.6446  0.2631 -0.3781
 3871TIP3    H233029   5.534   6.330  12.955  0.5332 -0.9646  0.5342
 3872TIP3   OH233030   2.729   4.491   1.405 -0.7272  0.0130  0.2298
 3872TIP3    H133031   2.750   4.572   1.357  1.2630 -1.2895 -1.2718
 3872TIP3    H233032   2.799   4.483   1.469 -0.9987 -0.4486  0.4661
 3873TIP3   OH233033   0.607   1.377  14.501 -0.1539  0.0115 -0.0457
 3873TIP3    H133034   0.602   1.446  14.567 -1.6828 -0.0068 -0.1125
 3873TIP3    H233035   0.627   1.298  14.551 -2.7789 -0.2947  0.6816
 3874TIP3   OH233036   4.395   0.277   2.394 -0.1642 -0.6316 -0.0236
 3874TIP3    H133037   4.414   0.331   2.470 -1.8490 -0.8397  0.5998
 3874TIP3    H233038   4.374   0.191   2.430 -0.8121 -0.7767 -0.7075
 3875TIP3   OH233039   2.579   2.781   1.035  0.4586 -0.9950  0.2764
 3875TIP3    H133040   2.524   2.853   1.065  0.4100 -1.7251  2.0524
 3875TIP3    H233041   2.601   2.804   0.945 -0.4426  0.6922  0.4434
 3876TIP3   OH233042   5.299   3.006   3.695  0.0219 -0.1140 -0.2556
 3876TIP3    H133043   5.373   2.955   3.728  0.6375  0.5569 -0.5521
 3876TIP3    H233044   5.241   3.016   3.770  0.5561 -0.0997  0.1623
 3877TIP3   OH233045   4.366   6.569  16.940  0.4534  0.6741  0.0453
 3877TIP3    H133046   4.393   6.592  17.029 -0.2398  1.1745  0.1336
 3877TIP3    H233047   4.375   6.650  16.891 -0.2483  0.6865 -0.0721
 3878TIP3   OH233048   4.145   5.380   6.323  0.1002 -0.3355 -0.0461
 3878TIP3    H133049   4.192   5.300   6.300  0.1180 -0.1632 -0.6247
 3878TIP3    H233050   4.211   5.436   6.364 -0.0023 -0.7676  0.7145
 3879TIP3   OH233051   2.507   1.509   3.171 -0.0690  0.1286  0.6381
 3879TIP3    H133052   2.551   1.581   3.126 -1.4878  0.6869  0.0795
 3879TIP3    H233053   2.486   1.544   3.258 -1.7569  0.8316 -0.0120
 3880TIP3   OH233054   5.572   5.494  14.501  0.3455 -0.5082 -0.4551
 3880TIP3    H133055   5.552   5.476  14.593 -2.0488  1.5080 -0.4841
 3880TIP3    H233056   5.660   5.459  14.489  1.6759  1.0698  3.2005
 3881TIP3   OH233057   4.455   1.478  11.012 -0.2331  0.1458 -0.1095
 3881TIP3    H133058   4.495   1.546  11.067  0.4360  0.2487 -0.7073
 3881TIP3    H233059   4.366   1.509  10.997 -0.3847  0.1880  0.7851
 3882TIP3   OH233060   0.140   6.739  12.948 -0.2089  1.1588  0.0569
 3882TIP3    H133061   0.184   6.664  12.990  1.0959  1.6223 -0.4495
 3882TIP3    H233062   0.090   6.780  13.020  1.0291  1.2354  0.8993
 3883TIP3   OH233063   4.277   1.241  12.365  0.3862  0.2068  0.0355
 3883TIP3    H133064   4.330   1.166  12.338  2.2759  1.7225 -0.6433
 3883TIP3    H233065   4.193   1.202  12.391  1.2173 -2.1061 -0.4767
 3884TIP3   OH233066   2.102   1.576  13.076 -0.7880  0.1832 -0.0490
 3884TIP3    H133067   2.099   1.610  13.165  1.0779  0.1674  0.0641
 3884TIP3    H233068   2.145   1.491  13.083  1.1116  0.9813 -1.1193
 3885TIP3   OH233069   4.093   5.869   4.963 -0.2064 -0.1483 -0.1380
 3885TIP3    H133070   4.007   5.830   4.955  0.5655 -1.8284 -0.5811
 3885TIP3    H233071   4.077   5.964   4.955 -2.1393 -0.3100  1.1364
 3886TIP3   OH233072   4.646   3.531   3.939 -0.1603  0.1467 -0.1928
 3886TIP3    H133073   4.571   3.584   3.912 -0.8959 -1.1216 -0.7294
 3886TIP3    H233074   4.635   3.519   4.033  0.6898  1.9387  0.1779
 3887TIP3   OH233075   2.036   5.025   2.362 -0.6731 -0.1411 -0.0735
 3887TIP3    H133076   1.944   5.015   2.385 -0.7405 -0.5984 -0.5419
 3887TIP3    H233077   2.080   4.952   2.407 -0.7113 -0.6399 -0.8373
 3888TIP3   OH233078   6.499   0.648  15.237 -0.4748  0.0087 -0.2725
 3888TIP3    H133079   6.552   0.647  15.157 -0.4802  0.0521 -0.2766
 3888TIP3    H233080   6.563   0.643  15.308 -0.3672  1.5560 -0.2283
 3889TIP3   OH233081   0.146   4.731   0.303 -0.3174 -0.5755 -0.5267
 3889TIP3    H133082   0.080   4.666   0.327  0.4315 -1.1444  0.0454
 3889TIP3    H233083   0.217   4.680   0.264  0.7257 -0.2515  0.8622
 3890TIP3   OH233084   0.055   3.461   3.294  0.3521  0.0347  0.0955
 3890TIP3    H133085   0.013   3.517   3.229  1.2824  0.1536 -0.4187
 3890TIP3    H233086   0.021   3.491   3.378 -0.1626  0.4898 -0.2709
 3891TIP3   OH233087   2.703   5.828   0.081  0.2255 -0.3035 -0.3664
 3891TIP3    H133088   2.755   5.763   0.129 -0.3237 -0.0061  0.6415
 3891TIP3    H233089   2.612   5.802   0.095 -0.1745  1.9410  2.0229
 3892TIP3   OH233090   0.525   4.543  14.750  0.0708  0.0414 -0.1379
 3892TIP3    H133091   0.602   4.575  14.703 -1.3900  1.6353 -1.6048
 3892TIP3    H233092   0.485   4.479  14.692 -0.4360  0.2348 -0.0133
 3893TIP3   OH233093   0.143   3.248   2.451  0.3178  0.1608  0.3544
 3893TIP3    H133094   0.073   3.289   2.401  0.7079  1.4660  0.8336
 3893TIP3    H233095   0.108   3.239   2.539  0.3223 -0.3172  0.3084
 3894TIP3   OH233096   0.208   3.920   5.764  0.2011  0.5310 -0.2209
 3894TIP3    H133097   0.172   3.851   5.819  2.3177  0.1774  0.8010
 3894TIP3    H233098   0.196   3.888   5.675 -0.1063 -0.5019  0.1766
 3895TIP3   OH233099   1.442   4.828  15.999 -0.0092  0.2652 -0.2601
 3895TIP3    H133100   1.435   4.739  15.963 -1.6687  0.2771 -0.0310
 3895TIP3    H233101   1.477   4.815  16.087 -2.5206 -0.4669  0.7302
 3896TIP3   OH233102   6.324   1.025   3.910 -0.0239  0.3944 -0.2784
 3896TIP3    H133103   6.394   1.089   3.900 -0.2053  0.6256 -0.0892
 3896TIP3    H233104   6.250   1.076   3.943  0.9139 -0.5065  3.7684
 3897TIP3   OH233105   6.337   5.721   2.032 -0.8027 -0.1046  0.5411
 3897TIP3    H133106   6.306   5.807   2.059 -0.9557 -0.0416  0.1748
 3897TIP3    H233107   6.280   5.697   1.959 -0.9799 -0.6670  0.8642
 3898TIP3   OH233108   2.762   0.766  16.908  0.4462 -0.6475 -0.1797
 3898TIP3    H133109   2.779   0.825  16.835 -0.3541  0.1079  0.2245
 3898TIP3    H233110   2.848   0.746  16.944  0.8803 -1.2585 -1.4819
 3899TIP3   OH233111   0.323   5.851   1.133 -0.0316 -0.4012  0.0865
 3899TIP3    H133112   0.247   5.901   1.163  0.2124 -0.5745  1.0093
 3899TIP3    H233113   0.328   5.871   1.039 -0.4913  0.5638  0.2496
 3900TIP3   OH233114   1.450   5.079  15.061  0.0082 -0.4856 -0.0610
 3900TIP3    H133115   1.514   5.149  15.073  0.9079 -1.4138  0.7559
 3900TIP3    H233116   1.366   5.125  15.050  0.7241  0.7318 -0.6148
 3901TIP3   OH233117   5.262   0.171   1.716  0.7000 -0.4990 -0.1642
 3901TIP3    H133118   5.247   0.218   1.798  1.3864 -0.2323 -0.1869
 3901TIP3    H233119   5.186   0.194   1.662 -0.5333 -1.8750  0.9127
 3902TIP3   OH233120   2.128   0.965   4.647 -0.5338 -0.4805 -0.5182
 3902TIP3    H133121   2.071   0.938   4.719  0.6150 -0.9396  0.2534
 3902TIP3    H233122   2.166   1.048   4.676 -0.2117 -0.5704 -0.6749
 3903TIP3   OH233123   3.074   2.541  14.054 -0.1077 -0.0170  0.3998
 3903TIP3    H133124   3.063   2.517  13.962 -1.3703 -0.2944  0.5935
 3903TIP3    H233125   3.100   2.633  14.052 -1.5786  0.4290 -0.2339
 3904TIP3   OH233126   5.027   2.515  14.372  0.1796 -0.7824  0.1333
 3904TIP3    H133127   4.998   2.424  14.378 -0.0804 -0.8134 -1.3652
 3904TIP3    H233128   5.084   2.518  14.296  1.8074 -0.0796  1.3207
 3905TIP3   OH233129   1.695   6.291   3.034  1.0405  0.0066 -0.1644
 3905TIP3    H133130   1.612   6.290   3.082  0.4144 -0.7246 -1.2290
 3905TIP3    H233131   1.712   6.199   3.014  1.0963  0.3272 -1.6698
 3906TIP3   OH233132   1.150   1.308  11.401 -0.2986 -0.6477 -0.3969
 3906TIP3    H133133   1.207   1.289  11.476 -1.0152  1.3434  0.7430
 3906TIP3    H233134   1.078   1.245  11.409 -0.3664 -0.4602  0.6050
 3907TIP3   OH233135   4.170   1.702  12.863  0.2376  0.5431 -0.3138
 3907TIP3    H133136   4.079   1.724  12.842 -0.3552 -0.2427  1.2601
 3907TIP3    H233137   4.218   1.720  12.782 -1.5948 -0.8547 -1.7988
 3908TIP3   OH233138   0.626   2.025  15.627 -0.4953 -0.4224  0.4638
 3908TIP3    H133139   0.709   2.064  15.654 -0.5943  1.5890 -1.7572
 3908TIP3    H233140   0.633   1.933  15.651  2.6502 -0.4426 -0.1897
 3909TIP3   OH233141   0.047   6.258  16.451  0.6811  0.5761 -0.3221
 3909TIP3    H133142   0.079   6.194  16.513  0.2496 -0.4864 -1.1705
 3909TIP3    H233143   0.114   6.263  16.383  0.2438  0.2520 -0.7849
 3910TIP3   OH233144   1.674   1.652   6.108  0.1633  0.2537 -0.6344
 3910TIP3    H133145   1.628   1.568   6.099  0.6552 -0.0950 -0.0148
 3910TIP3    H233146   1.679   1.686   6.019 -1.0672  0.1873 -0.7469
 3911TIP3   OH233147   6.401   3.599  16.460 -0.6054 -0.6543  0.4483
 3911TIP3    H133148   6.375   3.690  16.475  0.1870 -0.2149 -0.7012
 3911TIP3    H233149   6.457   3.578  16.535  0.2524  0.2482  0.0828
 3912TIP3   OH233150   0.285   4.989   0.253 -0.1738  0.0847 -0.1151
 3912TIP3    H133151   0.232   4.921   0.211 -0.7237 -0.5709  1.5348
 3912TIP3    H233152   0.276   5.065   0.196 -0.1450 -0.9994 -1.6269
 3913TIP3   OH233153   0.449   0.894  13.101  0.1851 -0.2147 -0.4329
 3913TIP3    H133154   0.519   0.879  13.038  1.3792  0.0144  0.7802
 3913TIP3    H233155   0.442   0.812  13.149 -0.4793 -0.2792 -0.6383
 3914TIP3   OH233156   1.927   5.749  16.175 -0.5511  0.0442 -0.1563
 3914TIP3    H133157   1.997   5.806  16.207 -1.1766  2.9395 -3.3273
 3914TIP3    H233158   1.969   5.694  16.109 -0.9166  0.8986 -1.1441
 3915TIP3   OH233159   1.313   6.551   2.003  0.1928  0.1193  0.3145
 3915TIP3    H133160   1.233   6.501   2.021  0.3852  0.1064  1.1809
 3915TIP3    H233161   1.340   6.584   2.089  0.9587  0.3661 -0.0179
 3916TIP3   OH233162   4.328   0.041  15.678  0.2218  0.2482  0.4333
 3916TIP3    H133163   4.391  -0.030  15.688 -0.6545 -1.0606 -2.3128
 3916TIP3    H233164   4.382   0.120  15.670  1.2291 -0.0882  3.0252
 3917TIP3   OH233165   0.475   0.311   2.921 -0.2275  0.7100 -0.2427
 3917TIP3    H133166   0.562   0.277   2.942 -1.4829 -1.7092  1.5957
 3917TIP3    H233167   0.472   0.310   2.825  2.5359  3.2747 -0.5239
 3918TIP3   OH233168   0.133   3.253  14.862  0.3680 -0.7674 -0.2304
 3918TIP3    H133169   0.085   3.185  14.910  0.1680  0.3259  1.2103
 3918TIP3    H233170   0.225   3.234  14.878  0.3034  0.3153  1.7886
 3919TIP3   OH233171   2.152   2.330  14.595 -0.2153 -0.1228 -0.0008
 3919TIP3    H133172   2.247   2.327  14.612 -0.0671 -0.5473 -0.8415
 3919TIP3    H233173   2.114   2.268  14.658  0.5023 -3.0799 -2.2692
 3920TIP3   OH233174   4.150   0.838   5.574  0.3770 -0.9113 -0.1199
 3920TIP3    H133175   4.083   0.843   5.643  1.6378 -0.0488  1.0996
 3920TIP3    H233176   4.233   0.837   5.622  1.2655 -1.0158 -1.6236
 3921TIP3   OH233177   4.271   3.607  14.824 -0.3434  0.2217 -0.1928
 3921TIP3    H133178   4.183   3.579  14.850 -0.4003  0.8373  0.2967
 3921TIP3    H233179   4.317   3.622  14.907 -0.7715  2.9991 -0.3382
 3922TIP3   OH233180   4.952   4.796   4.357  0.6547 -0.5279 -0.4946
 3922TIP3    H133181   5.006   4.719   4.338  0.7272 -0.1173 -2.1576
 3922TIP3    H233182   4.862   4.765   4.348  0.6838 -0.1048 -2.8469
 3923TIP3   OH233183   4.762   6.059   3.875  0.1668  0.0698 -0.2098
 3923TIP3    H133184   4.709   6.121   3.926  2.2505  0.2581  1.8724
 3923TIP3    H233185   4.770   6.101   3.789 -3.1189 -0.0704 -0.7164
 3924TIP3   OH233186   0.591   0.447  13.877 -0.3356  0.6585  0.6200
 3924TIP3    H133187   0.675   0.486  13.899  0.9459 -0.4813 -1.7568
 3924TIP3    H233188   0.526   0.511  13.904  1.2150  1.2633  3.1992
 3925TIP3   OH233189   0.327   4.443   2.203  0.3653 -0.4904 -0.5575
 3925TIP3    H133190   0.362   4.370   2.153 -0.8532 -1.5151  0.0441
 3925TIP3    H233191   0.243   4.412   2.235  0.1578  0.9175  0.3373
 3926TIP3   OH233192   6.175   2.663  11.862 -0.1945 -0.1218 -0.1569
 3926TIP3    H133193   6.133   2.691  11.781  0.2226  1.3822  0.1293
 3926TIP3    H233194   6.106   2.668  11.928 -0.6544 -1.7805 -0.4729
 3927TIP3   OH233195   3.340   0.838   2.242 -0.0577 -0.7504  0.1307
 3927TIP3    H133196   3.272   0.858   2.306 -0.5839 -1.1255 -0.3028
 3927TIP3    H233197   3.401   0.912   2.248  0.3454 -1.1645  1.6280
 3928TIP3   OH233198   1.398   3.796  15.177  0.0455 -0.4945  0.6720
 3928TIP3    H133199   1.308   3.765  15.170 -0.6642  1.3148  1.2144
 3928TIP3    H233200   1.429   3.799  15.086 -0.7885 -0.1905  0.3889
 3929TIP3   OH233201   6.264   5.274   5.353 -0.2570 -0.3285  0.2290
 3929TIP3    H133202   6.188   5.286   5.410 -1.1840  1.1881 -1.2327
 3929TIP3    H233203   6.339   5.288   5.410 -1.0763 -1.2633  1.5816
 3930TIP3   OH233204   6.270   0.115  13.496 -0.4502  0.6028 -0.4685
 3930TIP3    H133205   6.188   0.084  13.536 -0.3102  1.2752  0.3656
 3930TIP3    H233206   6.314   0.035  13.467 -1.0517  0.1786 -0.2428
 3931TIP3   OH233207   5.396   4.341   0.440  0.2319 -0.5602 -0.1137
 3931TIP3    H133208   5.315   4.312   0.481 -0.2008  1.1393  0.3416
 3931TIP3    H233209   5.370   4.368   0.352  1.1175 -3.9818 -1.5516
 3932TIP3   OH233210   2.465   4.521  11.622  0.0912  0.4896 -0.1120
 3932TIP3    H133211   2.452   4.609  11.587  1.1192  0.3955 -0.7678
 3932TIP3    H233212   2.428   4.463  11.556  0.7621  0.3753 -0.3981
 3933TIP3   OH233213   0.627   0.430  15.077  0.0342  0.4188 -0.2519
 3933TIP3    H133214   0.676   0.368  15.131 -0.0699 -0.0711 -0.7133
 3933TIP3    H233215   0.599   0.499  15.138 -1.2133 -0.7847  0.5906
 3934TIP3   OH233216   5.522   0.633   3.080  0.2845 -0.2077 -0.4049
 3934TIP3    H133217   5.604   0.584   3.091  0.2879  0.1066  1.4345
 3934TIP3    H233218   5.543   0.721   3.110 -1.0069 -0.4518  1.4488
 3935TIP3   OH233219   1.813   6.580  14.855  0.0259 -0.0992  0.3731
 3935TIP3    H133220   1.886   6.525  14.884  0.0082 -0.3002  0.0402
 3935TIP3    H233221   1.826   6.663  14.901 -1.0511 -1.0146  2.4922
 3936TIP3   OH233222   3.096   2.353   6.393  0.1574 -0.4689 -0.0518
 3936TIP3    H133223   3.118   2.353   6.486 -0.7539  0.1687  0.1798
 3936TIP3    H233224   3.178   2.331   6.349  0.9136  0.4713  0.8330
 3937TIP3   OH233225   4.791   2.340   0.913 -0.1726  0.4778 -0.1566
 3937TIP3    H133226   4.878   2.361   0.878  0.2147  0.9474  1.0431
 3937TIP3    H233227   4.769   2.256   0.874  1.1474 -0.0058  0.0979
 3938TIP3   OH233228   5.632   4.289  16.765 -0.2399 -0.0943 -0.0518
 3938TIP3    H133229   5.671   4.357  16.710 -0.2649 -0.5991 -0.7141
 3938TIP3    H233230   5.585   4.336  16.833  0.2567  0.5399 -0.1416
 3939TIP3   OH233231   5.345   3.067   4.690  0.1758 -0.6040 -0.3550
 3939TIP3    H133232   5.264   3.021   4.712 -0.0559  0.2146  0.5905
 3939TIP3    H233233   5.316   3.150   4.651  0.5882 -1.1536 -1.9203
 3940TIP3   OH233234   4.409   2.999  14.622  0.3869 -0.2922  0.0125
 3940TIP3    H133235   4.424   2.979  14.715 -1.1905  0.8288  0.5437
 3940TIP3    H233236   4.488   3.045  14.594 -0.5187  2.6146  1.8353
 3941TIP3   OH233237   0.227   5.921   5.997 -0.3581 -0.7157 -0.1590
 3941TIP3    H133238   0.178   6.003   5.995 -0.4541 -0.7768 -0.2588
 3941TIP3    H233239   0.289   5.933   6.069  1.0769  0.2729 -1.5078
 3942TIP3   OH233240   4.768   1.087  11.947  0.4381 -0.0990 -0.0429
 3942TIP3    H133241   4.770   1.000  11.986 -2.7152 -0.8836 -1.2628
 3942TIP3    H233242   4.745   1.071  11.855 -2.0453  1.9868  0.0913
 3943TIP3   OH233243   2.243   0.469   5.056  0.5590  0.3938  0.1230
 3943TIP3    H133244   2.288   0.390   5.027 -1.2280 -0.1395 -1.3705
 3943TIP3    H233245   2.309   0.538   5.051  1.8474 -0.7846  0.3851
 3944TIP3   OH233246   5.825   4.144   2.563  0.0058  0.1267  0.1314
 3944TIP3    H133247   5.840   4.064   2.613 -0.6205  0.0104  0.1372
 3944TIP3    H233248   5.887   4.207   2.599  0.2190 -0.2349  0.4047
 3945TIP3   OH233249   3.775   4.756  16.074 -0.5754 -0.4212  0.3823
 3945TIP3    H133250   3.783   4.685  16.011  0.7943 -0.8534  0.9988
 3945TIP3    H233251   3.752   4.713  16.157 -1.0294 -0.0024  0.4813
 3946TIP3   OH233252   4.241   2.847   4.116  0.4047 -0.1984 -0.1138
 3946TIP3    H133253   4.192   2.871   4.195  1.1631  1.1838 -0.0428
 3946TIP3    H233254   4.193   2.773   4.080  0.3795 -1.2781  1.9807
 3947TIP3   OH233255   3.414   6.596  15.315 -0.2036 -0.1809 -0.4819
 3947TIP3    H133256   3.465   6.516  15.333  3.1229  2.0253  0.8893
 3947TIP3    H233257   3.353   6.570  15.246  0.6076 -3.9224 -0.0223
 3948TIP3   OH233258   1.246   4.965   5.053 -0.4214 -0.3924 -0.1863
 3948TIP3    H133259   1.337   4.990   5.070 -0.6057  1.8195 -1.9443
 3948TIP3    H233260   1.251   4.872   5.029  1.6436  0.0407 -1.7590
 3949TIP3   OH233261   0.708   5.432  16.650 -0.6584  0.2935 -0.0963
 3949TIP3    H133262   0.646   5.365  16.621 -0.2824 -0.0765 -0.0660
 3949TIP3    H233263   0.761   5.388  16.717 -1.2522  1.0149  0.8683
 3950TIP3   OH233264   1.912   3.801  11.528  0.1348 -0.1260 -0.4874
 3950TIP3    H133265   1.821   3.783  11.554  0.4729 -0.7567  0.3134
 3950TIP3    H233266   1.930   3.737  11.460  0.5884 -1.3434  0.7297
 3951TIP3   OH233267   3.252   4.120   6.317  0.0821  0.7756  0.1629
 3951TIP3    H133268   3.274   4.040   6.364 -0.2701  2.4053  3.4109
 3951TIP3    H233269   3.203   4.091   6.240  2.7246 -2.2265 -0.6049
 3952TIP3   OH233270   5.433   0.792   0.788  0.1191 -0.1926  0.5095
 3952TIP3    H133271   5.487   0.810   0.711 -0.3877 -1.3527 -0.1404
 3952TIP3    H233272   5.353   0.841   0.773 -0.0641 -0.5828  0.1783
 3953TIP3   OH233273   4.852   5.131   5.814 -0.2203  0.0570  0.3179
 3953TIP3    H133274   4.812   5.168   5.893  1.8538  1.1541  0.9508
 3953TIP3    H233275   4.847   5.202   5.749 -0.3348 -0.2064  0.0359
 3954TIP3   OH233276   0.906   3.971   1.440  0.1774 -0.2164  0.5504
 3954TIP3    H133277   0.992   3.936   1.418  1.5896  2.8828  0.6641
 3954TIP3    H233278   0.904   3.973   1.536 -0.4940 -1.2482  0.5747
 3955TIP3   OH233279   5.282   2.679  12.463  0.3585  0.4012 -0.5881
 3955TIP3    H133280   5.253   2.686  12.372 -0.2340 -1.2356 -0.5564
 3955TIP3    H233281   5.377   2.675  12.457  0.2681 -1.8555 -1.3562
 3956TIP3   OH233282   5.500   5.915  11.898  0.0432 -0.2851  0.1252
 3956TIP3    H133283   5.589   5.929  11.864 -0.3200 -2.0232 -1.7693
 3956TIP3    H233284   5.513   5.886  11.988  1.2892  0.9687  0.3934
 3957TIP3   OH233285   3.373   3.314  10.702 -0.0907 -0.5850 -0.6534
 3957TIP3    H133286   3.306   3.294  10.768  0.5947  0.2603  0.3235
 3957TIP3    H233287   3.456   3.298  10.747  0.4288  1.7510 -0.6765
 3958TIP3   OH233288   3.881   5.611   2.764 -0.2524 -0.4625  0.1915
 3958TIP3    H133289   3.961   5.561   2.777  0.8140  1.2956  0.6805
 3958TIP3    H233290   3.905   5.681   2.703 -1.5942 -0.3163 -0.2062
 3959TIP3   OH233291   1.457   5.364   4.162 -0.3130  0.2326  0.3973
 3959TIP3    H133292   1.509   5.443   4.154 -0.1732  0.4556  2.6943
 3959TIP3    H233293   1.508   5.308   4.220 -0.3041 -1.6741 -1.3414
 3960TIP3   OH233294   5.092   1.110  11.682  0.1357 -0.0678 -0.4992
 3960TIP3    H133295   5.001   1.140  11.683  0.3977  0.7606 -0.6773
 3960TIP3    H233296   5.092   1.034  11.624 -0.5121 -0.3163 -0.1851
 3961TIP3   OH233297   2.342   0.113   1.868  0.4384 -0.2017  0.6842
 3961TIP3    H133298   2.370   0.161   1.790  1.9100  1.2684  2.0318
 3961TIP3    H233299   2.332   0.023   1.838  0.2846  0.4363 -1.3419
 3962TIP3   OH233300   5.709   2.437  14.376 -0.7195 -0.8672  0.4818
 3962TIP3    H133301   5.620   2.433  14.412 -1.5427 -1.7786 -1.4943
 3962TIP3    H233302   5.706   2.511  14.314 -0.6085 -1.8712 -0.7613
 3963TIP3   OH233303   1.297   1.986  17.168 -0.1939 -0.0119 -0.3381
 3963TIP3    H133304   1.346   1.906  17.188 -0.0522  0.0629 -0.3777
 3963TIP3    H233305   1.260   1.971  17.081  1.1847  0.5898 -1.0693
 3964TIP3   OH233306   5.858   3.780  14.456 -0.5212  0.1797 -0.0541
 3964TIP3    H133307   5.911   3.769  14.535 -2.6996 -2.0240  1.2479
 3964TIP3    H233308   5.780   3.829  14.486 -2.0433 -1.8897 -0.4017
 3965TIP3   OH233309   3.373   1.792   0.827 -0.3062 -0.5586 -0.5232
 3965TIP3    H133310   3.453   1.785   0.776 -1.4465  0.3395 -2.5528
 3965TIP3    H233311   3.364   1.706   0.870  1.4730 -0.8145 -0.5775
 3966TIP3   OH233312   1.183   2.397  17.051  0.1570 -0.4669  0.5287
 3966TIP3    H133313   1.238   2.402  17.128  1.1600  0.4523 -0.2271
 3966TIP3    H233314   1.171   2.303  17.036  0.0941 -0.6493  1.6849
 3967TIP3   OH233315   2.674   4.312  11.359  0.5354  0.3928  0.0281
 3967TIP3    H133316   2.751   4.254  11.356  0.3000 -0.0028  1.1005
 3967TIP3    H233317   2.602   4.257  11.328  0.3033  0.0725  1.0897
 3968TIP3   OH233318   6.101   2.482   0.755  0.0274 -0.3701 -0.0361
 3968TIP3    H133319   6.118   2.514   0.844 -0.6422  1.1467 -0.4214
 3968TIP3    H233320   6.088   2.388   0.766  0.0183 -0.2227  1.4636
 3969TIP3   OH233321   4.528   3.165   0.447 -0.5224 -0.4510  0.4198
 3969TIP3    H133322   4.546   3.210   0.364  0.7342 -0.3391  0.7328
 3969TIP3    H233323   4.576   3.082   0.441  1.3301  0.4258  1.8078
 3970TIP3   OH233324   4.693   3.074  15.937  0.3736  0.2682  0.0953
 3970TIP3    H133325   4.677   3.036  15.851 -0.4046 -0.4282  0.5256
 3970TIP3    H233326   4.782   3.108  15.933  0.4473 -0.0289 -0.8852
 3971TIP3   OH233327   4.178   4.681   3.895  0.1578 -0.1095 -0.1828
 3971TIP3    H133328   4.245   4.731   3.942 -0.2350  0.2277  0.0286
 3971TIP3    H233329   4.097   4.731   3.909 -0.6552 -1.8632  1.7317
 3972TIP3   OH233330   5.588   1.627   3.099  0.4095  0.2071 -0.0276
 3972TIP3    H133331   5.521   1.605   3.164  0.2526  0.7996  0.0179
 3972TIP3    H233332   5.595   1.549   3.044 -1.6584  0.7770 -1.2007
 3973TIP3   OH233333   0.571   5.615   2.890 -0.7497 -0.3132 -0.4795
 3973TIP3    H133334   0.633   5.645   2.823 -2.4174 -2.6517 -3.3257
 3973TIP3    H233335   0.626   5.572   2.955  0.8070 -0.2821 -1.6919
 3974TIP3   OH233336   5.409   6.148  14.511 -0.5136 -0.1981 -0.2804
 3974TIP3    H133337   5.448   6.119  14.594 -1.4065 -0.0045  0.2160
 3974TIP3    H233338   5.346   6.215  14.536 -0.7396 -0.0797 -1.1336
 3975TIP3   OH233339   1.489   5.092   4.336 -0.2022 -0.1454 -0.2233
 3975TIP3    H133340   1.579   5.059   4.342 -0.0810  0.0355 -0.9279
 3975TIP3    H233341   1.490   5.174   4.386  0.4382  0.6729 -1.5319
 3976TIP3   OH233342   5.725   6.316   1.462  0.0773  0.1902  0.3547
 3976TIP3    H133343   5.683   6.395   1.428  0.7290  0.8852  1.1366
 3976TIP3    H233344   5.760   6.341   1.547  0.4556 -0.8971  0.5444
 3977TIP3   OH233345   1.080   3.779  12.732  0.3646 -0.3518  0.0169
 3977TIP3    H133346   1.137   3.734  12.795 -1.4547 -2.6119  0.2253
 3977TIP3    H233347   1.004   3.806  12.784 -0.4225 -0.7833 -0.8644
 3978TIP3   OH233348   2.346   0.488  14.091  0.0879  0.1976  0.4597
 3978TIP3    H133349   2.309   0.574  14.111 -0.3705 -0.4260  2.5788
 3978TIP3    H233350   2.303   0.461  14.010 -2.4302  0.4935  1.6053
 3979TIP3   OH233351   2.229   6.627  14.747  0.3915 -0.3890  0.3414
 3979TIP3    H133352   2.270   6.621  14.833 -0.8020  0.9682  1.0487
 3979TIP3    H233353   2.158   6.691  14.758  1.0108  0.8271 -1.9705
 3980TIP3   OH233354   6.398   3.911   3.222 -0.0784 -0.1761 -0.9638
 3980TIP3    H133355   6.317   3.911   3.274 -0.5500 -2.9766 -1.5259
 3980TIP3    H233356   6.458   3.966   3.272 -1.0731 -1.2661  1.6355
 3981TIP3   OH233357   1.293   1.284  13.575 -0.1843  0.0620  0.2261
 3981TIP3    H133358   1.345   1.354  13.613  1.4228 -2.1051  2.2963
 3981TIP3    H233359   1.228   1.262  13.642 -0.8029 -0.2965 -0.4698
 3982TIP3   OH233360   1.017   4.949   1.334 -0.3421  0.3232 -0.3870
 3982TIP3    H133361   1.068   4.872   1.309  0.6158  1.0582 -0.7686
 3982TIP3    H233362   1.017   5.004   1.256  0.2296  1.3550  0.3100
 3983TIP3   OH233363   6.733   1.746  13.127 -0.5415  0.0268  0.0505
 3983TIP3    H133364   6.707   1.837  13.115 -0.8137 -0.1284 -0.6037
 3983TIP3    H233365   6.754   1.739  13.220  2.0307  1.4207 -0.3327
 3984TIP3   OH233366   3.163   2.691   3.774  0.6256 -0.0540  0.4048
 3984TIP3    H133367   3.127   2.780   3.772  0.3032 -0.1876 -0.4954
 3984TIP3    H233368   3.090   2.636   3.804  1.4491  0.2169  3.1684
 3985TIP3   OH233369   2.994   2.347   1.815 -0.2307  0.0796 -0.1215
 3985TIP3    H133370   2.914   2.323   1.861 -0.1636  1.3385  0.6981
 3985TIP3    H233371   2.964   2.403   1.743 -0.1283  0.1315 -0.1242
 3986TIP3   OH233372   0.898   4.070  10.787  0.4295 -0.1114 -0.1241
 3986TIP3    H133373   0.823   4.130  10.782  1.1957  0.9495  0.7752
 3986TIP3    H233374   0.896   4.023  10.704 -1.7198 -0.7233  0.1849
 3987TIP3   OH233375   1.876   1.748  11.265  0.0970 -0.5373  0.6328
 3987TIP3    H133376   1.921   1.663  11.264  1.8222  0.3063 -1.8954
 3987TIP3    H233377   1.825   1.746  11.346  3.2989 -2.2891  2.8366
 3988TIP3   OH233378   4.212   1.250   4.862 -0.2569 -0.2806 -0.3446
 3988TIP3    H133379   4.121   1.280   4.859 -0.3789 -0.6098 -0.0335
 3988TIP3    H233380   4.260   1.323   4.901 -0.4570 -0.2596 -0.1358
 3989TIP3   OH233381   0.934   5.631  15.923  0.2722  0.6656  0.2191
 3989TIP3    H133382   0.872   5.585  15.866  0.1246  0.0958  0.8248
 3989TIP3    H233383   0.907   5.723  15.918  0.4215  0.6677 -0.8181
 3990TIP3   OH233384   4.424   0.633   3.277  0.2261  0.4535  0.6562
 3990TIP3    H133385   4.470   0.566   3.228  0.3704  1.7793 -1.1353
 3990TIP3    H233386   4.490   0.671   3.334  1.1723  1.6153 -1.1133
 3991TIP3   OH233387   5.211   5.474   4.348 -0.3299 -0.2756 -0.2028
 3991TIP3    H133388   5.271   5.409   4.312 -2.4923 -1.4617 -1.8448
 3991TIP3    H233389   5.151   5.423   4.404 -2.2315  0.1611 -1.7367
 3992TIP3   OH233390   6.241   1.275   1.641  0.2774  0.2980 -0.0584
 3992TIP3    H133391   6.288   1.328   1.577 -0.1728  0.5600 -0.1740
 3992TIP3    H233392   6.251   1.185   1.609  0.4077  0.3875 -0.2709
 3993TIP3   OH233393   3.346   3.988   0.783  0.0532  0.0264  0.0370
 3993TIP3    H133394   3.261   3.957   0.750 -0.4766  0.9112  0.5138
 3993TIP3    H233395   3.324   4.064   0.837  1.2378  0.9271 -0.6714
 3994TIP3   OH233396   4.949   0.353  12.470 -0.5289  0.0665 -0.1761
 3994TIP3    H133397   5.015   0.285  12.462  0.5163  0.8679  1.1178
 3994TIP3    H233398   4.907   0.336  12.554 -0.3314  0.9421  0.1109
 3995TIP3   OH233399   1.104   1.985   3.016  0.5793  0.1023 -0.0630
 3995TIP3    H133400   1.183   1.956   3.062 -0.4438 -1.9868  0.5008
 3995TIP3    H233401   1.060   1.904   2.991  0.0936  1.1763 -3.0739
 3996TIP3   OH233402   3.665   4.318   4.278  0.4886 -0.2688  0.3799
 3996TIP3    H133403   3.631   4.294   4.364 -0.8097  0.9709  0.2389
 3996TIP3    H233404   3.758   4.335   4.294  0.3211 -0.2888  1.4942
 3997TIP3   OH233405   0.720   3.428  14.844  0.8835  0.1049 -0.1636
 3997TIP3    H133406   0.790   3.370  14.872  0.2521  0.2696  1.9093
 3997TIP3    H233407   0.639   3.380  14.862  0.4015  0.7215 -0.6078
 3998TIP3   OH233408   0.001   1.510  13.676  0.2843  0.5608 -0.4845
 3998TIP3    H133409   0.021   1.572  13.746 -1.8095  1.9230 -1.0048
 3998TIP3    H233410   0.056   1.434  13.695 -0.0971  0.9281  2.5624
 3999TIP3   OH233411   0.347   0.171  16.571  0.0690 -0.0221 -0.0034
 3999TIP3    H133412   0.261   0.132  16.586  0.3114 -1.3962 -1.7960
 3999TIP3    H233413   0.330   0.244  16.511 -0.0128  0.6481  0.8290
 4000TIP3   OH233414   4.657   0.210   3.605  0.3871 -0.7154  0.0649
 4000TIP3    H133415   4.701   0.226   3.689  0.9069 -1.9631  0.0526
 4000TIP3    H233416   4.589   0.147   3.626 -0.3183 -0.0639 -0.2349
 4001TIP3   OH233417   5.141   1.822   1.847 -0.3470  0.5520  0.0767
 4001TIP3    H133418   5.192   1.862   1.917 -0.5039  0.0121  0.5159
 4001TIP3    H233419   5.205   1.801   1.779  0.0384 -0.1484  0.6347
 4002TIP3   OH233420   4.819   3.289  14.664  0.3899 -0.2975  0.5676
 4002TIP3    H133421   4.811   3.378  14.699 -0.0056 -1.0977  2.6391
 4002TIP3    H233422   4.914   3.274  14.661  0.4993  0.5079 -0.7116
 4003TIP3   OH233423   2.668   5.706   1.821 -0.1082  0.2383 -0.2230
 4003TIP3    H133424   2.664   5.784   1.877  0.7739  0.9043 -1.0586
 4003TIP3    H233425   2.710   5.736   1.741  0.4099 -1.1444 -0.4943
 4004TIP3   OH233426   4.229   0.010   1.850  0.5814 -0.8137 -0.2091
 4004TIP3    H133427   4.291   0.000   1.778  0.4924 -1.2832 -0.2230
 4004TIP3    H233428   4.228  -0.075   1.893  2.6604  0.1660  2.0061
 4005TIP3   OH233429   6.326   6.053   5.990  0.5795  0.1645 -0.5324
 4005TIP3    H133430   6.365   5.968   5.969 -1.0558 -0.5047 -1.0538
 4005TIP3    H233431   6.306   6.047   6.084 -0.0782 -0.2960 -0.6876
 4006TIP3   OH233432   6.023   2.390  17.239  0.0723 -0.1518  0.7429
 4006TIP3    H133433   6.028   2.483  17.259 -0.5762 -0.1148  0.7460
 4006TIP3    H233434   5.930   2.373  17.226 -0.3256 -1.5227  4.3358
 4007TIP3   OH233435   0.733   4.131   4.385 -0.2613  0.0986  0.2048
 4007TIP3    H133436   0.664   4.068   4.406 -0.2946 -0.7093 -2.1049
 4007TIP3    H233437   0.713   4.161   4.297  1.5987  0.8596  0.0009
 4008TIP3   OH233438   1.431   4.532   5.014 -0.1985 -0.0998  0.1334
 4008TIP3    H133439   1.523   4.532   5.043 -0.4870 -2.1962  1.2253
 4008TIP3    H233440   1.423   4.452   4.962 -1.7362 -0.6674  1.2025
 4009TIP3   OH233441   6.425   4.899  12.331  0.3245  0.4506  0.1401
 4009TIP3    H133442   6.407   4.866  12.243  0.3065 -0.5265  0.5056
 4009TIP3    H233443   6.497   4.961  12.318  0.1112  0.5523 -0.6034
 4010TIP3   OH233444   4.839   4.234   3.188  0.6885  0.1826  0.5308
 4010TIP3    H133445   4.802   4.239   3.276 -0.1940 -0.4449  0.2071
 4010TIP3    H233446   4.822   4.320   3.150  0.6891  0.3149  0.8320
 4011TIP3   OH233447   3.310   0.271  11.960 -0.0661 -0.2124 -0.4282
 4011TIP3    H133448   3.373   0.342  11.946  0.1607 -0.0483  1.2808
 4011TIP3    H233449   3.361   0.200  12.000 -0.7933 -0.3751  0.2374
 4012TIP3   OH233450   4.273   4.632  13.223  0.4537  0.3245  0.0187
 4012TIP3    H133451   4.279   4.709  13.166 -0.5933  0.7364  0.4274
 4012TIP3    H233452   4.257   4.669  13.310  0.1780 -0.3495  0.2572
 4013TIP3   OH233453   4.053   3.824  14.759 -0.1678  0.4241  0.0186
 4013TIP3    H133454   4.044   3.803  14.852  0.4091  0.3928  0.0725
 4013TIP3    H233455   4.133   3.876  14.754  0.7266 -0.9401 -0.6650
 4014TIP3   OH233456   4.978   1.495   4.816 -0.1119  0.8244 -0.3705
 4014TIP3    H133457   4.929   1.462   4.892 -0.2773  1.1298 -0.3408
 4014TIP3    H233458   4.944   1.446   4.742  1.2277 -0.6962 -0.0371
 4015TIP3   OH233459   5.070   0.107  12.491  0.1170  0.3884  0.0384
 4015TIP3    H133460   5.116   0.088  12.573 -0.7944 -2.0617  0.0572
 4015TIP3    H233461   5.098   0.037  12.432 -0.3183  1.3288 -1.3144
 4016TIP3   OH233462   0.385   2.490   3.345 -0.2895  0.7148  0.4703
 4016TIP3    H133463   0.461   2.444   3.380 -0.5996 -1.0394 -0.9993
 4016TIP3    H233464   0.396   2.580   3.374  2.4732  0.5783  0.0991
 4017TIP3   OH233465   4.717   2.899  11.356  0.7219 -0.5329 -0.1181
 4017TIP3    H133466   4.793   2.842  11.340  2.5417  1.4291  0.9191
 4017TIP3    H233467   4.719   2.914  11.451  0.8837  1.9041 -0.4484
 4018TIP3   OH233468   3.413   5.470   4.583  0.2146  0.0320 -0.2439
 4018TIP3    H133469   3.331   5.444   4.541  0.4984 -0.5336 -0.4609
 4018TIP3    H233470   3.481   5.426   4.533  0.6158  0.0126  0.3025
 4019TIP3   OH233471   3.109   1.958   1.045 -0.3391  0.3274  0.4879
 4019TIP3    H133472   3.143   1.930   1.129 -0.0455  1.1307  0.6460
 4019TIP3    H233473   3.017   1.932   1.046 -0.0585 -0.6882  0.5827
 4020TIP3   OH233474   6.647   2.784   3.157 -0.1851  0.0361 -0.0285
 4020TIP3    H133475   6.732   2.746   3.180  0.2631  0.8141 -0.3670
 4020TIP3    H233476   6.615   2.727   3.086  1.4361  1.4276 -1.9886
 4021TIP3   OH233477   3.163   1.528  15.396 -0.2059 -0.5889  0.3272
 4021TIP3    H133478   3.172   1.466  15.325 -1.7188 -2.5440  1.7402
 4021TIP3    H233479   3.228   1.502  15.460 -1.7040 -1.6375  1.5003
 4022TIP3   OH233480   0.639   6.364  16.715  0.5420 -0.2105  0.0990
 4022TIP3    H133481   0.614   6.445  16.761  2.2560  0.8019 -0.6524
 4022TIP3    H233482   0.720   6.386  16.670  0.1433 -1.8625 -1.5531
 4023TIP3   OH233483   0.534   3.631   1.865  0.3480 -0.3666 -0.5862
 4023TIP3    H133484   0.613   3.683   1.851 -0.5782  1.8954  1.7509
 4023TIP3    H233485   0.463   3.695   1.865 -1.2609 -2.0637 -0.6393
 4024TIP3   OH233486   2.780   1.997   5.204 -0.5782  0.1312  0.4083
 4024TIP3    H133487   2.873   2.005   5.180 -0.4780 -1.7814  0.0455
 4024TIP3    H233488   2.778   2.022   5.297  0.1393  1.0131  0.2074
 4025TIP3   OH233489   6.397   5.471   3.376  0.0762  0.0394 -0.1142
 4025TIP3    H133490   6.477   5.471   3.324  0.6357  0.5965  0.7128
 4025TIP3    H233491   6.352   5.552   3.350 -0.7531 -0.7729 -1.3290
 4026TIP3   OH233492   3.976   0.890  13.911  0.1825  0.1656  0.0795
 4026TIP3    H133493   3.920   0.935  13.974 -0.4634 -0.1381 -0.2703
 4026TIP3    H233494   3.964   0.797  13.931  0.0764  0.0733 -0.4036
 4027TIP3   OH233495   1.039   4.746   2.924  0.2503 -0.3130 -0.0216
 4027TIP3    H133496   1.087   4.734   2.842 -0.1842 -2.9172 -0.0066
 4027TIP3    H233497   0.985   4.823   2.909  1.2648  0.1334 -1.6434
 4028TIP3   OH233498   2.763   2.783   3.509  0.3925 -0.2348  0.0375
 4028TIP3    H133499   2.678   2.826   3.520  0.3238 -0.5536  0.7859
 4028TIP3    H233500   2.762   2.754   3.418 -0.3308 -0.2869  0.0492
 4029TIP3   OH233501   6.395   5.812   1.509 -1.2993  0.8587 -0.1791
 4029TIP3    H133502   6.347   5.775   1.436  1.4360 -1.3011 -1.0576
 4029TIP3    H233503   6.409   5.739   1.569  0.7740  1.3658  0.0362
 4030TIP3   OH233504   0.107   3.979  11.105 -0.6846 -0.4945 -0.1662
 4030TIP3    H133505   0.014   3.989  11.085 -1.2805 -1.8798  1.7439
 4030TIP3    H233506   0.110   3.937  11.191  1.6889 -2.3424 -1.0353
 4031TIP3   OH233507   0.684   4.489  13.631 -0.4065 -0.5975 -0.3998
 4031TIP3    H133508   0.732   4.557  13.583  0.7474 -0.0741  1.4328
 4031TIP3    H233509   0.715   4.407  13.593  0.7550 -0.2047 -0.3404
 4032TIP3   OH233510   1.485   6.047  14.285 -0.3556  0.3124  0.3978
 4032TIP3    H133511   1.481   6.082  14.196  1.7116 -0.0266  0.1129
 4032TIP3    H233512   1.416   6.093  14.333 -0.6923  1.3988 -1.0791
 4033TIP3   OH233513   4.877   2.885  12.301 -0.1487 -0.5247  0.1277
 4033TIP3    H133514   4.817   2.810  12.303 -0.0373 -0.7133 -1.5979
 4033TIP3    H233515   4.962   2.846  12.283 -0.1941  0.0166 -1.4557
 4034TIP3   OH233516   5.556   4.191  11.777 -0.9905 -0.0494 -0.1630
 4034TIP3    H133517   5.484   4.255  11.775 -1.6336 -0.7609 -0.3580
 4034TIP3    H233518   5.516   4.109  11.748 -0.4384 -0.7962  1.1061
 4035TIP3   OH233519   2.217   1.136   5.999 -0.0461  0.3193 -0.5609
 4035TIP3    H133520   2.268   1.101   5.926  0.3140  0.6584 -0.4773
 4035TIP3    H233521   2.242   1.082   6.074 -0.4394 -0.0487 -0.6908
 4036TIP3   OH233522   0.655   4.850   2.918  0.0418  0.0394  0.3016
 4036TIP3    H133523   0.728   4.903   2.887 -1.4330  3.3466  1.9835
 4036TIP3    H233524   0.596   4.843   2.843  0.7156 -0.1215 -0.2205
 4037TIP3   OH233525   5.647   5.480  12.928 -0.3899 -0.1011 -1.1948
 4037TIP3    H133526   5.628   5.572  12.942 -1.6988 -0.1689 -2.2978
 4037TIP3    H233527   5.630   5.438  13.013 -0.4940  0.5734 -0.8797
 4038TIP3   OH233528   0.918   2.261   6.067  0.2313  0.3147  0.3246
 4038TIP3    H133529   0.861   2.239   6.140 -0.2596 -0.9002 -0.3866
 4038TIP3    H233530   0.884   2.344   6.034 -1.1958 -0.3912 -0.0967
 4039TIP3   OH233531   0.722   6.021   4.892 -0.7836 -0.0087 -0.4338
 4039TIP3    H133532   0.667   5.942   4.898 -1.8734  0.6212 -1.6372
 4039TIP3    H233533   0.738   6.031   4.798  1.4404 -0.1670 -0.1146
 4040TIP3   OH233534   4.681   3.911  14.811  0.0686 -0.1993  0.5477
 4040TIP3    H133535   4.772   3.926  14.788 -0.4799  0.4977 -1.3197
 4040TIP3    H233536   4.647   3.856  14.741 -0.6628 -1.4875  1.8607
 4041TIP3   OH233537   2.318   3.858  12.876  0.0332 -0.0575  0.1384
 4041TIP3    H133538   2.259   3.876  12.802 -0.5744 -1.4095  0.2677
 4041TIP3    H233539   2.276   3.786  12.923  1.7809 -1.0583  0.2562
 4042TIP3   OH233540   0.025   3.954  14.364  0.3361  0.4492 -0.3059
 4042TIP3    H133541   0.108   3.931  14.406  0.5953  2.2479  0.2753
 4042TIP3    H233542   0.012   4.046  14.387 -2.9385 -0.3103  1.5710
 4043TIP3   OH233543   6.566   4.822  14.618 -0.1411  0.6320 -0.0867
 4043TIP3    H133544   6.477   4.853  14.635 -0.0620  0.1338  1.4194
 4043TIP3    H233545   6.561   4.727  14.631  0.9325  0.7725  1.7489
 4044TIP3   OH233546   2.207   4.269  16.176  0.8917  0.3461 -0.0148
 4044TIP3    H133547   2.142   4.241  16.241  1.3793  1.3013  0.9101
 4044TIP3    H233548   2.206   4.200  16.110  2.1500 -1.9896  2.2246
 4045TIP3   OH233549   4.332   1.769  17.168 -0.3132 -0.1501  0.0139
 4045TIP3    H133550   4.263   1.729  17.222 -0.5685 -0.1400 -0.2991
 4045TIP3    H233551   4.316   1.863  17.174 -0.2169 -0.1377  0.0822
 4046TIP3   OH233552   6.026   4.582   3.458  0.0015  0.2044  0.3339
 4046TIP3    H133553   5.962   4.630   3.406  0.2973 -0.2003 -0.4195
 4046TIP3    H233554   6.002   4.490   3.447  1.1010  0.0013 -0.5030
 4047TIP3   OH233555   4.779   0.012  15.137 -0.0325 -0.5226  0.6016
 4047TIP3    H133556   4.855  -0.023  15.090  0.1247 -0.5142  0.8458
 4047TIP3    H233557   4.708  -0.049  15.116  0.2158 -0.9367  0.9444
 4048TIP3   OH233558   3.734   4.185  11.949 -1.1480  0.0366  0.0364
 4048TIP3    H133559   3.754   4.163  11.858 -1.8252  1.4283 -0.4900
 4048TIP3    H233560   3.756   4.278  11.956  2.9180 -0.8571  2.5046
 4049TIP3   OH233561   0.712   6.061   4.222 -0.0466 -0.2595 -0.8669
 4049TIP3    H133562   0.797   6.071   4.178 -0.4066 -1.3189 -1.8674
 4049TIP3    H233563   0.669   6.146   4.209  0.4524 -0.0606 -1.2793
 4050TIP3   OH233564   2.111   0.013  16.460  0.3140 -0.2439 -0.0319
 4050TIP3    H133565   2.198   0.030  16.423  0.5558  1.2870  1.1193
 4050TIP3    H233566   2.066   0.097  16.453 -1.2498 -1.1094 -0.9655
 4051TIP3   OH233567   2.774   6.577   6.148  0.3581 -0.3226  0.4791
 4051TIP3    H133568   2.730   6.604   6.228 -1.1165 -2.1656  0.3370
 4051TIP3    H233569   2.726   6.621   6.078 -0.9805 -1.8685  0.3682
 4052TIP3   OH233570   0.007   1.549   3.021  0.3314 -0.2955 -0.4585
 4052TIP3    H133571  -0.085   1.522   3.030  0.4768 -1.1489 -1.3649
 4052TIP3    H233572   0.018   1.567   2.928  0.9917  0.1477 -0.2977
 4053TIP3   OH233573   5.133   6.626  17.229 -0.5693  1.1271 -0.2383
 4053TIP3    H133574   5.071   6.588  17.166  1.2570 -0.0296 -1.4187
 4053TIP3    H233575   5.185   6.551  17.259  2.2395  2.4000 -1.5650
 4054TIP3   OH233576   6.439   0.438  15.055  0.5850  0.0720  0.3353
 4054TIP3    H133577   6.504   0.507  15.041 -0.1887  1.5671  3.2348
 4054TIP3    H233578   6.449   0.414  15.147  1.9161 -5.0053 -0.8683
 4055TIP3   OH233579   1.627   4.919  15.229 -0.6330  0.1263 -0.3038
 4055TIP3    H133580   1.657   4.975  15.300  0.7331  0.6079 -1.2021
 4055TIP3    H233581   1.603   4.980  15.159 -0.3940 -0.3662 -0.8250
 4056TIP3   OH233582   4.642   1.905  13.943  0.1232  0.2858  0.1495
 4056TIP3    H133583   4.694   1.843  13.995  0.3722 -0.2072 -0.6658
 4056TIP3    H233584   4.591   1.954  14.007  2.1150  1.2924  1.0638
 4057TIP3   OH233585   5.988   1.507  10.277 -0.2037 -0.5706  0.3026
 4057TIP3    H133586   5.906   1.473  10.241 -0.1526 -0.3639 -0.0139
 4057TIP3    H233587   5.974   1.509  10.372 -1.0422  0.6765  0.1652
 4058TIP3   OH233588   1.568   6.346   1.578  0.4108 -0.0810 -0.1219
 4058TIP3    H133589   1.659   6.317   1.571  0.5077  0.3465 -0.7419
 4058TIP3    H233590   1.555   6.363   1.671  0.5452 -1.4755  0.1858
 4059TIP3   OH233591   1.657   5.110  13.289  0.1954  0.1547  0.1092
 4059TIP3    H133592   1.638   5.196  13.252  0.2274  0.3914  0.6375
 4059TIP3    H233593   1.663   5.052  13.212 -0.2515  0.5349 -0.2186
 4060TIP3   OH233594   0.867   2.817   6.211 -0.0742 -0.1436  0.1387
 4060TIP3    H133595   0.902   2.886   6.154 -0.8879 -0.0510 -0.2620
 4060TIP3    H233596   0.774   2.812   6.188  0.1422 -1.9781 -0.4757
 4061TIP3   OH233597   1.292   5.932   3.886  0.0120  0.4986  0.6817
 4061TIP3    H133598   1.336   6.003   3.934 -2.4585  1.8408  1.1000
 4061TIP3    H233599   1.219   5.975   3.842 -0.5359 -1.5406 -0.4994
 4062TIP3   OH233600   2.736   1.279   3.485 -0.1312 -0.1089 -0.6671
 4062TIP3    H133601   2.745   1.235   3.570 -0.2775 -1.0204 -1.1161
 4062TIP3    H233602   2.739   1.372   3.507  0.0609 -0.3278  0.3168
 4063TIP3   OH233603   5.863   0.836   4.620  0.7179  0.2633  0.1788
 4063TIP3    H133604   5.950   0.813   4.589  0.3689 -2.0889  0.7556
 4063TIP3    H233605   5.869   0.831   4.716  0.4988  2.4119  0.3628
 4064TIP3   OH233606   2.908   4.593   4.852  0.1621  0.6464 -0.2675
 4064TIP3    H133607   2.858   4.615   4.774 -0.7590  1.6899  0.5846
 4064TIP3    H233608   2.902   4.670   4.908  1.6198  0.2900  0.4384
 4065TIP3   OH233609   4.541   3.332  14.111 -0.4494 -0.1840  0.1803
 4065TIP3    H133610   4.502   3.418  14.093 -0.0786 -0.3238 -1.4524
 4065TIP3    H233611   4.559   3.333  14.205  0.8783  2.0862 -0.0309
 4066TIP3   OH233612   3.091   6.789   4.813  0.1417  0.2041 -0.6117
 4066TIP3    H133613   3.013   6.843   4.822 -1.1444 -1.5727 -0.6318
 4066TIP3    H233614   3.143   6.833   4.746 -1.0738  1.1556 -0.9699
 4067TIP3   OH233615   1.086   5.583  16.331  0.8829 -0.0749 -0.4496
 4067TIP3    H133616   1.050   5.669  16.311  0.3895 -0.5624 -1.7104
 4067TIP3    H233617   1.030   5.548  16.401  0.8782  0.4778 -0.1770
 4068TIP3   OH233618   1.091   6.657  15.652  0.0090  0.2249 -0.3734
 4068TIP3    H133619   1.166   6.694  15.605  1.1818 -1.4523  0.0575
 4068TIP3    H233620   1.059   6.588  15.594 -0.2376 -0.0592  0.0943
 4069TIP3   OH233621   0.569   6.771   1.903 -0.3697  0.4103 -0.5958
 4069TIP3    H133622   0.556   6.725   1.820 -0.8464 -0.4781 -0.0497
 4069TIP3    H233623   0.598   6.859   1.878  2.1691 -0.6188 -1.6795
 4070TIP3   OH233624   5.770   4.675  14.484 -0.5586  0.3369  0.7320
 4070TIP3    H133625   5.812   4.638  14.562  2.0801  0.0922 -0.6991
 4070TIP3    H233626   5.778   4.606  14.418 -1.0316  1.2504 -0.3064
 4071TIP3   OH233627   0.053   0.999   0.998 -0.1634  0.3652 -0.0262
 4071TIP3    H133628  -0.037   0.966   1.003 -0.6413  1.6500  0.1937
 4071TIP3    H233629   0.096   0.962   1.076 -1.5185  2.5514  1.8912
 4072TIP3   OH233630   0.820   3.569   4.135  0.3198 -0.3793  0.0792
 4072TIP3    H133631   0.798   3.505   4.203 -1.1463  0.7535  0.7254
 4072TIP3    H233632   0.753   3.557   4.068  2.7975 -2.7894 -2.2192
 4073TIP3   OH233633   4.998   6.426   5.833 -0.1232  0.4225 -0.0057
 4073TIP3    H133634   4.928   6.392   5.889  1.2117  0.6461  1.8909
 4073TIP3    H233635   5.057   6.352   5.820  0.0186  0.6027 -0.4288
 4074TIP3   OH233636   2.761   5.916   6.616 -0.1673 -0.5557  0.4065
 4074TIP3    H133637   2.674   5.955   6.626  0.2374  0.3646  0.4448
 4074TIP3    H233638   2.765   5.850   6.686 -1.1288 -1.1828 -0.1099
 4075TIP3   OH233639   3.692   3.907  12.444 -0.4147 -0.3832  0.4978
 4075TIP3    H133640   3.729   3.835  12.392  2.6271  0.7636  0.8269
 4075TIP3    H233641   3.695   3.982  12.384  0.9197  0.4324  1.5252
 4076TIP3   OH233642   5.215   1.285  13.906  0.0941 -0.2028  0.1398
 4076TIP3    H133643   5.295   1.264  13.954  0.9224 -0.9947 -1.5014
 4076TIP3    H233644   5.147   1.236  13.951  0.2184  1.4503  2.3388
 4077TIP3   OH233645   6.278   6.594  12.544  0.3393  0.0523  0.2820
 4077TIP3    H133646   6.216   6.535  12.501 -0.7367  0.3735  1.3229
 4077TIP3    H233647   6.286   6.669  12.485  0.9709 -0.6700 -0.5911
 4078TIP3   OH233648   5.645   1.374   5.018  0.1183 -0.2640 -0.3104
 4078TIP3    H133649   5.727   1.399   4.976  0.3290 -0.4570 -0.0098
 4078TIP3    H233650   5.650   1.410   5.106 -0.0060 -0.5057 -0.2030
 4079TIP3   OH233651   1.662   4.254  13.806  0.7750 -0.2131 -0.4256
 4079TIP3    H133652   1.577   4.242  13.849  0.5756 -2.2829 -1.2858
 4079TIP3    H233653   1.643   4.244  13.712  1.7342  0.9795 -0.7823
 4080TIP3   OH233654   0.217   4.176   1.269  0.4206 -0.4472 -0.6620
 4080TIP3    H133655   0.158   4.246   1.242  0.7211 -0.6608 -1.9214
 4080TIP3    H233656   0.230   4.191   1.363  0.3829  1.1060 -0.8802
 4081TIP3   OH233657   6.460   4.187  11.896  0.3180 -0.2656  0.1497
 4081TIP3    H133658   6.496   4.100  11.880 -1.2850 -0.6828 -1.4914
 4081TIP3    H233659   6.536   4.245  11.892  1.1555 -1.3714 -0.7199
 4082TIP3   OH233660   6.006   0.235  13.895 -0.4245  0.3086  0.7258
 4082TIP3    H133661   6.009   0.213  13.988 -0.2516 -0.6246  0.5151
 4082TIP3    H233662   5.913   0.229  13.872 -0.4684  0.5511  0.8401
 4083TIP3   OH233663   1.589   0.141   1.966 -0.6356 -0.3126 -0.2481
 4083TIP3    H133664   1.648   0.078   1.924  1.5611  0.8542  0.9172
 4083TIP3    H233665   1.629   0.157   2.052 -3.0997 -0.0010  0.9172
 4084TIP3   OH233666   1.034   4.561   1.571  0.4923 -0.0472  0.0424
 4084TIP3    H133667   0.992   4.611   1.641 -0.3282  0.2116 -0.6179
 4084TIP3    H233668   1.106   4.617   1.541  0.5557  0.0457  0.3718
 4085TIP3   OH233669   0.833   0.503   2.781 -0.3311 -0.1457 -0.2188
 4085TIP3    H133670   0.830   0.584   2.831  3.4797  0.2986 -0.4160
 4085TIP3    H233671   0.812   0.529   2.691 -0.5602  0.3282 -0.0304
 4086TIP3   OH233672   3.003   3.123   2.846 -0.2361 -0.4779 -0.5738
 4086TIP3    H133673   3.080   3.113   2.902  0.1233  0.5038 -0.8620
 4086TIP3    H233674   2.969   3.034   2.835 -0.3738 -0.7001  1.2549
 4087TIP3   OH233675   6.040   3.928   5.280 -0.0427  0.4531  0.2032
 4087TIP3    H133676   5.988   3.937   5.360  2.6432  2.3192  1.9010
 4087TIP3    H233677   6.087   3.846   5.291  1.1095  1.1977  1.1344
 4088TIP3   OH233678   0.830   3.168   4.058  0.0292  0.6156  0.6071
 4088TIP3    H133679   0.921   3.181   4.030  0.0932  1.0510  1.0210
 4088TIP3    H233680   0.832   3.178   4.153 -0.6884  2.0468  0.4977
 4089TIP3   OH233681   3.670   0.454   0.421 -0.1771 -0.2055  0.0218
 4089TIP3    H133682   3.710   0.395   0.485 -1.6104 -0.3312  0.8260
 4089TIP3    H233683   3.634   0.526   0.473 -1.2654 -0.2476 -0.6488
 4090TIP3   OH233684   2.306   1.169  14.472  0.4879 -0.1682  0.0251
 4090TIP3    H133685   2.332   1.147  14.561 -0.9981  1.1288  0.8415
 4090TIP3    H233686   2.211   1.177  14.477  0.4124  0.2604 -1.6095
 4091TIP3   OH233687   1.284   5.007  11.498  0.2188  0.0300  0.6907
 4091TIP3    H133688   1.213   5.071  11.503 -1.1588 -1.2954 -0.7667
 4091TIP3    H233689   1.302   4.999  11.404  0.6569 -1.4046  0.8716
 4092TIP3   OH233690   5.892   1.961   0.121 -0.3073 -0.9331  0.3418
 4092TIP3    H133691   5.819   1.989   0.176  2.3036  1.7797  2.7550
 4092TIP3    H233692   5.942   2.040   0.105  1.6174 -2.5039 -2.0465
 4093TIP3   OH233693   4.641   4.399  14.388 -0.0801 -0.2865  0.3276
 4093TIP3    H133694   4.590   4.473  14.356  1.5336 -0.4202 -3.0206
 4093TIP3    H233695   4.658   4.419  14.480 -1.8816  2.1743  0.2116
 4094TIP3   OH233696   4.131   2.991  14.388 -0.4168 -0.8898  0.1473
 4094TIP3    H133697   4.179   2.928  14.442 -1.7041 -0.8515  1.3860
 4094TIP3    H233698   4.158   3.076  14.421  0.4674 -0.7893 -0.7797
 4095TIP3   OH233699   5.611   2.729  11.150 -0.2333  0.0369  0.5080
 4095TIP3    H133700   5.538   2.783  11.121  0.0579  0.6783  0.9432
 4095TIP3    H233701   5.579   2.686  11.229  0.5783  2.1143  2.0724
 4096TIP3   OH233702   4.333   1.916  15.317  0.6617 -0.2141  0.2032
 4096TIP3    H133703   4.317   1.945  15.228 -2.4868 -0.6185  0.5254
 4096TIP3    H233704   4.340   1.821  15.311  1.6836 -0.1558  0.2731
 4097TIP3   OH233705   2.923   6.484  12.295  0.1959  0.2853 -0.0080
 4097TIP3    H133706   2.868   6.512  12.222  0.2518 -0.2275 -0.2491
 4097TIP3    H233707   3.006   6.460  12.255 -0.0272 -0.7646  0.1138
 4098TIP3   OH233708   2.693   3.022  15.443  0.0632  0.5390  0.6368
 4098TIP3    H133709   2.638   2.957  15.400 -0.1097  0.8912  0.3173
 4098TIP3    H233710   2.706   3.090  15.377  1.1319  0.3259  0.6054
 4099TIP3   OH233711   3.777   4.462   1.464  0.5067 -0.0137 -0.1112
 4099TIP3    H133712   3.849   4.502   1.511  0.3702 -0.2129  0.2691
 4099TIP3    H233713   3.779   4.370   1.491  0.5599 -0.1761 -0.6527
 4100TIP3   OH233714   4.452   4.502   5.077 -0.2059  0.3687  0.2630
 4100TIP3    H133715   4.379   4.441   5.068  0.3657 -0.3816  0.6785
 4100TIP3    H233716   4.527   4.448   5.097  0.6785  1.0364 -1.0470
 4101TIP3   OH233717   4.626   1.573   2.284  0.2724  0.4974 -0.0172
 4101TIP3    H133718   4.633   1.545   2.192  1.5263  1.0068 -0.0963
 4101TIP3    H233719   4.665   1.660   2.285 -0.5626  0.8737  0.8482
 4102TIP3   OH233720   5.074   6.207   0.861  0.3161 -0.0576 -0.1916
 4102TIP3    H133721   5.114   6.128   0.897  0.1411  0.0466  0.2414
 4102TIP3    H233722   4.984   6.206   0.896  0.7181  1.0439  0.9642
 4103TIP3   OH233723   6.128   3.965   3.322  0.4865 -0.1102  0.0206
 4103TIP3    H133724   6.080   3.964   3.239 -0.6125 -2.5001  0.6031
 4103TIP3    H233725   6.109   4.051   3.360 -1.5912 -0.1541 -0.8042
 4104TIP3   OH233726   1.683   2.364  14.744  0.0957 -0.0659 -0.1273
 4104TIP3    H133727   1.630   2.322  14.811 -0.0210  0.9257  0.4163
 4104TIP3    H233728   1.760   2.307  14.736  0.4937  0.1980  1.4130
 4105TIP3   OH233729   4.790   1.621  16.888 -0.5014 -0.3840  0.1911
 4105TIP3    H133730   4.773   1.685  16.957  2.4937  0.1422  0.5914
 4105TIP3    H233731   4.839   1.670  16.822  0.5019 -1.8921 -0.2275
 4106TIP3   OH233732   5.233   3.433  15.490 -0.0173  0.6477  0.1608
 4106TIP3    H133733   5.199   3.376  15.559 -0.2477  2.2658  1.4407
 4106TIP3    H233734   5.326   3.410  15.484 -0.8499 -3.0085 -2.5735
 4107TIP3   OH233735   4.022   5.429   0.160 -0.4445  0.1705 -0.2086
 4107TIP3    H133736   4.077   5.388   0.094 -0.5662  0.7052 -0.6456
 4107TIP3    H233737   4.082   5.484   0.210 -0.4093  0.0057 -0.0677
 4108TIP3   OH233738   0.021   2.855   0.244  0.1328  0.4363 -0.1272
 4108TIP3    H133739  -0.044   2.828   0.179 -0.5077 -0.1689  0.7490
 4108TIP3    H233740   0.052   2.774   0.283  1.0270  0.7536 -0.1508
 4109TIP3   OH233741   4.243   4.800   3.319 -0.2248 -0.6534  0.4547
 4109TIP3    H133742   4.233   4.810   3.414 -0.3015  0.6888  0.3319
 4109TIP3    H233743   4.301   4.872   3.294 -0.4774 -0.7981 -0.5593
 4110TIP3   OH233744   1.827   4.302   4.531  0.8847  0.1086 -0.2038
 4110TIP3    H133745   1.843   4.250   4.610  0.9130 -0.1207 -0.3605
 4110TIP3    H233746   1.843   4.393   4.559  1.6159 -0.0352 -0.1361
 4111TIP3   OH233747   5.631   6.507   4.527 -0.1739 -0.5618 -0.4161
 4111TIP3    H133748   5.618   6.601   4.511 -0.5596 -0.1420  1.9817
 4111TIP3    H233749   5.683   6.503   4.607 -1.7687 -2.3550  0.6310
 4112TIP3   OH233750   3.433   0.833  15.101 -0.2480 -0.1980  0.6583
 4112TIP3    H133751   3.462   0.744  15.083 -1.8922 -0.5918 -0.2561
 4112TIP3    H233752   3.467   0.852  15.189  1.3618 -1.1529  0.2851
 4113TIP3   OH233753   5.950   5.298   0.177  0.6455  0.1158 -0.7757
 4113TIP3    H133754   5.923   5.388   0.195 -0.1296 -0.2500 -0.0755
 4113TIP3    H233755   5.936   5.251   0.259  1.6533 -0.5156 -0.9431
 4114TIP3   OH233756   2.607   4.888  12.873 -0.0529 -0.4389 -0.1511
 4114TIP3    H133757   2.573   4.976  12.893  1.8291 -0.0181  1.5210
 4114TIP3    H233758   2.543   4.828  12.910 -1.9035  0.1306 -2.2142
 4115TIP3   OH233759   5.251   1.574   1.923 -0.1163  0.5942  0.4782
 4115TIP3    H133760   5.209   1.512   1.864  0.3059 -0.5575  1.3523
 4115TIP3    H233761   5.294   1.637   1.865 -2.4396  1.4239 -0.4325
 4116TIP3   OH233762   2.702   0.149  11.994 -0.2735 -0.7309  0.1867
 4116TIP3    H133763   2.669   0.068  12.032  1.4110 -1.0252  1.1179
 4116TIP3    H233764   2.763   0.121  11.926  0.1238 -0.2485  0.3359
 4117TIP3   OH233765   2.550   4.280   6.564 -0.1498  0.1959 -0.2763
 4117TIP3    H133766   2.461   4.245   6.572  0.7153 -1.9827  0.3314
 4117TIP3    H233767   2.545   4.367   6.605 -1.7017 -0.4093  0.8883
 4118TIP3   OH233768   2.583   4.621   5.003  0.4792 -0.5894  0.3243
 4118TIP3    H133769   2.666   4.584   4.972  0.5154  0.5894 -1.0739
 4118TIP3    H233770   2.554   4.560   5.071  2.7576 -0.7290  1.2514
 4119TIP3   OH233771   0.363   2.411   4.368  0.2275  0.0538 -0.3858
 4119TIP3    H133772   0.307   2.462   4.309  0.7422 -0.2426 -1.1543
 4119TIP3    H233773   0.430   2.474   4.397 -1.0838  0.7055  1.4054
 4120TIP3   OH233774   0.147   5.513   3.180 -0.0219 -0.9691  0.5082
 4120TIP3    H133775   0.134   5.528   3.087  0.4276  0.5689  0.6674
 4120TIP3    H233776   0.123   5.421   3.193  1.1438 -1.5848 -1.3364
 4121TIP3   OH233777   1.100   0.475  17.039 -0.8170  0.2629  0.1958
 4121TIP3    H133778   1.137   0.499  16.954 -0.0415  1.8069  0.9127
 4121TIP3    H233779   1.008   0.458  17.022 -0.5141 -0.1994 -1.0744
 4122TIP3   OH233780   6.300   6.679   1.636  0.1785  0.3984 -0.1663
 4122TIP3    H133781   6.248   6.600   1.623  0.6276  0.2478 -1.1176
 4122TIP3    H233782   6.323   6.678   1.729  1.8227 -1.6475 -0.5095
 4123TIP3   OH233783   6.156   5.708  13.708  0.5056  0.1129 -0.3549
 4123TIP3    H133784   6.231   5.766  13.697  1.3563 -0.6803  0.9970
 4123TIP3    H233785   6.153   5.656  13.629  1.2309  0.3134 -0.5144
 4124TIP3   OH233786   6.123   2.873   1.444 -0.5607 -0.1483  0.5034
 4124TIP3    H133787   6.131   2.867   1.539  0.0276  2.1436  0.6529
 4124TIP3    H233788   6.192   2.816   1.411  0.5114  0.5305  1.4959
 4125TIP3   OH233789   5.175   6.340  16.649  0.3959  0.4961 -1.3272
 4125TIP3    H133790   5.226   6.259  16.653 -0.4255 -0.0608 -1.8830
 4125TIP3    H233791   5.221   6.399  16.708 -0.1474 -1.0297  0.7501
 4126TIP3   OH233792   6.655   1.823   5.106  0.3470 -0.2771 -0.1643
 4126TIP3    H133793   6.629   1.818   5.014  0.4393 -0.1457 -0.1972
 4126TIP3    H233794   6.740   1.867   5.105  0.2680 -0.1196 -0.0030
 4127TIP3   OH233795   2.848   0.014  16.009 -0.3636  0.1725  0.5701
 4127TIP3    H133796   2.804  -0.051  15.955 -0.7200  0.8289  0.0645
 4127TIP3    H233797   2.885  -0.037  16.082  1.0410 -0.9033 -0.8183
 4128TIP3   OH233798   3.225   6.404   4.808  0.1122  0.1024 -0.0065
 4128TIP3    H133799   3.301   6.355   4.776 -1.0018 -1.8722  0.1878
 4128TIP3    H233800   3.190   6.447   4.730 -0.1820 -1.2861 -0.6696
 4129TIP3   OH233801   2.704   4.948  11.939 -0.0223  0.6007 -0.3282
 4129TIP3    H133802   2.788   4.913  11.968 -0.3277 -0.0886 -0.2641
 4129TIP3    H233803   2.639   4.901  11.992 -0.5449 -0.0430 -1.5112
 4130TIP3   OH233804   0.973   1.550   3.983 -0.1204  0.5947 -0.9283
 4130TIP3    H133805   1.022   1.622   4.022  0.9235 -1.1315  1.1234
 4130TIP3    H233806   1.026   1.522   3.908  0.8205  0.3175 -0.1781
 4131TIP3   OH233807   5.305   3.053  15.034 -0.1047  1.0335 -0.2303
 4131TIP3    H133808   5.388   3.011  15.055 -0.6263  0.7059  1.3127
 4131TIP3    H233809   5.328   3.142  15.010  0.5579  1.6956  2.5509
 4132TIP3   OH233810   4.362   5.029   1.842  0.0322 -0.4391  0.3965
 4132TIP3    H133811   4.443   5.001   1.885  0.9622  1.2606 -0.1586
 4132TIP3    H233812   4.380   5.017   1.748  0.6732  2.3051  0.0898
 4133TIP3   OH233813   5.290   5.042   1.790  0.2051  0.2917 -0.0055
 4133TIP3    H133814   5.210   5.042   1.842  0.3853 -0.3569  0.2905
 4133TIP3    H233815   5.268   5.089   1.710 -0.9817 -1.3453 -0.6999
 4134TIP3   OH233816   3.136   5.921  14.481  0.4220  0.2348 -1.0294
 4134TIP3    H133817   3.062   5.947  14.426 -1.8850 -1.6952  0.8859
 4134TIP3    H233818   3.122   5.967  14.564  1.6127  0.1677 -0.7803
 4135TIP3   OH233819   2.461   2.351  11.188 -0.0491 -0.5338  0.1660
 4135TIP3    H133820   2.491   2.306  11.109  1.1691  1.0820 -0.3525
 4135TIP3    H233821   2.398   2.416  11.157 -1.4997 -1.5512  0.8582
 4136TIP3   OH233822   2.958   0.834  11.903  0.2378  0.2565  0.1142
 4136TIP3    H133823   2.987   0.821  11.813 -2.0926 -0.1364 -0.6562
 4136TIP3    H233824   2.892   0.903  11.897 -0.8993 -0.6789  1.2918
 4137TIP3   OH233825   5.873   0.118   0.421 -0.5791 -0.2697  0.2421
 4137TIP3    H133826   5.860   0.024   0.434 -1.2291 -0.0133  1.7513
 4137TIP3    H233827   5.902   0.149   0.507 -1.0565  1.0086 -0.0387
 4138TIP3   OH233828   0.599   5.507  11.669  0.4997 -0.5330 -0.0676
 4138TIP3    H133829   0.618   5.599  11.686 -1.6668 -0.3265  1.8543
 4138TIP3    H233830   0.679   5.472  11.630  2.2266  1.6115  1.3225
 4139TIP3   OH233831   0.178   5.286  10.955  0.2188  0.5129  0.3803
 4139TIP3    H133832   0.136   5.202  10.970 -0.5952  0.7770 -0.3580
 4139TIP3    H233833   0.261   5.281  11.004  1.4287 -1.7106 -1.6887
 4140TIP3   OH233834   2.453   2.789  12.411  0.2899 -0.0325  0.3355
 4140TIP3    H133835   2.463   2.708  12.462  1.5116  0.3044  0.6628
 4140TIP3    H233836   2.427   2.855  12.475  0.1058  0.0136  0.2130
 4141TIP3   OH233837   0.129   2.710   3.356  0.4433  0.1550  0.1281
 4141TIP3    H133838   0.133   2.618   3.381  2.0788  0.3962  0.8319
 4141TIP3    H233839   0.115   2.757   3.438  0.7004  0.6049 -0.0825
 4142TIP3   OH233840   0.967   0.336  12.110 -0.0210  0.1286  0.0672
 4142TIP3    H133841   0.903   0.354  12.179  0.0422  0.1152  0.1295
 4142TIP3    H233842   1.052   0.346  12.153  0.0288  0.6884 -0.1515
 4143TIP3   OH233843   0.858   3.841  12.900  0.2673  0.1186  0.0882
 4143TIP3    H133844   0.834   3.932  12.885 -2.2001 -0.8066 -2.2916
 4143TIP3    H233845   0.826   3.821  12.988  0.1437  1.2977  0.3212
 4144TIP3   OH233846   6.208   1.993   2.642 -0.1786  0.0083 -0.2824
 4144TIP3    H133847   6.117   1.982   2.613  0.2425  0.4648 -1.8987
 4144TIP3    H233848   6.230   2.083   2.618  1.2803 -0.6849 -1.7707
 4145TIP3   OH233849   1.612   5.496   1.713  0.5788 -0.0942 -0.1012
 4145TIP3    H133850   1.600   5.486   1.808  1.1095  1.1236  0.1038
 4145TIP3    H233851   1.528   5.530   1.682  0.8882  0.9557  0.1718
 4146TIP3   OH233852   0.383   4.374  12.383 -0.3967  0.3402 -0.3330
 4146TIP3    H133853   0.335   4.456  12.374  0.1676  0.8678  1.1911
 4146TIP3    H233854   0.464   4.389  12.334 -0.7777  0.2678 -1.0011
 4147TIP3   OH233855   4.751   6.568  11.477 -0.2557 -0.5758 -0.1391
 4147TIP3    H133856   4.664   6.587  11.442 -0.2186  2.1380  0.9913
 4147TIP3    H233857   4.740   6.572  11.572  1.0803 -0.2920  0.0237
 4148TIP3   OH233858   5.314   4.960   0.804  0.3625 -0.0703  0.1266
 4148TIP3    H133859   5.234   4.910   0.790  0.6411 -0.3496 -0.5061
 4148TIP3    H233860   5.329   4.957   0.898 -0.7381  0.5575  0.3323
 4149TIP3   OH233861   2.370   5.514  12.054  0.2407 -0.0472  0.2301
 4149TIP3    H133862   2.343   5.557  12.135  0.0764 -2.7597  1.7717
 4149TIP3    H233863   2.465   5.505  12.063  0.3118  0.2474 -0.2154
 4150TIP3   OH233864   6.460   0.662   5.924  0.0712 -0.3744 -0.3944
 4150TIP3    H133865   6.369   0.689   5.914 -0.1496 -1.4224 -1.4865
 4150TIP3    H233866   6.457   0.595   5.992 -0.1854 -1.2547 -1.2430
 4151TIP3   OH233867   2.977   1.155  14.381  0.3395 -0.2713  0.2117
 4151TIP3    H133868   2.987   1.152  14.476  2.4970  0.3355  0.0449
 4151TIP3    H233869   2.931   1.074  14.359 -0.5472 -0.2413  1.7804
 4152TIP3   OH233870   0.919   2.540   2.617 -0.1961 -0.0400 -0.0984
 4152TIP3    H133871   0.893   2.586   2.697 -0.5658  0.3969 -0.4568
 4152TIP3    H233872   0.975   2.469   2.646 -0.0925  0.2928  0.5227
 4153TIP3   OH233873   0.512   0.369   0.508 -0.8287  0.4428 -0.0661
 4153TIP3    H133874   0.421   0.387   0.484 -0.6987  1.0038 -0.1514
 4153TIP3    H233875   0.535   0.440   0.568 -0.5295  0.1528  0.1654
 4154TIP3   OH233876   4.008   6.313   0.423 -0.0034  0.1955  0.0347
 4154TIP3    H133877   3.996   6.385   0.485  0.6865 -0.1785  0.6103
 4154TIP3    H233878   4.088   6.269   0.452  0.2124 -0.1110 -0.9950
 4155TIP3   OH233879   4.750   4.739  16.422  0.0610  0.1892 -0.5416
 4155TIP3    H133880   4.746   4.806  16.354 -0.5490  0.9546  0.2127
 4155TIP3    H233881   4.700   4.776  16.495 -1.1523 -1.4965 -0.4466
 4156TIP3   OH233882   3.164   4.124  11.086 -0.2056 -0.0621  0.3480
 4156TIP3    H133883   3.163   4.089  11.175  0.3547  0.2152  0.4719
 4156TIP3    H233884   3.251   4.165  11.078  0.2293 -1.1439 -0.7392
 4157TIP3   OH233885   2.363   3.239   4.348  0.0704 -0.5443 -0.1138
 4157TIP3    H133886   2.448   3.199   4.368 -0.3585 -1.2814  0.2650
 4157TIP3    H233887   2.332   3.274   4.431  0.0267 -0.2257 -0.2634
 4158TIP3   OH233888   4.216   4.422  16.397  0.3742 -0.5109  0.0518
 4158TIP3    H133889   4.269   4.350  16.431  0.1930 -0.9441 -0.5672
 4158TIP3    H233890   4.269   4.500  16.413  0.1868 -0.6636  1.5474
 4159TIP3   OH233891   5.322   5.987   1.721 -0.1266 -0.1623  0.4482
 4159TIP3    H133892   5.366   6.065   1.687 -0.6323  0.5927  1.4736
 4159TIP3    H233893   5.256   6.021   1.782 -0.1920 -1.3999  1.1030
 4160TIP3   OH233894   2.485   0.592   3.725 -0.1767  0.0487 -0.0899
 4160TIP3    H133895   2.433   0.513   3.742  1.0174 -0.4561  1.4380
 4160TIP3    H233896   2.483   0.640   3.808 -0.8839  1.6643 -0.9915
 4161TIP3   OH233897   1.585   4.355   2.976  0.0860  0.3335 -0.4275
 4161TIP3    H133898   1.660   4.321   2.927 -0.1323  0.6255 -0.9621
 4161TIP3    H233899   1.577   4.446   2.947 -1.7527 -0.2569 -1.9370
 4162TIP3   OH233900   1.907   1.530   0.031  0.0251  0.1547  0.4173
 4162TIP3    H133901   1.888   1.488  -0.053 -1.3905 -1.1898  1.3490
 4162TIP3    H233902   1.821   1.546   0.069  0.6256  1.4947  1.2941
 4163TIP3   OH233903   3.605   4.813  10.973 -0.1338  0.6624  0.7388
 4163TIP3    H133904   3.646   4.727  10.964 -1.0025 -0.1379  3.4681
 4163TIP3    H233905   3.632   4.860  10.895  1.6683 -1.5472 -0.0956
 4164TIP3   OH233906   0.127   4.565  13.636  0.0926 -0.0744 -0.1841
 4164TIP3    H133907   0.190   4.538  13.570  0.5086  2.1781 -0.7888
 4164TIP3    H233908   0.132   4.661  13.637 -2.2449  0.1206  0.8109
 4165TIP3   OH233909   1.185   0.628   2.730  0.7857 -0.0400  0.0715
 4165TIP3    H133910   1.129   0.605   2.657  0.7655 -0.6008  0.2581
 4165TIP3    H233911   1.272   0.597   2.705  0.7509 -0.3691  0.3408
 4166TIP3   OH233912   5.968   1.339   3.990 -0.1251 -0.3245 -0.3121
 4166TIP3    H133913   5.934   1.424   4.020  1.4058 -0.0483  0.7552
 4166TIP3    H233914   5.924   1.324   3.906  0.0312  1.8405 -0.8386
 4167TIP3   OH233915   6.059   5.259   2.224  0.0526  0.2658 -0.4450
 4167TIP3    H133916   6.109   5.189   2.267  0.1437  0.0239 -0.9379
 4167TIP3    H233917   5.972   5.220   2.210  0.0680  0.2888 -0.6111
 4168TIP3   OH233918   2.368   0.654   1.198  0.3668  0.1084 -0.2931
 4168TIP3    H133919   2.283   0.636   1.158 -0.1419  1.1396  0.2978
 4168TIP3    H233920   2.432   0.625   1.133 -0.4308  1.1793 -1.5895
 4169TIP3   OH233921   2.966   4.243   5.772  0.6396 -0.0427  0.1336
 4169TIP3    H133922   2.917   4.314   5.815 -1.7581 -0.6510 -1.3760
 4169TIP3    H233923   2.973   4.271   5.681  2.0778 -0.5599  0.0683
 4170TIP3   OH233924   2.378   2.566   1.108  0.6031 -0.0993 -0.6304
 4170TIP3    H133925   2.449   2.622   1.077  0.8065 -0.3622 -0.6472
 4170TIP3    H233926   2.366   2.591   1.199 -1.8086  2.5836 -1.5359
 4171TIP3   OH233927   3.505   0.887  16.019 -0.4819 -0.0588  0.0886
 4171TIP3    H133928   3.563   0.912  16.091 -0.8169 -2.4403  1.2746
 4171TIP3    H233929   3.563   0.842  15.957 -0.0939  2.4392 -1.4716
 4172TIP3   OH233930   2.133   4.168   1.827  0.4300 -0.1510 -0.0777
 4172TIP3    H133931   2.165   4.210   1.907 -0.7905  0.0065  0.3426
 4172TIP3    H233932   2.052   4.215   1.805  1.7225  1.1382 -2.5379
 4173TIP3   OH233933   0.811   3.734  12.417  0.2192 -0.4277 -0.0850
 4173TIP3    H133934   0.900   3.756  12.389  0.1719  0.5162  0.4375
 4173TIP3    H233935   0.815   3.641  12.438  0.9258 -0.5398 -0.6587
 4174TIP3   OH233936   6.416   6.615   1.091 -0.4767 -0.0017 -0.1710
 4174TIP3    H133937   6.380   6.544   1.144 -0.3622  0.2954  0.3041
 4174TIP3    H233938   6.384   6.597   1.002  0.0146 -0.9729 -0.1679
 4175TIP3   OH233939   0.010   1.791  12.466  0.2318  0.0072  0.1362
 4175TIP3    H133940  -0.009   1.785  12.373 -0.4245  1.3082  0.1743
 4175TIP3    H233941   0.106   1.789  12.471  0.2671 -0.2330 -0.5466
 4176TIP3   OH233942   4.310   0.815  12.226 -0.5986  0.3840  0.4011
 4176TIP3    H133943   4.369   0.890  12.231 -1.7855  1.4125 -0.6607
 4176TIP3    H233944   4.345   0.761  12.155  0.3799 -0.2363  1.3067
 4177TIP3   OH233945   4.782   5.523  15.727  0.1223  0.3208  0.0484
 4177TIP3    H133946   4.780   5.615  15.752  0.6512  0.1458  0.7569
 4177TIP3    H233947   4.874   5.498  15.735 -0.1267 -0.4578  0.5349
 4178TIP3   OH233948   5.866   0.013  12.964  0.7220 -0.1013  0.0331
 4178TIP3    H133949   5.937  -0.030  12.916 -0.1479 -1.2433 -0.2744
 4178TIP3    H233950   5.834   0.080  12.904  2.3860  1.3418  0.6918
 4179TIP3   OH233951   1.567   0.417  15.534 -0.4024 -0.7694  0.1283
 4179TIP3    H133952   1.625   0.387  15.604 -2.1571  0.4249  2.2293
 4179TIP3    H233953   1.515   0.487  15.575  0.6450  2.2978 -3.2858
 4180TIP3   OH233954   4.319   0.520   6.498  0.5969  0.5438  0.1543
 4180TIP3    H133955   4.274   0.566   6.569  1.3107  0.0846  0.9139
 4180TIP3    H233956   4.395   0.480   6.539  0.4398 -0.6403 -0.6582
 4181TIP3   OH233957   2.904   4.461   1.618 -0.0360 -0.8710 -0.0603
 4181TIP3    H133958   2.950   4.457   1.701  0.5519  0.1458 -0.3245
 4181TIP3    H233959   2.844   4.386   1.621  0.0001 -0.8788  1.2517
 4182TIP3   OH233960   1.653   4.812  14.804 -0.0994  0.6840 -0.0606
 4182TIP3    H133961   1.620   4.898  14.777 -1.0897  0.7596  1.3173
 4182TIP3    H233962   1.660   4.763  14.722 -1.6776  1.3487 -0.6350
 4183TIP3   OH233963   1.323   2.545  14.477 -0.4835 -0.2420 -0.6656
 4183TIP3    H133964   1.250   2.587  14.522 -0.9850 -0.0625 -1.6358
 4183TIP3    H233965   1.400   2.567  14.530 -0.9780  0.4987 -0.2521
 4184TIP3   OH233966   2.319   6.735  13.566  0.1412  0.6654 -0.1222
 4184TIP3    H133967   2.317   6.640  13.556  2.0709  0.6145 -0.3876
 4184TIP3    H233968   2.299   6.769  13.479  0.9951  0.4773 -0.3942
 4185TIP3   OH233969   2.313   3.711  13.941  0.0279  0.2958  0.1050
 4185TIP3    H133970   2.381   3.644  13.947 -0.8034 -0.4371  2.3441
 4185TIP3    H233971   2.360   3.794  13.948  0.8097 -0.1670  0.4405
 4186TIP3   OH233972   1.461   5.573  12.536  0.6237 -0.2876 -0.6932
 4186TIP3    H133973   1.490   5.664  12.545 -1.0154  0.6041 -3.2950
 4186TIP3    H233974   1.471   5.553  12.443 -1.2663 -1.9372 -0.6118
 4187TIP3   OH233975   6.636   1.026  16.914 -0.2287  0.4813 -0.2526
 4187TIP3    H133976   6.675   0.972  16.983 -2.3912 -0.0620  0.6333
 4187TIP3    H233977   6.561   1.067  16.956 -1.1830  0.7256 -2.1079
 4188TIP3   OH233978   6.037   2.032  10.199 -0.2283  0.1296 -1.2740
 4188TIP3    H133979   6.019   1.999  10.112  0.5601  0.6774 -1.6581
 4188TIP3    H233980   6.129   2.012  10.214 -0.2361  0.4532 -0.7616
 4189TIP3   OH233981   4.594   1.530  11.936 -0.1603 -0.3056  0.4145
 4189TIP3    H133982   4.525   1.464  11.928 -1.2429  0.6170  1.6162
 4189TIP3    H233983   4.560   1.605  11.889  0.3182 -0.0638  0.4564
 4190TIP3   OH233984   6.687   4.963   4.302 -0.1980  0.2583  0.0019
 4190TIP3    H133985   6.735   4.895   4.256  0.2354  1.1099 -0.8435
 4190TIP3    H233986   6.631   4.916   4.363 -1.4622 -0.9667 -1.9916
 4191TIP3   OH233987   2.045   2.325  14.081 -0.6413 -0.3176 -0.4660
 4191TIP3    H133988   2.022   2.234  14.099 -0.3258 -0.0345  1.5697
 4191TIP3    H233989   2.021   2.372  14.161  1.5765  0.9459 -0.4667
 4192TIP3   OH233990   4.015   6.635  15.022  0.1829  0.1974  0.6107
 4192TIP3    H133991   4.039   6.551  14.983 -0.0904 -0.0155  0.8955
 4192TIP3    H233992   3.929   6.619  15.061 -1.2141  1.3456 -1.7733
 4193TIP3   OH233993   4.688   0.205   5.588 -0.6110 -0.1546  0.0648
 4193TIP3    H133994   4.779   0.183   5.566 -0.6857 -2.3433  1.7120
 4193TIP3    H233995   4.693   0.239   5.677 -1.2275  1.4668 -0.4896
 4194TIP3   OH233996   6.158   2.494   3.094  0.4181  0.5848 -0.0606
 4194TIP3    H133997   6.244   2.472   3.130  0.1515 -0.8371 -0.2342
 4194TIP3    H233998   6.174   2.506   3.000  0.9104  3.2010  0.2710
 4195TIP3   OH233999   4.787   1.454   0.305 -0.7159  0.0768 -0.0096
 4195TIP3    H134000   4.881   1.448   0.291 -0.3082  1.4698  1.6687
 4195TIP3    H234001   4.772   1.547   0.323 -2.0812 -0.4102  1.6695
 4196TIP3   OH234002   4.884   5.018   0.423  0.7157 -0.0737  0.3777
 4196TIP3    H134003   4.960   4.992   0.476  0.4495 -2.1415 -0.1595
 4196TIP3    H234004   4.920   5.038   0.337  0.6784 -1.1226  0.1031
 4197TIP3   OH234005   1.411   4.802   1.977 -0.3181  0.0139 -0.5736
 4197TIP3    H134006   1.345   4.862   1.942 -1.3216 -0.4533  0.4563
 4197TIP3    H234007   1.437   4.841   2.061 -0.7065 -0.7777 -0.0750
 4198TIP3   OH234008   5.673   1.754   6.455 -0.5455  0.3534 -0.7626
 4198TIP3    H134009   5.672   1.676   6.511  0.1309  1.7945  1.3714
 4198TIP3    H234010   5.751   1.745   6.401 -1.3527 -1.1965 -1.7324
 4199TIP3   OH234011   3.462   1.062  13.892 -0.1826 -0.4876 -0.3426
 4199TIP3    H134012   3.527   1.052  13.823  1.7966 -0.9736  1.4848
 4199TIP3    H234013   3.431   0.972  13.908  0.5287 -0.6043  0.4363
 4200TIP3   OH234014   3.931   2.851   3.018 -0.1131  0.3571 -0.2011
 4200TIP3    H134015   4.018   2.874   2.986 -0.7990  2.4494 -0.7074
 4200TIP3    H234016   3.942   2.843   3.113  1.0819 -1.8575 -0.4448
 4201TIP3   OH234017   2.276   2.974  16.699  0.2712 -0.2484  0.3167
 4201TIP3    H134018   2.318   3.036  16.759 -0.1176 -0.1641  0.5076
 4201TIP3    H234019   2.331   2.975  16.621  2.1733 -2.1597  1.5237
 4202TIP3   OH234020   5.368   5.822  16.660 -0.1220  0.0383  0.4648
 4202TIP3    H134021   5.395   5.733  16.637  0.9772  0.6930 -0.9408
 4202TIP3    H234022   5.349   5.864  16.576 -0.4155  1.1937  1.0898
 4203TIP3   OH234023   0.588   2.521   6.427  0.5867  0.1121 -0.4305
 4203TIP3    H134024   0.498   2.552   6.414  0.4349 -0.2386 -0.2252
 4203TIP3    H234025   0.626   2.584   6.487 -0.3105 -1.1088  1.5195
 4204TIP3   OH234026   1.970   4.126   1.034 -0.9205 -0.0637  0.1864
 4204TIP3    H134027   1.915   4.203   1.019 -1.2259 -0.5405 -1.3297
 4204TIP3    H234028   2.054   4.161   1.063 -1.3807  0.7854  0.5081
 4205TIP3   OH234029   4.562   1.672  12.691  0.5197 -0.6832 -0.1610
 4205TIP3    H134030   4.514   1.597  12.655 -0.5517  0.1952 -0.6153
 4205TIP3    H234031   4.559   1.659  12.786  1.4070 -1.8281 -0.2555
 4206TIP3   OH234032   3.967   0.126   1.440 -0.4206 -0.1927  0.1383
 4206TIP3    H134033   4.020   0.051   1.410  0.2672  1.2200 -2.4983
 4206TIP3    H234034   4.022   0.170   1.505  1.7752  1.1550 -2.4248
 4207TIP3   OH234035   6.215   2.311   3.372 -0.7225 -0.1017 -0.1758
 4207TIP3    H134036   6.167   2.245   3.321 -0.2925 -1.2343  0.8257
 4207TIP3    H234037   6.307   2.285   3.363 -0.7005 -0.9603  1.9652
 4208TIP3   OH234038   0.195   3.125   2.953 -0.2802  0.1435  0.8140
 4208TIP3    H134039   0.164   3.086   3.035 -2.5140  2.6235  1.2823
 4208TIP3    H234040   0.136   3.199   2.938  0.6177  0.3193 -2.6005
 4209TIP3   OH234041   1.852   5.574   2.969  0.2433  0.3949  0.1699
 4209TIP3    H134042   1.811   5.556   3.053  0.2894 -0.5049  0.0160
 4209TIP3    H234043   1.779   5.574   2.907  0.2069  1.0752  0.2138
 4210TIP3   OH234044   1.577   5.584   2.893 -0.4701  0.3090  0.0055
 4210TIP3    H134045   1.592   5.661   2.838  0.8684  0.0768  0.0126
 4210TIP3    H234046   1.514   5.531   2.844  0.2344  0.4011 -1.0227
 4211TIP3   OH234047   1.857   3.507   0.102 -0.0118  0.5843 -0.1540
 4211TIP3    H134048   1.857   3.416   0.130  0.0338  0.0799 -1.7139
 4211TIP3    H234049   1.950   3.528   0.088 -0.0679  0.6521 -0.4388
 4212TIP3   OH234050   0.264   3.729   2.442 -0.3220 -0.4205 -0.0837
 4212TIP3    H134051   0.301   3.688   2.520  1.6440  1.8235  0.2870
 4212TIP3    H234052   0.228   3.812   2.473 -2.3181 -0.8250 -1.1227
 4213TIP3   OH234053   3.904   1.331  15.365  0.0028 -0.1069  0.4379
 4213TIP3    H134054   3.851   1.339  15.444  0.5562  2.1480  0.6252
 4213TIP3    H234055   3.942   1.417  15.352  1.5485 -0.9644 -1.1737
 4214TIP3   OH234056   2.053   4.421  11.784 -0.0046 -0.1301 -0.6323
 4214TIP3    H134057   2.009   4.336  11.791  0.6314 -0.3648  0.8808
 4214TIP3    H234058   2.053   4.441  11.690 -2.5017 -0.5505 -0.7870
 4215TIP3   OH234059   3.024   4.538  16.054  0.0569 -0.0997 -0.3959
 4215TIP3    H134060   2.987   4.483  15.986  0.0519 -0.8746  0.2220
 4215TIP3    H234061   2.949   4.582  16.094  0.1705  1.4565 -1.7960
 4216TIP3   OH234062   0.422   4.659   3.019 -0.4034 -0.8628  0.1188
 4216TIP3    H134063   0.375   4.691   2.941 -0.4974  1.3048  0.9846
 4216TIP3    H234064   0.512   4.685   3.004  0.0599 -2.5481 -0.2709
 4217TIP3   OH234065   6.319   5.857   6.192  0.7309 -0.1202  0.3111
 4217TIP3    H134066   6.298   5.880   6.282  1.4250  1.5563  0.0777
 4217TIP3    H234067   6.236   5.827   6.155 -0.4472  2.6140  0.5208
 4218TIP3   OH234068   3.148   5.552  13.527 -0.1150 -0.1507  0.6921
 4218TIP3    H134069   3.171   5.639  13.494  2.3551 -1.2315 -0.6880
 4218TIP3    H234070   3.231   5.516  13.558 -0.9854 -2.2592  0.7195
 4219TIP3   OH234071   6.704   6.501  16.162 -0.0737 -0.3168  0.4987
 4219TIP3    H134072   6.654   6.485  16.242 -0.9976  1.8655  0.4198
 4219TIP3    H234073   6.639   6.496  16.091 -0.0379  1.4232  0.2875
 4220TIP3   OH234074   0.944   5.868  10.750  0.3544  0.2147  0.0204
 4220TIP3    H134075   0.980   5.946  10.794 -0.5481  0.0420  1.1106
 4220TIP3    H234076   0.876   5.902  10.693 -0.3208  0.2080  0.8028
 4221TIP3   OH234077   3.519   4.916   3.044  0.3856  0.1547 -0.2589
 4221TIP3    H134078   3.551   4.906   3.133 -1.3368  0.0285  0.3880
 4221TIP3    H234079   3.594   4.948   2.995  1.5084 -0.2759  1.1193
 4222TIP3   OH234080   4.720   5.178  14.689 -0.0602  0.6041  0.1271
 4222TIP3    H134081   4.748   5.246  14.627 -0.1423 -0.5665 -1.2287
 4222TIP3    H234082   4.698   5.103  14.634  0.0486 -0.5406  1.6080
 4223TIP3   OH234083   5.968   3.219   3.905  0.2405 -0.5801 -0.3966
 4223TIP3    H134084   5.959   3.267   3.823  0.7130 -0.4545 -0.3789
 4223TIP3    H234085   5.881   3.223   3.945  0.3554  0.5493 -0.2420
 4224TIP3   OH234086   0.496   6.306  13.742 -0.3332  0.1520 -0.1681
 4224TIP3    H134087   0.403   6.293  13.759 -0.2840  0.3231  0.2414
 4224TIP3    H234088   0.523   6.227  13.695 -1.0312  0.8164 -1.7309
 4225TIP3   OH234089   1.850   0.129  10.965  0.6964 -0.1699 -0.1043
 4225TIP3    H134090   1.935   0.153  10.928 -0.3525  1.4212 -1.6862
 4225TIP3    H234091   1.816   0.062  10.906  0.2567  0.2410 -0.3239
 4226TIP3   OH234092   5.696   3.474  13.847  0.6394 -0.3221 -0.2150
 4226TIP3    H134093   5.637   3.400  13.862  1.0709 -0.3828  1.4042
 4226TIP3    H234094   5.783   3.438  13.864  0.9095  0.3730 -0.0877
 4227TIP3   OH234095   5.474   0.081  16.614 -0.0055 -0.3129 -0.4077
 4227TIP3    H134096   5.563   0.080  16.578  0.7762 -1.8868  1.3787
 4227TIP3    H234097   5.457   0.174  16.633  2.7491 -0.2378  2.5036
 4228TIP3   OH234098   4.645   0.097  12.274  0.0407  0.1317  0.0203
 4228TIP3    H134099   4.731   0.063  12.247 -0.0976 -0.2813  0.0975
 4228TIP3    H234100   4.611   0.139  12.195  0.0441 -0.2532 -0.1897
 4229TIP3   OH234101   5.841   6.307  13.338 -0.0772  0.5147 -0.4538
 4229TIP3    H134102   5.766   6.261  13.300 -0.1445  0.3119 -0.0729
 4229TIP3    H234103   5.914   6.245  13.326 -0.8243 -1.4421  3.4515
 4230TIP3   OH234104   2.898   1.503   1.692  0.0203  0.0878 -0.1247
 4230TIP3    H134105   2.852   1.506   1.609 -2.7309  1.2332  1.3113
 4230TIP3    H234106   2.917   1.595   1.712  0.9449 -0.2004  0.3756
 4231TIP3   OH234107   5.665   1.196  12.283 -0.6481 -0.2198  0.1002
 4231TIP3    H134108   5.682   1.122  12.340  0.5809 -1.2420 -1.5037
 4231TIP3    H234109   5.749   1.241  12.276 -0.8314  0.0204 -0.6951
 4232TIP3   OH234110   6.288   5.868  11.071 -0.0694  0.1223  0.6005
 4232TIP3    H134111   6.212   5.914  11.107  0.1063  0.5079  0.4782
 4232TIP3    H234112   6.251   5.813  11.002 -0.4546 -0.8656  1.5566
 4233TIP3   OH234113   2.928   0.416   6.066  0.0951 -0.1402 -0.1812
 4233TIP3    H134114   3.000   0.415   6.130  0.2997 -2.6364 -0.3324
 4233TIP3    H234115   2.851   0.387   6.115 -0.5064  1.1096 -0.3537
 4234TIP3   OH234116   4.788   5.754   3.791  0.1946  0.1249 -0.6946
 4234TIP3    H134117   4.738   5.821   3.839  0.5045  0.1617 -0.4166
 4234TIP3    H234118   4.774   5.674   3.841  1.2480  0.3456 -0.0104
 4235TIP3   OH234119   5.849   5.012   2.226 -0.1451 -0.1185  0.0951
 4235TIP3    H134120   5.874   4.980   2.139 -0.5109 -0.6364  0.1735
 4235TIP3    H234121   5.858   4.935   2.283  0.7016  0.3723  0.6431
 4236TIP3   OH234122   0.636   1.727  10.438 -0.3444 -0.1490 -0.3127
 4236TIP3    H134123   0.657   1.645  10.483 -1.9662 -0.9060 -0.8334
 4236TIP3    H234124   0.710   1.742  10.380  0.4107 -0.7342  0.4712
 4237TIP3   OH234125   4.174   5.148  12.195  0.3223  0.7998  0.6575
 4237TIP3    H134126   4.238   5.214  12.220  1.4767  0.4148 -1.0832
 4237TIP3    H234127   4.195   5.072  12.249  1.1037  0.8015  0.3598
 4238TIP3   OH234128   5.480   0.064   2.935 -0.4272 -0.3065  0.0955
 4238TIP3    H134129   5.486   0.135   2.871  0.6098  0.2574  0.7978
 4238TIP3    H234130   5.438   0.103   3.011  2.2126  0.2592  1.3694
 4239TIP3   OH234131   3.473   4.585   5.700  0.2294 -0.2517 -0.6811
 4239TIP3    H134132   3.450   4.676   5.719  1.1209 -0.0966 -0.2899
 4239TIP3    H234133   3.566   4.588   5.678  0.3776 -1.1334 -0.2263
 4240TIP3   OH234134   4.788   4.254   4.357  0.4310 -0.0244  0.4991
 4240TIP3    H134135   4.723   4.186   4.340 -0.3204  0.8037  0.0455
 4240TIP3    H234136   4.862   4.206   4.396  0.4222 -1.3039 -0.9513
 4241TIP3   OH234137   5.177   5.365  14.491 -0.4243  0.2887  0.5213
 4241TIP3    H134138   5.115   5.298  14.461  1.5656 -1.4906  0.1736
 4241TIP3    H234139   5.234   5.380  14.416 -0.2767  1.7456  0.8963
 4242TIP3   OH234140   2.492   5.420  15.302  0.6698 -0.0721  0.1236
 4242TIP3    H134141   2.575   5.401  15.347  0.9489 -0.5710 -0.5871
 4242TIP3    H234142   2.459   5.334  15.277  1.1566  0.2462 -1.7432
 4243TIP3   OH234143   4.983   5.123  11.555  0.2766 -0.8840 -0.3409
 4243TIP3    H134144   4.966   5.056  11.488  0.4557 -0.2182 -1.0638
 4243TIP3    H234145   5.018   5.073  11.629  2.0207 -1.4256 -1.4754
 4244TIP3   OH234146   3.629   4.317   3.256  0.1861  0.4233  0.2668
 4244TIP3    H134147   3.709   4.273   3.227 -0.4450 -1.6607  1.4916
 4244TIP3    H234148   3.580   4.331   3.175  0.9656  0.0160 -0.3051
 4245TIP3   OH234149   4.285   2.596  15.506 -0.1889  0.6145  0.7680
 4245TIP3    H134150   4.219   2.663  15.485  1.5153  2.0122 -0.5095
 4245TIP3    H234151   4.367   2.646  15.515  1.3941 -1.3784 -1.3893
 4246TIP3   OH234152   1.945   0.253  10.469 -0.3553  0.1685  0.3611
 4246TIP3    H134153   1.934   0.167  10.428  0.5690  0.1714  0.0913
 4246TIP3    H234154   1.866   0.302  10.443  0.3803  0.3190 -1.8239
 4247TIP3   OH234155   0.244   1.594   0.340  0.0093 -0.1552  0.1599
 4247TIP3    H134156   0.292   1.652   0.280 -0.6588  0.9749  0.6907
 4247TIP3    H234157   0.299   1.589   0.418 -0.1874  0.2145  0.3247
 4248TIP3   OH234158   1.632   3.846  13.730  0.2184 -0.2806  0.1007
 4248TIP3    H134159   1.597   3.885  13.811  0.2820  0.7607 -0.3532
 4248TIP3    H234160   1.726   3.837  13.746  0.2193 -0.1438  0.1787
 4249TIP3   OH234161   4.834   3.564   6.465 -0.0876 -0.3627 -0.4052
 4249TIP3    H134162   4.768   3.527   6.405 -0.3086 -0.0608 -0.3507
 4249TIP3    H234163   4.857   3.491   6.523  0.5446 -0.8169 -1.2076
 4250TIP3   OH234164   2.204   3.845  15.110  0.2992  0.5399  0.3334
 4250TIP3    H134165   2.155   3.884  15.038 -0.3470  0.3171  0.6535
 4250TIP3    H234166   2.158   3.764  15.130 -0.4212  1.3094  1.9848
 4251TIP3   OH234167   3.817   1.308   2.652  0.6261 -0.4344 -0.2710
 4251TIP3    H134168   3.767   1.296   2.571  1.9311 -0.0047 -1.1648
 4251TIP3    H234169   3.850   1.398   2.647 -0.2502  0.0242  1.3231
 4252TIP3   OH234170   0.871   1.231   0.150 -0.4020  0.3050  0.6069
 4252TIP3    H134171   0.903   1.272   0.070 -1.5648  0.5062  0.2273
 4252TIP3    H234172   0.903   1.288   0.220  2.0783 -0.7825  0.4646
 4253TIP3   OH234173   4.263   3.543   4.920  0.0588  0.8383  0.0471
 4253TIP3    H134174   4.325   3.615   4.911  0.2294  0.7257  0.2970
 4253TIP3    H234175   4.177   3.585   4.922  0.0799  0.9401 -0.9839
 4254TIP3   OH234176   4.864   4.300  13.656 -0.3022 -0.5856 -0.0509
 4254TIP3    H134177   4.824   4.240  13.593 -0.6717  0.1803 -0.5536
 4254TIP3    H234178   4.860   4.253  13.740 -1.3957 -0.9041 -0.2650
 4255TIP3   OH234179   6.587   2.579  15.414 -0.0920 -0.3151 -0.8132
 4255TIP3    H134180   6.525   2.506  15.409 -0.4720 -0.2824  1.7877
 4255TIP3    H234181   6.623   2.574  15.502  0.5581  2.0958 -0.8616
 4256TIP3   OH234182   3.176   0.655   3.483 -0.3124  0.6237  0.3207
 4256TIP3    H134183   3.184   0.561   3.501 -1.9041  0.2081 -0.9083
 4256TIP3    H234184   3.264   0.683   3.458 -0.3591 -1.2490 -2.2940
 4257TIP3   OH234185   4.835   6.256   5.656  0.0589  0.8483 -0.2034
 4257TIP3    H134186   4.822   6.244   5.750 -1.1197  0.9744 -0.3301
 4257TIP3    H234187   4.930   6.263   5.645  0.5175 -2.6091  0.5485
 4258TIP3   OH234188   6.433   1.440  14.671  0.0735 -0.2006  0.0668
 4258TIP3    H134189   6.442   1.535  14.661  1.0846 -0.4554 -2.2962
 4258TIP3    H234190   6.347   1.427  14.710  0.2208  1.6893  1.1439
 4259TIP3   OH234191   2.016   5.586  11.442  0.4178  0.1715 -0.2063
 4259TIP3    H134192   1.957   5.649  11.482  0.2541 -0.7613  1.0724
 4259TIP3    H234193   1.994   5.502  11.483  1.6261 -0.4505 -0.7701
 4260TIP3   OH234194   2.303   2.430   2.375  0.1095  0.4633 -0.6321
 4260TIP3    H134195   2.224   2.471   2.341  0.3509  1.1958 -0.3277
 4260TIP3    H234196   2.345   2.498   2.428 -1.1818 -1.0917  2.6964
 4261TIP3   OH234197   6.637   6.439   0.697  0.8487  0.6970 -0.4066
 4261TIP3    H134198   6.664   6.519   0.741 -1.1728  0.7191  0.8859
 4261TIP3    H234199   6.612   6.380   0.767  1.3222 -0.7327 -1.3886
 4262TIP3   OH234200   1.005   5.196   0.620  0.5897  0.0132  0.3472
 4262TIP3    H134201   0.936   5.208   0.555  2.1774  0.4963 -1.3195
 4262TIP3    H234202   1.052   5.118   0.591  1.4325  0.3344  0.8205
 4263TIP3   OH234203   6.130   1.784   0.868 -0.3965 -0.4687 -0.1719
 4263TIP3    H134204   6.141   1.779   0.963 -2.0108  2.3571  0.2576
 4263TIP3    H234205   6.044   1.744   0.852  0.5701 -2.4699 -0.7446
 4264TIP3   OH234206   3.106   2.348  16.863  0.6307  0.4957 -0.3919
 4264TIP3    H134207   3.012   2.364  16.855  0.2785 -1.8575 -1.7268
 4264TIP3    H234208   3.115   2.297  16.944  0.7379  0.5143 -0.3919
 4265TIP3   OH234209   6.699   5.879  14.896 -0.1951  0.2892  0.2074
 4265TIP3    H134210   6.658   5.816  14.836  1.8802 -0.8676 -0.0772
 4265TIP3    H234211   6.694   5.962  14.849  1.4207 -0.5913 -1.7108
 4266TIP3   OH234212   6.424   0.926   4.987 -0.2939 -0.3542 -0.9078
 4266TIP3    H134213   6.335   0.890   4.992  0.7157 -2.8569  0.5946
 4266TIP3    H234214   6.460   0.887   4.907  0.2081 -1.2697 -0.2463
 4267TIP3   OH234215   6.595   4.119   3.426 -0.6169  0.1533  0.1902
 4267TIP3    H134216   6.659   4.057   3.391 -0.4443  0.3881  0.0854
 4267TIP3    H234217   6.594   4.190   3.362  0.5542  1.1405  1.2104
 4268TIP3   OH234218   3.593   5.753   1.381 -0.5122  0.4025  0.2141
 4268TIP3    H134219   3.505   5.755   1.343 -0.6443 -1.3290  0.3375
 4268TIP3    H234220   3.580   5.727   1.472  0.1832 -1.7774 -0.2290
 4269TIP3   OH234221   2.621   6.352  10.359  0.6215  0.0498 -0.3000
 4269TIP3    H134222   2.529   6.329  10.346  0.2821  0.5645  1.0483
 4269TIP3    H234223   2.665   6.268  10.370  0.1283 -0.1579  0.1568
 4270TIP3   OH234224   1.324   3.597  11.271  0.3221  0.2946  0.4697
 4270TIP3    H134225   1.418   3.601  11.287  0.8694 -1.5184 -1.7023
 4270TIP3    H234226   1.301   3.505  11.287 -1.0371  0.6511  0.6942
 4271TIP3   OH234227   4.523   1.809  11.796 -0.3073 -0.5515 -0.6092
 4271TIP3    H134228   4.449   1.857  11.758  1.0456  1.1580 -1.1899
 4271TIP3    H234229   4.569   1.771  11.722  0.2560 -0.3113 -0.3906
 4272TIP3   OH234230   6.733   3.237  15.710 -0.0219  0.3292  0.8372
 4272TIP3    H134231   6.738   3.180  15.787 -0.8415 -0.4715  0.3088
 4272TIP3    H234232   6.825   3.258  15.691  0.4609 -2.0202  0.1835
 4273TIP3   OH234233   3.242   5.737  12.895 -0.5335  0.1138  0.2738
 4273TIP3    H134234   3.238   5.807  12.960 -1.8333  0.8476 -0.5398
 4273TIP3    H234235   3.150   5.718  12.875 -0.2071  0.5537 -1.9665
 4274TIP3   OH234236   1.593   5.461   1.337 -0.2022 -0.9508 -0.0073
 4274TIP3    H134237   1.547   5.449   1.420 -0.0681 -0.1785  0.1912
 4274TIP3    H234238   1.523   5.471   1.272 -0.3909  1.1862  0.4314
 4275TIP3   OH234239   4.626   5.138   1.828  0.1509 -0.2021 -0.1384
 4275TIP3    H134240   4.689   5.156   1.759  0.7601 -0.2648  0.3888
 4275TIP3    H234241   4.598   5.224   1.859 -0.9486 -0.1550 -1.1741
 4276TIP3   OH234242   0.487   5.307  16.491  0.4083  0.0524  0.4463
 4276TIP3    H134243   0.456   5.260  16.414  0.4774  0.3644  0.2250
 4276TIP3    H234244   0.409   5.317  16.546  0.1607  0.5952  0.0156
 4277TIP3   OH234245   1.737   4.352   0.331  0.1878  0.0278 -0.1361
 4277TIP3    H134246   1.763   4.316   0.246  0.8934 -1.3928  0.6506
 4277TIP3    H234247   1.728   4.275   0.388  0.0476  0.9740  1.1567
 4278TIP3   OH234248   1.649   2.437   2.984 -0.1609  0.4566 -0.5871
 4278TIP3    H134249   1.658   2.490   2.905  0.0257  2.5027  0.7277
 4278TIP3    H234250   1.634   2.501   3.054 -0.2028 -1.2692  1.0554
 4279TIP3   OH234251   2.637   0.560   5.621 -0.2374  0.7309  0.0716
 4279TIP3    H134252   2.687   0.517   5.690 -1.2712  0.5847  0.7472
 4279TIP3    H234253   2.649   0.654   5.636  0.1834  0.6984 -0.0433
 4280TIP3   OH234254   6.653   0.396   5.966 -0.5493 -0.1964 -0.0379
 4280TIP3    H134255   6.562   0.388   5.997 -0.1688  0.2414  1.2701
 4280TIP3    H234256   6.706   0.376   6.043  0.4615  3.2063  0.3136
 4281TIP3   OH234257   1.513   2.999  12.196  0.7403  0.2182  0.5879
 4281TIP3    H134258   1.573   3.029  12.264 -0.8779 -0.0178  2.1749
 4281TIP3    H234259   1.481   2.914  12.228 -0.2889  0.2443 -0.3106
 4282TIP3   OH234260   1.073   4.451  12.040  0.6044 -0.2877  0.0024
 4282TIP3    H134261   0.989   4.465  12.083 -0.2366 -0.9757 -1.3562
 4282TIP3    H234262   1.070   4.360  12.008  1.0129  0.2781 -1.8007
 4283TIP3   OH234263   5.804   1.872   5.465 -0.1178  0.0589  0.2620
 4283TIP3    H134264   5.748   1.946   5.442 -1.6737 -0.4908  1.9985
 4283TIP3    H234265   5.888   1.891   5.422 -0.6658  2.4750  0.0994
 4284TIP3   OH234266   6.167   5.619   2.914  0.4592 -0.3088 -0.1494
 4284TIP3    H134267   6.173   5.684   2.984 -0.7948 -1.0006  0.6519
 4284TIP3    H234268   6.074   5.596   2.911  0.7179 -1.2982 -1.1177
 4285TIP3   OH234269   2.667   0.568   6.008  0.1504  0.5464  0.2632
 4285TIP3    H134270   2.718   0.626   6.065 -0.0649  0.4782  0.5282
 4285TIP3    H234271   2.621   0.509   6.068 -1.7276  1.8017  0.1677
 4286TIP3   OH234272   4.693   2.570   3.442 -0.7558 -0.2973  0.4961
 4286TIP3    H134273   4.748   2.599   3.370 -0.8918 -0.8463  0.1604
 4286TIP3    H234274   4.614   2.535   3.399 -1.2555  0.2452  0.9547
 4287TIP3   OH234275   6.713   2.580   3.661 -0.3759  0.5141  0.2630
 4287TIP3    H134276   6.692   2.508   3.602  0.0279  1.1161 -0.6507
 4287TIP3    H234277   6.722   2.656   3.603 -1.1432  1.3765  1.2376
 4288TIP3   OH234278   5.407   5.420   1.036  0.3087  0.0516 -0.2113
 4288TIP3    H134279   5.414   5.504   1.081  0.8599 -0.2171  0.2111
 4288TIP3    H234280   5.460   5.430   0.957  0.4290  0.0731 -0.1268
 4289TIP3   OH234281   5.976   2.209   1.496 -0.2083 -0.0561  0.1613
 4289TIP3    H134282   5.907   2.274   1.483  1.4253  1.8287  0.4197
 4289TIP3    H234283   6.051   2.259   1.528  0.6110 -2.3393  2.1391
 4290TIP3   OH234284   3.202   0.483   4.592 -0.3031 -0.4555 -0.5648
 4290TIP3    H134285   3.206   0.387   4.592 -0.6008 -0.4719  0.1314
 4290TIP3    H234286   3.288   0.510   4.560  0.9775 -0.9231  2.1879
 4291TIP3   OH234287   0.400   0.514   4.913 -0.6586  0.2316 -0.3230
 4291TIP3    H134288   0.388   0.603   4.946  1.0015  0.8044 -1.1619
 4291TIP3    H234289   0.484   0.486   4.950 -1.4691 -1.2760  0.4873
 4292TIP3   OH234290   1.946   0.561   4.529  0.8793 -0.2539 -0.5569
 4292TIP3    H134291   2.011   0.566   4.458  2.6788  0.5317  1.0720
 4292TIP3    H234292   1.992   0.517   4.600 -1.0299 -1.4068  0.0498
 4293TIP3   OH234293   2.533   4.866   0.582  0.3479  0.1163  0.3046
 4293TIP3    H134294   2.525   4.865   0.486 -0.3038 -0.3197  0.3584
 4293TIP3    H234295   2.470   4.932   0.611  1.5114  1.2387  0.3663
 4294TIP3   OH234296   6.591   3.370  14.601 -0.7961  0.4025  0.4453
 4294TIP3    H134297   6.573   3.368  14.507 -0.2942  0.1361  0.3536
 4294TIP3    H234298   6.626   3.284  14.621  3.5179  1.8346 -0.0200
 4295TIP3   OH234299   5.309   1.143  14.135 -0.3273 -0.0066  0.1845
 4295TIP3    H134300   5.372   1.216  14.140  0.7644 -0.8419 -0.9148
 4295TIP3    H234301   5.347   1.075  14.190  0.3885 -0.9628 -1.4198
 4296TIP3   OH234302   5.659   6.721  15.985  0.2002  0.5115  0.2154
 4296TIP3    H134303   5.723   6.762  16.044  0.8023  0.8978 -0.6880
 4296TIP3    H234304   5.625   6.793  15.932  0.4961  0.0165 -0.6701
 4297TIP3   OH234305   4.430   3.673   0.146  0.0326  0.0476 -0.1130
 4297TIP3    H134306   4.510   3.624   0.166  1.0342  1.5477 -0.2538
 4297TIP3    H234307   4.397   3.701   0.232  1.0263  1.4543 -0.1578
 4298TIP3   OH234308   0.536   3.477   6.267 -0.4329 -0.0954 -0.7190
 4298TIP3    H134309   0.554   3.408   6.330 -0.3112  1.4629  1.0507
 4298TIP3    H234310   0.621   3.518   6.251 -0.3534 -0.8608 -2.4363
 4299TIP3   OH234311   0.794   4.880   6.631  0.1665  0.0612  0.3133
 4299TIP3    H134312   0.767   4.953   6.575  2.3914 -0.2207 -1.2643
 4299TIP3    H234313   0.775   4.802   6.579  0.3538 -0.3437  0.8415
 4300TIP3   OH234314   1.375   3.940  16.217 -0.1217  0.3675 -0.2384
 4300TIP3    H134315   1.442   3.871  16.218  1.0399  1.4386 -0.7795
 4300TIP3    H234316   1.367   3.965  16.125 -2.1420 -0.5119 -0.3515
 4301TIP3   OH234317   6.783   2.599   5.739  0.3366  0.1182  0.2131
 4301TIP3    H134318   6.768   2.633   5.828 -0.0118 -1.5352  0.8140
 4301TIP3    H234319   6.750   2.509   5.742  0.9609 -0.1873 -1.4040
 4302TIP3   OH234320   4.615   0.549  13.752  0.8092  0.1139 -0.3399
 4302TIP3    H134321   4.673   0.574  13.825  0.0142 -0.1360  0.3857
 4302TIP3    H234322   4.610   0.628  13.698  2.3590 -0.0587 -0.7805
 4303TIP3   OH234323   5.588   3.937  14.427 -0.1174  0.2669  0.1114
 4303TIP3    H134324   5.557   3.976  14.345 -0.4344  2.1235  1.0565
 4303TIP3    H234325   5.537   3.857  14.437 -0.8267  0.5677 -0.9736
 4304TIP3   OH234326   6.194   1.919   4.529  0.0602  0.1923  0.1911
 4304TIP3    H134327   6.115   1.866   4.524 -0.8941  1.6440 -0.5492
 4304TIP3    H234328   6.171   1.993   4.584  0.5005  1.2710 -1.0219
 4305TIP3   OH234329   4.182   0.361  16.324  0.1182  0.0912 -0.3725
 4305TIP3    H134330   4.236   0.431  16.288 -0.1800 -0.0518 -1.0997
 4305TIP3    H234331   4.128   0.404  16.390  1.0105  0.2652  0.2691
 4306TIP3   OH234332   0.311   0.332  15.424  0.1769  0.3870 -0.8387
 4306TIP3    H134333   0.251   0.332  15.349  0.6766  0.2266 -1.2448
 4306TIP3    H234334   0.357   0.249  15.418  0.2868  0.4143 -0.4006
 4307TIP3   OH234335   4.025   2.676  10.784 -0.4655  0.1348  0.1858
 4307TIP3    H134336   4.091   2.736  10.751 -1.0803  1.4808  1.3098
 4307TIP3    H234337   3.958   2.732  10.823 -2.1090 -1.1831 -0.5812
 4308TIP3   OH234338   3.080   4.625   1.504  0.5436  0.4930 -0.4805
 4308TIP3    H134339   3.018   4.691   1.475  0.7109  1.0458  0.3933
 4308TIP3    H234340   3.026   4.558   1.546  0.3930  0.1656 -1.1873
 4309TIP3   OH234341   3.889   0.639  16.515  0.4367 -0.4976 -0.0550
 4309TIP3    H134342   3.926   0.686  16.590 -2.0390  1.9674 -0.2040
 4309TIP3    H234343   3.894   0.701  16.443  0.5787 -1.9512 -1.3366
 4310TIP3   OH234344   5.016   5.527  16.811 -0.5644  0.3013  0.2354
 4310TIP3    H134345   5.052   5.444  16.781  2.2375  0.9383  1.5377
 4310TIP3    H234346   4.982   5.569  16.731  0.2568 -1.0177 -0.8455
 4311TIP3   OH234347   6.671   3.283   3.535  0.2925 -0.2209  0.2222
 4311TIP3    H134348   6.579   3.309   3.526 -0.1888 -1.7414  0.5221
 4311TIP3    H234349   6.717   3.365   3.554 -1.1754  0.4138  1.2178
 4312TIP3   OH234350   1.415   5.724   3.742 -0.9016  0.2609 -0.2458
 4312TIP3    H134351   1.435   5.645   3.793 -2.8952 -0.0545  0.1327
 4312TIP3    H234352   1.380   5.785   3.807  1.5560  1.9026 -0.3446
 4313TIP3   OH234353   2.230   3.060   1.810 -0.0450  0.3467 -0.2413
 4313TIP3    H134354   2.291   3.125   1.774 -0.4682  1.0583  0.3127
 4313TIP3    H234355   2.244   2.982   1.756  1.7197  0.3249  0.1767
 4314TIP3   OH234356   3.981   6.419   1.742 -0.1744 -0.0296 -0.0373
 4314TIP3    H134357   3.929   6.499   1.730 -1.5792 -0.5135  2.1994
 4314TIP3    H234358   4.011   6.424   1.833 -1.9322 -2.8795  0.8352
 4315TIP3   OH234359   1.045   2.701   4.081 -0.1352 -0.1692  0.1703
 4315TIP3    H134360   1.121   2.669   4.033  0.0548 -1.2836  1.1731
 4315TIP3    H234361   0.972   2.693   4.020  0.0065 -2.0618  0.2058
 4316TIP3   OH234362   0.240   0.647  11.762 -0.3064 -0.5166  0.2701
 4316TIP3    H134363   0.229   0.735  11.726  0.4441 -0.9280 -1.0200
 4316TIP3    H234364   0.239   0.590  11.686 -1.4803 -1.7177  1.1433
 4317TIP3   OH234365   0.434   2.104  12.580  0.3152 -0.9677  0.1047
 4317TIP3    H134366   0.445   2.117  12.674  1.4924 -1.5621  0.0719
 4317TIP3    H234367   0.518   2.133  12.543 -0.2773 -0.3615 -0.8063
 4318TIP3   OH234368   3.579   6.347   3.283 -0.2900  0.5253  0.4328
 4318TIP3    H134369   3.531   6.429   3.293  1.8714  1.7946  1.0318
 4318TIP3    H234370   3.626   6.356   3.200  0.4920  0.2091  0.8239
 4319TIP3   OH234371   5.248   0.146  14.720  0.9349  0.0687 -0.5322
 4319TIP3    H134372   5.208   0.134  14.634 -0.7869 -0.0486  0.2650
 4319TIP3    H234373   5.178   0.131  14.783  2.4425 -1.0773  0.9738
 4320TIP3   OH234374   0.996   1.211  14.554 -0.3578  0.6539  0.0663
 4320TIP3    H134375   0.921   1.215  14.494 -0.8033  0.6058  0.6017
 4320TIP3    H234376   0.970   1.146  14.619  0.2785  0.4293  0.0967
 4321TIP3   OH234377   2.863   2.931   0.870  0.4127 -0.3931  0.9039
 4321TIP3    H134378   2.890   2.888   0.789 -0.2137  0.8771 -0.0089
 4321TIP3    H234379   2.773   2.960   0.853  0.2122 -0.2495  2.1167
 4322TIP3   OH234380   6.630   2.411  13.378 -0.2019 -0.2081 -0.4273
 4322TIP3    H134381   6.609   2.398  13.470  0.3806  0.4389 -0.1940
 4322TIP3    H234382   6.576   2.347  13.332 -0.3492 -0.6777  0.3750
 4323TIP3   OH234383   5.111   0.391   2.567  0.3750 -0.7325  0.0495
 4323TIP3    H134384   5.085   0.389   2.475 -0.4615 -1.7930  0.2856
 4323TIP3    H234385   5.159   0.473   2.576 -1.3628  0.4591 -0.8640
 4324TIP3   OH234386   0.606   2.864   4.262 -0.0284 -0.4539 -0.4677
 4324TIP3    H134387   0.511   2.851   4.264  0.0736 -1.6156 -1.4340
 4324TIP3    H234388   0.621   2.919   4.185  0.1475 -1.2840 -1.0498
 4325TIP3   OH234389   3.941   1.838   3.969  0.0853  0.2964 -0.2255
 4325TIP3    H134390   4.006   1.907   3.953 -0.4605  0.6188 -1.1127
 4325TIP3    H234391   3.939   1.787   3.887 -1.0343  0.5158 -0.3536
 4326TIP3   OH234392   3.447   0.870   6.356 -0.0682 -0.2284 -0.4133
 4326TIP3    H134393   3.360   0.831   6.345 -0.2651  0.4678 -1.5452
 4326TIP3    H234394   3.429   0.962   6.378  0.3882 -0.3981  0.6942
 4327TIP3   OH234395   0.658   0.568   3.717 -0.3326  0.2986 -0.2955
 4327TIP3    H134396   0.716   0.574   3.792 -0.3987 -2.2021  0.0220
 4327TIP3    H234397   0.607   0.649   3.720 -0.8618 -0.0222  2.8113
 4328TIP3   OH234398   3.611   2.067  13.161  0.4212  0.2849  0.9264
 4328TIP3    H134399   3.532   2.100  13.119  0.0487 -1.1731  0.4151
 4328TIP3    H234400   3.586   2.052  13.252  0.0657 -0.2723  0.7421
 4329TIP3   OH234401   5.758   1.435   3.541 -0.1966 -0.2482 -0.0157
 4329TIP3    H134402   5.703   1.361   3.514  0.9503 -0.6991 -1.2254
 4329TIP3    H234403   5.715   1.512   3.503  0.2931 -0.6582 -1.4587
 4330TIP3   OH234404   0.495   0.650  16.618 -0.2573 -0.3914  0.0510
 4330TIP3    H134405   0.453   0.621  16.537 -1.5291  1.4209 -0.0069
 4330TIP3    H234406   0.533   0.571  16.655 -1.5734 -1.6640 -1.1944
 4331TIP3   OH234407   3.295   0.269  14.880  0.4157 -0.1734 -0.3122
 4331TIP3    H134408   3.209   0.310  14.870  0.5962  0.1796 -0.4423
 4331TIP3    H234409   3.277   0.175  14.877  0.3657 -0.1593 -3.4683
 4332TIP3   OH234410   5.742   4.338   6.474 -0.4337 -0.0351  0.0861
 4332TIP3    H134411   5.748   4.427   6.441 -1.8087 -0.0514 -0.2884
 4332TIP3    H234412   5.829   4.301   6.463 -0.3452  0.6207 -1.6384
 4333TIP3   OH234413   3.318   3.360   0.108 -0.5683 -0.1934  0.5213
 4333TIP3    H134414   3.312   3.332   0.199  0.6071  0.8912  0.9603
 4333TIP3    H234415   3.375   3.296   0.066  0.9745  0.6890  1.1874
 4334TIP3   OH234416   0.970   3.456   2.623  0.0839 -0.3018  0.5173
 4334TIP3    H134417   0.983   3.463   2.528 -0.7650 -2.0233  0.2383
 4334TIP3    H234418   0.894   3.511   2.641 -0.3454 -0.7331  0.0398
 4335TIP3   OH234419   2.070   2.073   3.450 -0.4854  0.2631 -0.1690
 4335TIP3    H134420   2.050   2.110   3.537 -0.9267  1.4305 -0.7434
 4335TIP3    H234421   1.985   2.056   3.411 -0.2843 -0.5249 -0.2774
 4336TIP3   OH234422   4.725   4.687   0.602 -0.1869  0.1389  0.2249
 4336TIP3    H134423   4.789   4.616   0.593 -0.7244 -0.2273 -0.8580
 4336TIP3    H234424   4.728   4.733   0.518 -2.0259 -0.4757 -0.2158
 4337TIP3   OH234425   6.579   3.391   5.802  0.3894 -0.4014 -0.6997
 4337TIP3    H134426   6.661   3.342   5.797  0.7831  0.0649  0.6926
 4337TIP3    H234427   6.546   3.373   5.890 -0.8059 -0.2580 -1.1060
 4338TIP3   OH234428   5.014   5.085  16.434 -0.0673  0.3202  0.0311
 4338TIP3    H134429   4.955   5.127  16.372  0.8035 -0.5079 -1.4298
 4338TIP3    H234430   5.094   5.068  16.383  0.9507  0.2317  1.5730
 4339TIP3   OH234431   4.062   2.297   2.539 -0.1313  0.0241 -0.2068
 4339TIP3    H134432   4.041   2.248   2.618 -1.6954 -1.6656 -1.5994
 4339TIP3    H234433   3.993   2.274   2.476  0.7134  1.7568 -1.8904
 4340TIP3   OH234434   5.239   0.443   5.365  0.0780 -0.3334 -0.6953
 4340TIP3    H134435   5.242   0.445   5.269 -0.0351  0.6104 -0.6841
 4340TIP3    H234436   5.206   0.529   5.390 -1.8453 -1.2570  0.1341
 4341TIP3   OH234437   3.529   1.201  15.745  0.1806  0.2251  0.7734
 4341TIP3    H134438   3.539   1.223  15.652 -0.1469  0.2870  0.7498
 4341TIP3    H234439   3.577   1.119  15.755  0.0386  0.1061  0.5010
 4342TIP3   OH234440   6.550   3.394   4.124 -0.6089 -0.1984 -1.1006
 4342TIP3    H134441   6.483   3.408   4.191  0.7870 -2.2284  0.8809
 4342TIP3    H234442   6.627   3.367   4.173  0.7869 -0.8575 -3.4977
 4343TIP3   OH234443   4.092   0.009  10.639  0.0888 -0.3781  0.0796
 4343TIP3    H134444   3.999   0.000  10.659 -0.0975  0.5981 -0.2833
 4343TIP3    H234445   4.101   0.099  10.605  1.8498  1.0907  3.8853
 4344TIP3   OH234446   2.734   3.246  11.346 -0.0990 -0.0366  0.2628
 4344TIP3    H134447   2.644   3.259  11.375 -0.1974 -1.0431  0.4633
 4344TIP3    H234448   2.751   3.319  11.286 -1.5106 -0.5501 -0.8298
 4345TIP3   OH234449   2.387   6.541  13.878  0.1040  0.1736  0.4865
 4345TIP3    H134450   2.330   6.616  13.860  0.9398  0.6537 -0.2398
 4345TIP3    H234451   2.442   6.570  13.950  0.0904  0.0798  0.5339
 4346TIP3   OH234452   5.592   4.537  14.055  0.2316  0.1605 -0.6218
 4346TIP3    H134453   5.517   4.547  13.996 -0.6410 -1.6317  0.0967
 4346TIP3    H234454   5.613   4.626  14.082 -0.9889  0.7932 -1.6409
 4347TIP3   OH234455   4.732   3.325   4.376  0.1145  0.0503 -0.5513
 4347TIP3    H134456   4.687   3.252   4.417  0.2516  0.4011  0.2562
 4347TIP3    H234457   4.701   3.402   4.425 -0.5345  0.6123 -1.8145
 4348TIP3   OH234458   3.415   6.780   4.092  0.2205  0.3741  0.4231
 4348TIP3    H134459   3.406   6.799   3.999  0.5712  0.9517  0.5025
 4348TIP3    H234460   3.459   6.857   4.128  1.2376 -0.3682  0.8381
 4349TIP3   OH234461   5.031   4.731  12.010  0.2663 -0.2556 -0.4923
 4349TIP3    H134462   5.061   4.640  12.013  2.1186  0.3221  1.0747
 4349TIP3    H234463   4.961   4.732  11.945  0.0752 -2.8222 -0.4083
 4350TIP3   OH234464   0.592   6.746  13.953 -0.3575  0.2386  0.2399
 4350TIP3    H134465   0.650   6.719  13.882 -0.0556  0.3108  0.4589
 4350TIP3    H234466   0.544   6.821  13.917 -0.3825  0.1187  0.0251
 4351TIP3   OH234467   2.763   2.143   4.352 -0.0293 -0.0239  0.1092
 4351TIP3    H134468   2.671   2.128   4.371  0.0174 -0.7959 -0.2508
 4351TIP3    H234469   2.803   2.156   4.439 -0.4867  0.4019  0.2585
 4352TIP3   OH234470   5.947   3.369  14.182 -0.1883 -0.0431  0.5253
 4352TIP3    H134471   6.022   3.405  14.228 -0.0229 -0.1657  0.3500
 4352TIP3    H234472   5.884   3.441  14.179  0.3071  0.3658 -0.2089
 4353TIP3   OH234473   4.000   1.278   1.269 -0.2255 -0.5616 -0.3568
 4353TIP3    H134474   3.916   1.325   1.263  0.2494  0.2849 -0.5614
 4353TIP3    H234475   4.014   1.266   1.363 -1.0850 -1.6744 -0.3489
 4354TIP3   OH234476   6.561   1.910   2.307 -0.7567  0.6733 -0.3081
 4354TIP3    H134477   6.601   1.834   2.264  0.2847  1.2427 -0.3799
 4354TIP3    H234478   6.519   1.875   2.385  1.0606  0.2204  0.5066
 4355TIP3   OH234479   5.923   3.575  10.664 -0.3820 -0.1458 -0.3146
 4355TIP3    H134480   5.991   3.631  10.702 -1.4473  0.2784  1.0199
 4355TIP3    H234481   5.945   3.573  10.570  2.1105 -0.9583  0.2077
 4356TIP3   OH234482   5.948   1.643  14.791 -0.2110 -0.0048  0.4628
 4356TIP3    H134483   6.005   1.662  14.717 -0.4259 -0.6313  0.1336
 4356TIP3    H234484   5.865   1.685  14.769 -0.3032 -0.2692  0.3058
 4357TIP3   OH234485   0.642   2.223   5.896  0.0168 -0.1352 -0.9132
 4357TIP3    H134486   0.686   2.247   5.814 -1.5258  0.8968 -1.4829
 4357TIP3    H234487   0.656   2.129   5.904  1.9890  0.0786 -1.2378
 4358TIP3   OH234488   1.067   6.476   4.012 -0.3795 -0.1869  0.0317
 4358TIP3    H134489   1.128   6.414   4.051 -0.3896  0.0233  0.3874
 4358TIP3    H234490   1.118   6.521   3.945 -0.4244 -0.7062 -0.3603
 4359TIP3   OH234491   3.321   2.363   0.864  0.0275  0.1144 -0.0916
 4359TIP3    H134492   3.322   2.409   0.948 -1.1905  0.8641 -0.4651
 4359TIP3    H234493   3.317   2.271   0.888 -1.9423  0.3629  0.7226
 4360TIP3   OH234494   4.477   1.994   1.542 -0.1803 -0.0393  0.8047
 4360TIP3    H134495   4.544   2.051   1.506 -1.2870  0.4292 -0.6141
 4360TIP3    H234496   4.443   2.042   1.618 -0.8156  1.0325 -0.1331
 4361TIP3   OH234497   0.325   4.956  11.876  0.2784  0.3167  0.2967
 4361TIP3    H134498   0.395   4.936  11.939  0.0911 -1.1774  0.0831
 4361TIP3    H234499   0.311   5.050  11.884  1.1338  0.3606  1.5730
 4362TIP3   OH234500   6.341   2.974  13.725 -0.2019  0.6669  0.5663
 4362TIP3    H134501   6.300   2.929  13.651 -2.1537  1.8980  0.8217
 4362TIP3    H234502   6.355   3.063  13.694  0.8354  0.6943  1.0548
 4363TIP3   OH234503   3.454   5.246   2.931  0.3512 -0.5414  0.6186
 4363TIP3    H134504   3.378   5.210   2.977  0.2645 -1.1109  0.0440
 4363TIP3    H234505   3.526   5.186   2.953  0.2034 -1.0865 -0.3495
 4364TIP3   OH234506   4.690   5.344  12.962 -0.5065 -0.3012  0.1870
 4364TIP3    H134507   4.619   5.380  13.015 -0.1083  0.9755 -0.1094
 4364TIP3    H234508   4.709   5.259  13.001 -0.8944  0.1798  1.4649
 4365TIP3   OH234509   0.395   5.466   3.749  0.2349 -0.3487  0.1157
 4365TIP3    H134510   0.439   5.542   3.711 -0.5018 -0.5678 -1.2202
 4365TIP3    H234511   0.460   5.396   3.742  0.5397 -0.1008  0.3956
 4366TIP3   OH234512   2.979   3.117   1.439 -0.2288  0.1573  0.1774
 4366TIP3    H134513   3.011   3.206   1.423  0.8690 -0.4669 -1.4999
 4366TIP3    H234514   3.050   3.074   1.487 -0.2775 -0.1051  0.0191
 4367TIP3   OH234515   2.427   4.933   5.979 -0.0490 -0.0598  0.0230
 4367TIP3    H134516   2.413   5.024   5.952 -0.2790  0.0130  0.3725
 4367TIP3    H234517   2.438   4.939   6.074  0.1592 -0.3732  0.0191
 4368TIP3   OH234518   4.860   2.399   1.414  0.4201  0.5931  0.2811
 4368TIP3    H134519   4.803   2.404   1.337  0.7138  0.4031  0.0494
 4368TIP3    H234520   4.903   2.484   1.418  1.6811  0.0234 -0.7586
 4369TIP3   OH234521   4.470   1.165   1.666  0.1929 -0.5014  0.3893
 4369TIP3    H134522   4.482   1.191   1.575  1.7646  0.7167  0.8870
 4369TIP3    H234523   4.389   1.114   1.667  0.6684 -1.3950 -1.8388
 4370TIP3   OH234524   6.632   2.363   1.173  0.7712  0.2993 -0.0453
 4370TIP3    H134525   6.582   2.406   1.104  0.6329  0.9839  0.4712
 4370TIP3    H234526   6.723   2.371   1.145  0.7044  0.4405 -0.2266
 4371TIP3   OH234527   0.230   1.260   4.969 -0.4711  0.2622 -0.2494
 4371TIP3    H134528   0.307   1.204   4.978 -0.8148 -0.4578 -1.4944
 4371TIP3    H234529   0.260   1.347   4.993  0.2771 -0.3107  0.9672
 4372TIP3   OH234530   4.474   5.740   4.423  0.1930  0.0373 -0.3145
 4372TIP3    H134531   4.402   5.683   4.399 -1.0430  1.9428 -1.4242
 4372TIP3    H234532   4.519   5.694   4.494 -1.6924 -1.5154 -0.0452
 4373TIP3   OH234533   4.064   0.054  16.017 -0.3829  0.6283  0.4350
 4373TIP3    H134534   4.005   0.104  15.960  0.4847  1.1963  0.0171
 4373TIP3    H234535   4.023   0.059  16.104 -0.4245  1.9048  0.3586
 4374TIP3   OH234536   4.459   3.675  14.649  0.0072 -1.0344 -0.0505
 4374TIP3    H134537   4.391   3.663  14.716  1.2631 -1.7725  1.1472
 4374TIP3    H234538   4.502   3.590  14.645  0.9977 -0.5111 -0.6364
 4375TIP3   OH234539   0.262   6.058   4.835 -0.1417 -0.1450 -0.2475
 4375TIP3    H134540   0.170   6.066   4.858  0.1646  1.0719  0.6434
 4375TIP3    H234541   0.274   6.117   4.761  0.3717  1.5419  1.1037
 4376TIP3   OH234542   1.879   1.445  11.285 -0.0039 -0.0685  1.0044
 4376TIP3    H134543   1.915   1.359  11.263  0.8960  0.3858  0.6564
 4376TIP3    H234544   1.784   1.431  11.290  0.0862 -0.9615  0.3852
 4377TIP3   OH234545   5.581   5.573   4.647 -0.6195 -0.1045  0.0614
 4377TIP3    H134546   5.498   5.540   4.612  0.4119 -1.5776 -1.1369
 4377TIP3    H234547   5.631   5.494   4.667 -0.0293  0.7395  2.1947
 4378TIP3   OH234548   5.143   4.552   3.278 -0.6217 -0.2402 -0.6072
 4378TIP3    H134549   5.183   4.597   3.353 -1.3528  0.5555 -0.6784
 4378TIP3    H234550   5.144   4.459   3.303 -1.1117  0.0308  0.5389
 4379TIP3   OH234551   5.206   6.412   4.452  0.1890 -0.1332  0.3878
 4379TIP3    H134552   5.195   6.467   4.530 -0.5385  0.6136 -0.2173
 4379TIP3    H234553   5.294   6.376   4.460  0.2117  0.1142  1.4366
 4380TIP3   OH234554   3.141   2.503   4.159 -0.4457  0.1393 -0.1004
 4380TIP3    H134555   3.162   2.409   4.158  1.3029  0.3692 -4.2180
 4380TIP3    H234556   3.047   2.506   4.140 -0.2876 -0.8412 -1.2024
 4381TIP3   OH234557   3.043   4.738  15.874 -0.1478  0.0281 -0.4909
 4381TIP3    H134558   3.045   4.686  15.794  2.0540 -1.7797  0.6435
 4381TIP3    H234559   3.074   4.679  15.942 -0.1507  2.0662  1.3935
 4382TIP3   OH234560   2.200   0.230   5.225  0.4192 -0.5706  0.2237
 4382TIP3    H134561   2.189   0.214   5.318 -1.2147  1.6226  0.4939
 4382TIP3    H234562   2.135   0.297   5.204  1.4852 -0.1895 -2.2733
 4383TIP3   OH234563   5.273   2.740  10.392 -0.2052  0.0509 -0.3500
 4383TIP3    H134564   5.337   2.766  10.327 -0.4118 -0.3039 -0.7054
 4383TIP3    H234565   5.206   2.808  10.390  0.6347  0.9542  0.7342
 4384TIP3   OH234566   4.696   2.086  16.712 -0.0600 -0.2678 -0.2179
 4384TIP3    H134567   4.696   2.172  16.755 -1.6367  0.5531 -1.7293
 4384TIP3    H234568   4.603   2.060  16.711  0.3124 -1.6866 -0.3894
 4385TIP3   OH234569   4.315   3.238   2.102 -0.3099  0.1945 -0.3614
 4385TIP3    H134570   4.351   3.197   2.181  0.6844 -1.6639 -1.6857
 4385TIP3    H234571   4.221   3.218   2.106 -0.5066  1.2048  0.9149
 4386TIP3   OH234572   5.513   3.767   2.285 -0.0286  0.0764 -0.5388
 4386TIP3    H134573   5.516   3.842   2.226  0.1405  0.6416  0.1824
 4386TIP3    H234574   5.419   3.755   2.303  0.0333  1.4237  0.9614
 4387TIP3   OH234575   3.918   0.634  13.989  0.8761 -0.6777 -0.4512
 4387TIP3    H134576   3.937   0.544  13.964 -1.0890 -2.1336  2.6921
 4387TIP3    H234577   3.964   0.647  14.071 -0.6890  0.3431  0.3222
 4388TIP3   OH234578   0.144   5.947  15.254 -0.4684 -0.2615  0.1901
 4388TIP3    H134579   0.236   5.931  15.274  0.2510  2.3975 -0.5158
 4388TIP3    H234580   0.098   5.932  15.336  1.0363  1.1756  1.3482
 4389TIP3   OH234581   3.476   4.464  15.572  0.5612 -0.0459 -0.1367
 4389TIP3    H134582   3.530   4.472  15.494 -1.0500  0.9405 -1.2292
 4389TIP3    H234583   3.538   4.468  15.645  1.9559  0.9869 -1.3114
 4390TIP3   OH234584   1.637   4.656  15.633  0.5996  0.2836  0.2082
 4390TIP3    H134585   1.543   4.639  15.639  0.7947 -1.6538 -1.2766
 4390TIP3    H234586   1.648   4.742  15.673 -1.3502 -0.6985  3.1748
 4391TIP3   OH234587   0.086   2.894   0.975  0.0664 -0.0754 -0.1455
 4391TIP3    H134588   0.059   2.905   1.066  2.3080  0.3195  0.5468
 4391TIP3    H234589   0.168   2.943   0.968  0.2937 -0.6285 -2.2176
 4392TIP3   OH234590   4.839   1.411   5.060 -0.4037  0.0327  0.3785
 4392TIP3    H134591   4.754   1.423   5.104 -0.9043 -1.4016 -0.1500
 4392TIP3    H234592   4.838   1.320   5.031  1.3811 -0.0311  0.4494
 4393TIP3   OH234593   3.696   5.346  17.018  0.4577 -0.1349  0.2949
 4393TIP3    H134594   3.739   5.267  17.051  1.8767  0.5352  0.1368
 4393TIP3    H234595   3.767   5.411  17.013 -0.6601  1.1288  0.3781
 4394TIP3   OH234596   1.879   5.709  12.750  0.8142  0.6946 -0.0489
 4394TIP3    H134597   1.794   5.742  12.778  0.3739  0.0585 -0.5970
 4394TIP3    H234598   1.900   5.759  12.671 -0.1061 -0.6304 -1.1951
 4395TIP3   OH234599   0.879   6.594  12.926  0.1203 -0.6983  0.1697
 4395TIP3    H134600   0.841   6.602  12.839  1.2892 -3.3492 -0.6896
 4395TIP3    H234601   0.809   6.555  12.979 -1.1262  2.3167  0.9450
 4396TIP3   OH234602   3.362   0.687  12.964  0.4799  0.4286 -0.1673
 4396TIP3    H134603   3.275   0.685  13.005  0.6796 -1.7362  0.2160
 4396TIP3    H234604   3.348   0.738  12.884 -1.2746 -0.2849 -0.3579
 4397TIP3   OH234605   3.839   5.099   1.486 -0.7812 -0.7197  0.2300
 4397TIP3    H134606   3.906   5.113   1.419 -1.1482  1.4240  0.2202
 4397TIP3    H234607   3.768   5.053   1.440 -0.3860 -0.6852 -0.4333
 4398TIP3   OH234608   1.292   5.850   4.262  0.1303  0.6281 -0.1109
 4398TIP3    H134609   1.386   5.860   4.276  0.1672  0.4634 -0.2450
 4398TIP3    H234610   1.258   5.940   4.266  0.6929  1.0400 -3.0017
 4399TIP3   OH234611   5.549   0.960  12.176 -0.4900  0.2073 -0.0951
 4399TIP3    H134612   5.611   0.898  12.215  0.4603  1.0284 -0.2496
 4399TIP3    H234613   5.589   1.046  12.190 -1.6261  0.7699 -0.1664
 4400TIP3   OH234614   5.079   0.096   4.957 -0.1862  0.0492  0.0794
 4400TIP3    H134615   5.170   0.088   4.987 -0.0296  2.0315  0.3133
 4400TIP3    H234616   5.085   0.089   4.861  0.3866  1.1522  0.0130
 4401TIP3   OH234617   1.776   6.697  14.003  0.2985 -0.1906 -0.1632
 4401TIP3    H134618   1.811   6.783  14.028  0.5723  0.2267 -1.8700
 4401TIP3    H234619   1.854   6.643  13.990  0.1071 -1.0769  2.0240
 4402TIP3   OH234620   5.023   3.804   4.448  0.3433 -0.0015  0.2530
 4402TIP3    H134621   5.092   3.780   4.510 -1.8198 -2.9958  1.8037
 4402TIP3    H234622   4.989   3.720   4.417 -1.6860  1.3569 -1.5211
 4403TIP3   OH234623   4.000   3.653   2.081 -0.3988  0.7628  0.1432
 4403TIP3    H134624   3.913   3.684   2.104 -1.1159  0.1655 -1.5665
 4403TIP3    H234625   3.994   3.557   2.087 -0.3395  0.6384 -1.4242
 4404TIP3   OH234626   3.674   6.302  14.478 -0.4686 -0.1339  0.1873
 4404TIP3    H134627   3.598   6.253  14.507  0.4512 -2.9833 -1.6866
 4404TIP3    H234628   3.749   6.257  14.518  0.3517  1.2071  0.2352
 4405TIP3   OH234629   6.402   0.541  11.148  0.3005 -0.0450 -0.2540
 4405TIP3    H134630   6.453   0.550  11.068 -0.2539 -0.7418 -0.7025
 4405TIP3    H234631   6.327   0.599  11.135  0.1200 -0.2913 -0.3150
 4406TIP3   OH234632   6.409   1.262   0.157 -0.1207 -0.2451  0.0113
 4406TIP3    H134633   6.443   1.255   0.246  1.5391 -0.4192 -0.6102
 4406TIP3    H234634   6.394   1.356   0.145 -1.1427 -0.3016  0.7359
 4407TIP3   OH234635   0.890   6.162   3.071  0.1123  0.0237 -0.6097
 4407TIP3    H134636   0.870   6.252   3.045 -1.2266 -0.2435 -0.5902
 4407TIP3    H234637   0.820   6.110   3.032  0.0274 -0.8220  0.6091
 4408TIP3   OH234638   4.326   4.703  12.953 -0.6444 -0.1061 -0.0312
 4408TIP3    H134639   4.316   4.612  12.926 -1.5330 -0.4651  1.4164
 4408TIP3    H234640   4.270   4.753  12.893  1.0148 -0.2855 -1.8134
 4409TIP3   OH234641   5.378   6.122   5.351  0.2317  0.0804 -0.7971
 4409TIP3    H134642   5.402   6.052   5.412 -0.1863 -1.2158 -2.0710
 4409TIP3    H234643   5.398   6.086   5.264 -1.5658  0.8799 -1.5853
 4410TIP3   OH234644   0.087   1.975  13.964  0.2118 -0.0055  0.8633
 4410TIP3    H134645   0.142   1.999  13.889  0.5265  0.3225  1.1928
 4410TIP3    H234646   0.003   1.952  13.926 -0.0704  1.4938  0.5067
 4411TIP3   OH234647   5.866   0.783  14.365 -0.0252  0.5250  0.0443
 4411TIP3    H134648   5.836   0.695  14.386  1.0306 -0.1413 -1.0267
 4411TIP3    H234649   5.962   0.776  14.364  0.0572  1.0963 -2.2330
 4412TIP3   OH234650   1.961   0.913   2.220 -0.0102  0.1271  0.2819
 4412TIP3    H134651   1.881   0.868   2.248 -0.5219  0.6044 -0.3759
 4412TIP3    H234652   2.031   0.852   2.240 -0.4113  0.1834  2.0000
 4413TIP3   OH234653   1.073   0.924  15.357  0.1963  0.2285  0.0172
 4413TIP3    H134654   1.058   0.960  15.444  2.2809 -1.0757  0.9975
 4413TIP3    H234655   1.136   0.983  15.316  0.3197  0.0565 -0.0441
 4414TIP3   OH234656   3.597   3.128  15.523 -0.3801 -0.0868  0.2859
 4414TIP3    H134657   3.646   3.181  15.460 -2.4372 -0.0105 -1.3829
 4414TIP3    H234658   3.622   3.038  15.503  1.6286  0.0612  1.8083
 4415TIP3   OH234659   4.662   4.230  14.845 -0.1416 -0.3924  0.2344
 4415TIP3    H134660   4.650   4.273  14.930  0.4629  0.9327 -0.3254
 4415TIP3    H234661   4.756   4.230  14.831 -0.1255 -1.9914  0.2344
 4416TIP3   OH234662   6.133   3.146   1.426 -0.2060  0.7881 -0.0577
 4416TIP3    H134663   6.212   3.156   1.479 -0.3359  2.2752 -0.0938
 4416TIP3    H234664   6.126   3.052   1.409  1.1306  0.5618  0.5806
 4417TIP3   OH234665   4.289   1.887  15.057 -0.3400  0.3534  0.1442
 4417TIP3    H134666   4.371   1.853  15.022 -2.3530 -2.9975 -1.7948
 4417TIP3    H234667   4.244   1.924  14.981 -2.1071 -1.1870  0.3818
 4418TIP3   OH234668   3.916   0.429   2.576  0.1048 -0.4833 -0.0179
 4418TIP3    H134669   3.850   0.416   2.644  0.1554  1.3831  0.4576
 4418TIP3    H234670   3.992   0.380   2.606 -0.5775 -1.4439  0.1768
 4419TIP3   OH234671   3.085   2.455   6.675  0.3182 -0.5275 -0.0333
 4419TIP3    H134672   2.990   2.439   6.678 -0.1713  1.9131 -0.5852
 4419TIP3    H234673   3.124   2.372   6.705 -1.9383 -1.8304 -0.4497
 4420TIP3   OH234674   0.349   4.127   0.608  0.5051  0.5280  0.0047
 4420TIP3    H134675   0.294   4.202   0.631 -0.2387 -0.3539  1.1760
 4420TIP3    H234676   0.394   4.155   0.528 -0.2675  1.9567  0.0274
 4421TIP3   OH234677   1.969   4.825  14.224 -0.0471 -0.0045 -0.0965
 4421TIP3    H134678   1.893   4.880  14.205  0.1985  0.4896  0.3258
 4421TIP3    H234679   1.959   4.800  14.316  0.1088 -0.2514 -0.1441
 4422TIP3   OH234680   0.277   0.029  14.035 -0.0010  0.2465  0.1273
 4422TIP3    H134681   0.216   0.001  13.966  1.4522  1.0209 -1.5724
 4422TIP3    H234682   0.354   0.061  13.987  2.2058 -1.6038  2.1477
 4423TIP3   OH234683   1.098   5.729  12.574 -0.4092 -0.2098  0.5023
 4423TIP3    H134684   1.082   5.696  12.663  0.3294 -0.8826  0.3912
 4423TIP3    H234685   1.191   5.749  12.572 -0.2457 -0.9641 -0.3566
 4424TIP3   OH234686   3.109   1.915  13.803  0.1716 -0.5680  0.2183
 4424TIP3    H134687   3.154   1.966  13.736 -0.8453  3.6247  2.3940
 4424TIP3    H234688   3.032   1.880  13.759  0.8665 -0.1546 -1.3880
 4425TIP3   OH234689   4.984   4.603   5.953  0.5982  0.1982  0.1283
 4425TIP3    H134690   4.903   4.575   5.996 -0.0763  1.2496 -0.4274
 4425TIP3    H234691   5.025   4.521   5.924 -0.3951 -0.3328  0.1742
 4426TIP3   OH234692   0.152   4.932  15.862 -0.0213 -0.3000  0.3512
 4426TIP3    H134693   0.156   4.960  15.953 -1.0813 -0.0376  0.3401
 4426TIP3    H234694   0.241   4.943  15.828  0.2025  0.3386  1.1398
 4427TIP3   OH234695   5.883   3.404  13.644 -0.5619  0.3310 -0.2414
 4427TIP3    H134696   5.953   3.464  13.620 -1.7175  2.1983  0.7923
 4427TIP3    H234697   5.917   3.357  13.720  0.2104 -0.0674 -0.8201
 4428TIP3   OH234698   5.679   6.045   2.407  0.3525  0.3084  0.5011
 4428TIP3    H134699   5.729   6.092   2.341 -1.1179  0.0742 -0.8334
 4428TIP3    H234700   5.657   5.961   2.365 -2.5475  1.0485  0.3405
 4429TIP3   OH234701   1.150   0.384   3.661 -0.2104  0.2224  0.2204
 4429TIP3    H134702   1.080   0.434   3.703  1.0498  0.4652  2.1452
 4429TIP3    H234703   1.159   0.305   3.714  1.6215  0.6628  0.6416
 4430TIP3   OH234704   6.453   0.478   0.178  0.1346  0.1182  0.0407
 4430TIP3    H134705   6.448   0.394   0.223  0.5499 -0.3882 -0.8344
 4430TIP3    H234706   6.400   0.466   0.099 -2.0561  1.5414  1.1830
 4431TIP3   OH234707   4.554   5.499   5.393 -0.0686 -0.8359  0.1687
 4431TIP3    H134708   4.549   5.415   5.439  1.8656 -1.1117 -0.0357
 4431TIP3    H234709   4.622   5.486   5.327 -0.0358  0.7557 -0.1529
 4432TIP3   OH234710   3.340   2.814  14.428 -0.1045  0.1364 -0.0622
 4432TIP3    H134711   3.422   2.782  14.390 -0.4497 -0.6075 -0.2086
 4432TIP3    H234712   3.317   2.749  14.495 -0.7668  0.1220 -0.2876
 4433TIP3   OH234713   3.610   3.351  10.446  0.3538  0.0126 -0.1376
 4433TIP3    H134714   3.571   3.310  10.523  0.7068 -0.3225 -0.1321
 4433TIP3    H234715   3.571   3.438  10.443  0.7277  0.2163  0.7226
 4434TIP3   OH234716   5.495   0.590  12.443 -0.2931 -0.0647  0.1454
 4434TIP3    H134717   5.444   0.667  12.468 -0.0423  0.0722  0.2348
 4434TIP3    H234718   5.586   0.621  12.439 -0.1082 -0.4916  0.7984
 4435TIP3   OH234719   2.744   3.301   4.187 -0.2984  0.8666  0.0379
 4435TIP3    H134720   2.828   3.329   4.152 -1.1099  0.2331 -2.6833
 4435TIP3    H234721   2.732   3.212   4.155 -0.1754 -0.7878  4.0117
 4436TIP3   OH234722   1.185   5.040  12.275  0.3015  0.0664 -0.2977
 4436TIP3    H134723   1.233   5.082  12.346 -0.1332 -0.3159  0.2286
 4436TIP3    H234724   1.144   4.963  12.315  1.5414 -1.2131 -1.3384
 4437TIP3   OH234725   6.218   1.013  16.970 -0.3798 -0.1084  0.1389
 4437TIP3    H134726   6.293   0.959  16.996 -1.0541  0.3520  3.5633
 4437TIP3    H234727   6.151   0.950  16.944  0.1364 -0.6837  0.1746
 4438TIP3   OH234728   0.151   1.298  11.807 -0.2235 -0.6633 -0.4417
 4438TIP3    H134729   0.119   1.214  11.837  0.1736 -0.3602  0.8889
 4438TIP3    H234730   0.175   1.284  11.715  0.5411 -2.1854 -0.0244
 4439TIP3   OH234731   0.519   0.586   1.046 -0.4212 -0.3301  0.0742
 4439TIP3    H134732   0.611   0.602   1.069 -0.4244 -0.2394  0.0253
 4439TIP3    H234733   0.498   0.656   0.984 -1.2843  1.2427  2.0242
 4440TIP3   OH234734   3.972   3.974  14.094  0.5484  0.2755 -0.4912
 4440TIP3    H134735   3.898   3.949  14.038 -0.4263  2.3281 -0.2452
 4440TIP3    H234736   4.045   3.921  14.063 -1.0990 -2.2250 -0.4131
 4441TIP3   OH234737   1.185   0.251  11.497  0.0877  0.1065 -0.0212
 4441TIP3    H134738   1.272   0.247  11.536 -0.0046  0.8177  0.2595
 4441TIP3    H234739   1.160   0.343  11.501 -0.3366  0.0430 -0.8557
 4442TIP3   OH234740   1.935   5.847   2.872  0.8212  0.3052 -0.6504
 4442TIP3    H134741   1.929   5.772   2.931 -0.3644  0.6833 -0.2473
 4442TIP3    H234742   1.961   5.809   2.788 -0.2262 -0.6519 -0.5792
 4443TIP3   OH234743   5.280   1.060  10.997 -0.2337  0.3683  0.0544
 4443TIP3    H134744   5.197   1.024  10.963 -0.4794  0.9678  0.0191
 4443TIP3    H234745   5.261   1.083  11.087  0.4061 -1.1703  0.6208
 4444TIP3   OH234746   2.659   0.038  16.683 -0.8462 -0.0110  0.6123
 4444TIP3    H134747   2.625   0.053  16.772 -1.7195  0.4111  0.2247
 4444TIP3    H234748   2.675   0.126  16.649  2.2329 -0.1941  1.3342
 4445TIP3   OH234749   5.231   2.868   2.194  0.5943 -0.1851 -0.6100
 4445TIP3    H134750   5.195   2.955   2.209 -1.2076 -0.9884  0.0287
 4445TIP3    H234751   5.294   2.855   2.265 -0.9759 -0.3318  0.8275
 4446TIP3   OH234752   2.596   2.611  16.505  0.4004 -0.0166 -0.4030
 4446TIP3    H134753   2.504   2.638  16.502  0.0036 -1.1469  0.5097
 4446TIP3    H234754   2.637   2.675  16.564  0.1239  0.3039 -0.5530
 4447TIP3   OH234755   0.209   5.267  11.853  0.5073  0.2254 -0.1668
 4447TIP3    H134756   0.140   5.323  11.887  0.7076  1.0298 -1.0333
 4447TIP3    H234757   0.263   5.325  11.799  1.4448 -0.5352 -0.0859
 4448TIP3   OH234758   5.603   6.308  14.403  0.8375 -0.0684 -0.4877
 4448TIP3    H134759   5.529   6.251  14.424  1.1458 -1.1777 -2.1664
 4448TIP3    H234760   5.679   6.250  14.405  1.1488  0.2218 -2.2848
 4449TIP3   OH234761   6.135   0.803   0.204 -0.6545  0.3614  0.1025
 4449TIP3    H134762   6.124   0.813   0.298  1.1365 -0.2520  0.4217
 4449TIP3    H234763   6.074   0.867   0.166 -1.5876  0.4426  1.6499
 4450TIP3   OH234764   0.037   2.809   5.387 -0.0584 -0.0729  0.4807
 4450TIP3    H134765  -0.025   2.870   5.346  0.2675 -0.4182 -0.5637
 4450TIP3    H234766  -0.004   2.723   5.378  0.4057 -0.2587  0.0810
 4451TIP3   OH234767   5.242   2.845  16.655  0.6101  0.2860 -0.5311
 4451TIP3    H134768   5.296   2.923  16.660  2.1123 -0.6937 -0.8691
 4451TIP3    H234769   5.232   2.829  16.561 -0.3217  0.4740 -0.4746
 4452TIP3   OH234770   6.335   4.732   1.747  0.1780 -0.4479 -0.1090
 4452TIP3    H134771   6.422   4.742   1.785 -0.7745  1.3008  1.7859
 4452TIP3    H234772   6.303   4.649   1.781  1.7158 -2.1025 -2.3381
 4453TIP3   OH234773   4.538   2.461  15.683 -0.5203  0.1350  0.0612
 4453TIP3    H134774   4.537   2.551  15.651 -1.8820  0.1347  0.0812
 4453TIP3    H234775   4.584   2.466  15.767 -1.3136  0.9495  0.4517
 4454TIP3   OH234776   5.804   3.610  11.271 -0.1988 -0.3457  0.2723
 4454TIP3    H134777   5.830   3.659  11.192 -3.0790 -0.2132 -0.7224
 4454TIP3    H234778   5.713   3.637  11.287  0.0529 -0.9566  3.2336
 4455TIP3   OH234779   3.644   4.552   0.516 -0.7928  0.1281 -0.4764
 4455TIP3    H134780   3.729   4.550   0.474 -1.2734 -0.1452 -1.4632
 4455TIP3    H234781   3.650   4.623   0.580 -0.7198  2.0720 -2.5032
 4456TIP3   OH234782   4.054   2.150   3.434 -0.0444 -0.2913  0.3571
 4456TIP3    H134783   4.041   2.155   3.529 -1.4394 -1.2013  0.2458
 4456TIP3    H234784   4.099   2.067   3.421 -0.2468 -0.3765  0.1966
 4457TIP3   OH234785   2.194   6.406   3.103 -0.0813 -0.2795 -0.1137
 4457TIP3    H134786   2.100   6.386   3.105 -0.3670  0.7777 -1.5543
 4457TIP3    H234787   2.201   6.487   3.052  1.6616 -0.6161 -0.4924
 4458TIP3   OH234788   5.663   1.962  14.759 -0.7233  0.1315  0.1772
 4458TIP3    H134789   5.638   1.980  14.668 -1.0553 -4.0138 -0.7969
 4458TIP3    H234790   5.758   1.956  14.756 -0.7366 -0.0521  0.0686
 4459TIP3   OH234791   0.260   4.838  17.168  0.0477  0.1115  0.2239
 4459TIP3    H134792   0.355   4.831  17.166 -0.0210 -0.6713 -0.8939
 4459TIP3    H234793   0.243   4.933  17.171  0.8519  0.2352  1.5695
 4460TIP3   OH234794   5.399   0.347  11.341  0.0682  0.2681 -0.2049
 4460TIP3    H134795   5.406   0.263  11.387  0.5396  1.3425  1.8118
 4460TIP3    H234796   5.395   0.323  11.249 -3.3877 -2.1709  0.3579
 4461TIP3   OH234797   3.540   4.711  11.622  0.4157  0.7164  0.3110
 4461TIP3    H134798   3.479   4.673  11.685  0.8191  0.8536  0.7825
 4461TIP3    H234799   3.483   4.755  11.558  0.0248  0.9033  0.7832
 4462TIP3   OH234800   5.089   1.441   6.088  0.0555 -0.0454  0.2650
 4462TIP3    H134801   5.119   1.484   6.168 -0.7357  2.0350 -0.4617
 4462TIP3    H234802   5.131   1.355   6.088  1.7054  0.7104  1.8712
 4463TIP3   OH234803   1.549   5.953   2.865  0.1431 -0.6060  0.5087
 4463TIP3    H134804   1.614   5.964   2.934  0.0481 -1.5433  0.7581
 4463TIP3    H234805   1.465   5.947   2.911  0.1452 -1.9063  0.3810
 4464TIP3   OH234806   1.027   0.129   2.624 -0.5830  0.4574  0.7061
 4464TIP3    H134807   1.016   0.198   2.559  0.7682  0.7990  0.8092
 4464TIP3    H234808   1.023   0.175   2.708  3.5614  1.0975  0.7847
 4465TIP3   OH234809   6.770   5.079  14.299 -0.4342 -0.0596 -0.1408
 4465TIP3    H134810   6.816   5.064  14.216  0.1049  1.3792 -0.1363
 4465TIP3    H234811   6.717   5.158  14.283 -1.8651 -0.8848  0.2909
 4466TIP3   OH234812   6.739   0.454  12.094 -0.3764  0.1014 -0.3928
 4466TIP3    H134813   6.666   0.392  12.086 -0.7491  0.5904 -0.8266
 4466TIP3    H234814   6.748   0.492  12.007 -0.5687  1.1227  0.0232
 4467TIP3   OH234815   5.798   2.465  13.042 -0.2188  0.5762 -0.6095
 4467TIP3    H134816   5.887   2.477  13.010  1.1681 -1.1729  2.1441
 4467TIP3    H234817   5.775   2.375  13.017 -1.4299  1.1233 -1.6184
 4468TIP3   OH234818   4.144   1.827   5.212  0.1166  0.3991  0.0824
 4468TIP3    H134819   4.167   1.897   5.150  1.0482 -0.6242 -0.7753
 4468TIP3    H234820   4.073   1.864   5.265 -0.4486  1.4525 -1.3471
 4469TIP3   OH234821   1.020   4.118  13.637  0.3715 -0.3186  0.3338
 4469TIP3    H134822   1.103   4.144  13.599 -0.0203 -0.8118 -0.8993
 4469TIP3    H234823   1.016   4.023  13.625  0.2527 -0.5162  1.6769
 4470TIP3   OH234824   1.458   6.414   4.770 -0.0329 -0.2336  0.0390
 4470TIP3    H134825   1.439   6.490   4.826 -0.3774 -0.2404 -0.0644
 4470TIP3    H234826   1.426   6.339   4.820 -0.7710 -0.1937 -0.3674
 4471TIP3   OH234827   0.752   0.981   5.203 -0.4301  0.0046  0.4342
 4471TIP3    H134828   0.822   0.998   5.266  0.9302 -1.5370 -0.5996
 4471TIP3    H234829   0.754   1.056   5.143  0.8514 -0.3747 -0.0170
 4472TIP3   OH234830   0.135   4.545  16.482 -0.1177 -0.3637  0.2790
 4472TIP3    H134831   0.112   4.600  16.557  0.4105  0.8748 -0.4396
 4472TIP3    H234832   0.204   4.488  16.515 -2.0891 -2.1148  1.6319
 4473TIP3   OH234833   3.205   0.538  14.461  0.8553  0.1720  0.0674
 4473TIP3    H134834   3.210   0.531  14.557  0.9957 -2.5437 -0.0516
 4473TIP3    H234835   3.292   0.511  14.431  0.2231 -0.9067 -0.8542
 4474TIP3   OH234836   2.005   0.120  16.047  0.1367 -0.4262  0.1533
 4474TIP3    H134837   1.942   0.114  15.975 -0.0104  0.0584  0.2349
 4474TIP3    H234838   1.965   0.184  16.108  1.0591  0.4703 -0.1537
 4475TIP3   OH234839   2.576   2.711   5.118 -0.3211  0.2846 -0.0442
 4475TIP3    H134840   2.667   2.708   5.089 -0.9978 -1.1104 -2.2838
 4475TIP3    H234841   2.529   2.756   5.048 -1.5026  0.1086  0.6019
 4476TIP3   OH234842   3.324   2.462   0.303 -0.2532  0.0300 -0.3770
 4476TIP3    H134843   3.237   2.442   0.337 -0.3010  0.1230 -0.4423
 4476TIP3    H234844   3.365   2.377   0.288 -1.6391 -0.1777 -3.7761
 4477TIP3   OH234845   3.599   1.405  14.297  0.0018  0.0257  0.1287
 4477TIP3    H134846   3.606   1.430  14.205 -0.0484 -0.9403 -0.1499
 4477TIP3    H234847   3.564   1.317  14.295 -1.0416  0.3988  1.1251
 4478TIP3   OH234848   4.006   5.895   0.117 -0.0065  0.1101 -0.0026
 4478TIP3    H134849   3.942   5.859   0.177  0.7156 -0.2610  0.5631
 4478TIP3    H234850   3.987   5.853   0.033 -1.8889  1.6589 -0.4015
 4479TIP3   OH234851   2.891   5.483  15.812 -0.0367 -0.1809  0.4798
 4479TIP3    H134852   2.923   5.398  15.842  0.2445  0.7293  3.0592
 4479TIP3    H234853   2.964   5.519  15.762 -0.4792 -1.7471 -1.4107
 4480TIP3   OH234854   1.910   6.769  15.816 -0.0587 -0.4187  0.6577
 4480TIP3    H134855   1.937   6.834  15.751  1.2918  0.8836  2.4198
 4480TIP3    H234856   1.979   6.702  15.813 -0.1086 -0.4698  0.6318
 4481TIP3   OH234857   5.001   5.693  16.601  0.6868  0.5750 -0.3845
 4481TIP3    H134858   4.940   5.638  16.551 -0.7629  0.7461  1.1117
 4481TIP3    H234859   4.963   5.781  16.596  0.7617  0.6752  0.6201
 4482TIP3   OH234860   0.788   1.673  13.899  0.2761 -0.3747  0.4303
 4482TIP3    H134861   0.797   1.719  13.983 -1.0147 -0.9415  0.9109
 4482TIP3    H234862   0.725   1.725  13.849  0.9029 -0.1398 -0.1216
 4483TIP3   OH234863   2.506   1.993  12.594 -0.0009  0.8128 -0.2008
 4483TIP3    H134864   2.583   2.020  12.642  0.0655  0.1561  0.0803
 4483TIP3    H234865   2.538   1.971  12.507 -0.3655  3.5846 -1.1219
 4484TIP3   OH234866   4.695   1.006   4.989  0.2145 -0.0327  0.3516
 4484TIP3    H134867   4.662   0.923   4.954  0.6524  0.3213 -0.9471
 4484TIP3    H234868   4.749   0.981   5.063  1.9085 -1.0922 -1.1709
 4485TIP3   OH234869   3.754   0.693  11.743  0.2118 -0.2227  0.0540
 4485TIP3    H134870   3.837   0.677  11.788  0.5810  0.9914 -0.1557
 4485TIP3    H234871   3.715   0.606  11.733  0.8255 -0.6734  1.3518
 4486TIP3   OH234872   5.415   2.984  11.252  0.5158  0.0166  0.3004
 4486TIP3    H134873   5.354   3.045  11.293  1.8246  1.0470  0.8155
 4486TIP3    H234874   5.494   2.989  11.307  1.2084 -0.9581 -0.5595
 4487TIP3   OH234875   3.483   4.959  16.752 -0.4990 -0.1456  0.0197
 4487TIP3    H134876   3.550   5.015  16.714  0.1967  0.1772  1.6434
 4487TIP3    H234877   3.531   4.891  16.798 -1.3288 -1.6203 -1.2021
 4488TIP3   OH234878   1.049   1.782  16.436  0.3264 -0.7183 -0.1536
 4488TIP3    H134879   1.011   1.707  16.482  0.7855 -1.4901 -0.9980
 4488TIP3    H234880   0.975   1.820  16.389 -0.0947 -0.0688  1.0001
 4489TIP3   OH234881   6.329   2.710   1.372 -0.1761  0.1261  0.2483
 4489TIP3    H134882   6.384   2.675   1.442 -0.8077 -1.4771 -0.0089
 4489TIP3    H234883   6.389   2.720   1.298 -0.0218 -0.7378  0.2402
 4490TIP3   OH234884   0.075   5.335   2.511 -0.1325 -0.1910  0.2425
 4490TIP3    H134885   0.085   5.345   2.417  0.4142  1.3921  0.4375
 4490TIP3    H234886   0.075   5.424   2.545 -1.2026 -0.6838  1.6658
 4491TIP3   OH234887   1.022   3.838   6.113  0.4175 -0.4671  0.1476
 4491TIP3    H134888   1.088   3.907   6.103  0.0919 -0.2420 -0.4636
 4491TIP3    H234889   0.939   3.885   6.122  0.0941 -0.7811 -1.0516
 4492TIP3   OH234890   4.143   4.239   3.004  0.4005  0.0351 -0.4299
 4492TIP3    H134891   4.211   4.246   2.937 -0.9454  0.9903 -1.7913
 4492TIP3    H234892   4.188   4.209   3.082  2.0916 -0.9273 -1.7146
 4493TIP3   OH234893   2.738   1.518   6.567 -0.8873  0.1372 -0.2056
 4493TIP3    H134894   2.739   1.483   6.656 -2.2542 -0.8889 -0.5660
 4493TIP3    H234895   2.813   1.475   6.524  0.3756  1.3692  0.6694
 4494TIP3   OH234896   6.624   0.128   1.252  0.4323 -0.3999  0.1866
 4494TIP3    H134897   6.631   0.222   1.235  1.2648 -0.0193  2.2711
 4494TIP3    H234898   6.538   0.116   1.291  0.9987 -0.1449  1.5990
 4495TIP3   OH234899   6.378   3.497  15.906 -0.2674 -0.0436 -0.0867
 4495TIP3    H134900   6.333   3.581  15.910 -0.3612 -0.0694 -0.5368
 4495TIP3    H234901   6.362   3.457  15.992  2.0735  1.5310  1.1684
 4496TIP3   OH234902   2.323   5.847   3.059  0.3475 -0.2010 -0.2323
 4496TIP3    H134903   2.339   5.932   3.018 -0.4723 -0.3396 -0.8764
 4496TIP3    H234904   2.243   5.861   3.111  0.7055 -0.3496  0.3614
 4497TIP3   OH234905   4.741   4.967   2.548 -0.3079 -0.0964 -0.7044
 4497TIP3    H134906   4.809   4.991   2.485 -0.9222  0.7995 -1.0499
 4497TIP3    H234907   4.727   4.874   2.534  0.5144 -0.1894 -0.9519
 4498TIP3   OH234908   5.969   3.164   3.489 -0.4141 -0.4739  0.1387
 4498TIP3    H134909   6.064   3.158   3.480 -0.4030 -1.6361  0.8189
 4498TIP3    H234910   5.939   3.073   3.498 -1.3760 -0.0464  1.8054
 4499TIP3   OH234911   1.381   2.105  16.458  0.3039  0.5778 -0.2048
 4499TIP3    H134912   1.409   2.160  16.531 -2.1372  0.5673  0.8533
 4499TIP3    H234913   1.365   2.019  16.497  2.0294 -0.3505 -1.4331
 4500TIP3   OH234914   5.784   5.166   2.858  0.0222  0.4440 -0.6414
 4500TIP3    H134915   5.804   5.157   2.765 -0.7944  1.3645 -0.9252
 4500TIP3    H234916   5.752   5.079   2.884 -0.0740  0.2686 -1.3097
 4501TIP3   OH234917   0.355   0.413  10.631 -0.4705  1.0114 -0.2334
 4501TIP3    H134918   0.450   0.400  10.638 -0.5311  1.0393  0.9006
 4501TIP3    H234919   0.320   0.327  10.609 -0.1244  1.1742 -1.4945
 4502TIP3   OH234920   6.284   2.271  15.866 -0.1285  0.7382  0.2165
 4502TIP3    H134921   6.308   2.186  15.829 -2.5703  0.0478  0.0175
 4502TIP3    H234922   6.292   2.258  15.961 -0.3443  0.3224  0.1834
 4503TIP3   OH234923   4.060   5.148  14.420  0.0937 -0.7325 -0.3011
 4503TIP3    H134924   4.008   5.226  14.398 -0.3351 -1.1087 -0.6570
 4503TIP3    H234925   4.011   5.076  14.380 -0.7407 -1.4732  1.9320
 4504TIP3   OH234926   4.012   6.627  11.957 -0.3931  0.1301  0.5703
 4504TIP3    H134927   4.034   6.597  11.869 -0.8240 -0.2469  0.5873
 4504TIP3    H234928   4.096   6.642  11.999 -0.1494 -1.1349  0.5816
 4505TIP3   OH234929   0.782   6.579   4.440  0.2686 -0.7053 -0.3364
 4505TIP3    H134930   0.819   6.597   4.353 -1.2163 -1.2407 -1.1215
 4505TIP3    H234931   0.815   6.650   4.495 -0.1127  0.6449 -1.7616
 4506TIP3   OH234932   0.135   5.266   0.906 -0.4380  0.1011  0.1888
 4506TIP3    H134933   0.107   5.357   0.913 -1.4731 -0.1490 -0.5317
 4506TIP3    H234934   0.229   5.271   0.888 -0.6973  1.0556 -0.9906
 4507TIP3   OH234935   2.339   4.203  13.421  0.7851 -1.3885 -0.5013
 4507TIP3    H134936   2.379   4.273  13.370  1.1986 -1.3772 -0.1601
 4507TIP3    H234937   2.279   4.248  13.480 -0.0555 -1.4323 -1.2888
 4508TIP3   OH234938   6.755   6.190  13.703  0.0659 -0.4209  0.7717
 4508TIP3    H134939   6.733   6.274  13.742  0.3102 -0.5272  1.1379
 4508TIP3    H234940   6.707   6.189  13.619  1.1721  0.6749  0.0973
 4509TIP3   OH234941   6.775   3.650  11.102 -0.3808  0.1755  0.0658
 4509TIP3    H134942   6.696   3.598  11.089  0.6426 -1.3201 -0.4387
 4509TIP3    H234943   6.764   3.726  11.044 -1.9454  0.6331  0.8925
 4510TIP3   OH234944   1.081   6.418   5.590 -0.3228 -0.3776 -0.5162
 4510TIP3    H134945   1.138   6.360   5.538 -0.1292 -1.1048  0.4714
 4510TIP3    H234946   1.008   6.438   5.531  0.1271 -0.7746 -1.2359
 4511TIP3   OH234947   1.886   2.080  15.160  0.1933  0.3686 -0.4791
 4511TIP3    H134948   1.800   2.122  15.169  0.1469  0.5410 -1.5628
 4511TIP3    H234949   1.904   2.043  15.246 -1.0754  0.1307 -0.2980
 4512TIP3   OH234950   4.014   6.302  12.234  0.2542 -1.3217  0.1065
 4512TIP3    H134951   3.927   6.288  12.196  1.4949  0.3897 -3.8004
 4512TIP3    H234952   4.014   6.394  12.261  1.6610 -0.3349 -2.8303
 4513TIP3   OH234953   3.091   4.889   5.149 -0.1879  0.0580  0.1378
 4513TIP3    H134954   3.137   4.903   5.232 -2.4088  1.4436  1.2506
 4513TIP3    H234955   3.103   4.971   5.101 -0.3773 -0.0743 -0.1395
 4514TIP3   OH234956   2.846   1.848  11.347 -0.2257  0.3679 -0.3498
 4514TIP3    H134957   2.805   1.820  11.265  0.2327 -1.6485  0.0477
 4514TIP3    H234958   2.773   1.862  11.407 -0.6689  3.1700 -1.3786
 4515TIP3   OH234959   3.318   0.274  12.709 -0.3667  0.1030  0.5896
 4515TIP3    H134960   3.315   0.259  12.615  0.1414 -2.0860  0.8698
 4515TIP3    H234961   3.264   0.352  12.723 -0.9831  0.0817 -1.4323
 4516TIP3   OH234962   2.412   4.986   3.829 -0.0325  0.3121  0.2624
 4516TIP3    H134963   2.459   5.054   3.780 -1.9277  0.5551 -1.3084
 4516TIP3    H234964   2.478   4.918   3.844  0.6089  0.1253 -2.8377
 4517TIP3   OH234965   6.768   3.764   5.883  0.5279  0.3822 -0.0369
 4517TIP3    H134966   6.721   3.685   5.907  1.1905 -0.0944 -0.2786
 4517TIP3    H234967   6.820   3.787   5.960  0.0821  0.7798  0.1515
 4518TIP3   OH234968   2.992   3.631  13.787  0.3498  0.4602 -0.4091
 4518TIP3    H134969   3.019   3.540  13.771 -0.8011  0.3017 -1.6292
 4518TIP3    H234970   3.070   3.683  13.765  0.8234 -0.1946 -0.3054
 4519TIP3   OH234971   2.598   0.455  16.221 -0.3880  0.3354 -0.0881
 4519TIP3    H134972   2.631   0.377  16.267 -0.2896 -0.2712 -1.1686
 4519TIP3    H234973   2.516   0.426  16.182 -0.4984  0.8685 -0.2533
 4520TIP3   OH234974   3.647   1.933   1.961  0.2515 -0.0185  0.2721
 4520TIP3    H134975   3.675   1.974   1.879  1.6768  0.6861  1.0731
 4520TIP3    H234976   3.626   2.006   2.018  1.6415 -0.3856  1.3185
 4521TIP3   OH234977   0.366   6.787   6.076 -0.3457 -0.1929 -0.0108
 4521TIP3    H134978   0.436   6.729   6.104  0.0520  1.0884  1.8302
 4521TIP3    H234979   0.292   6.767   6.133 -1.1971 -0.8637 -1.2973
 4522TIP3   OH234980   0.363   0.558   0.705  0.0246  0.1584  0.7564
 4522TIP3    H134981   0.378   0.631   0.765  3.4906  0.0809  0.1879
 4522TIP3    H234982   0.358   0.481   0.761 -1.4658  0.5620  1.2110
 4523TIP3   OH234983   1.886   4.109  13.940 -0.0260  0.0361  0.2651
 4523TIP3    H134984   1.842   4.154  13.867  0.2503  2.3269  1.4299
 4523TIP3    H234985   1.961   4.067  13.899 -0.4781  0.3499 -0.9496
 4524TIP3   OH234986   1.952   6.392  14.973 -0.3087  0.0117 -0.3120
 4524TIP3    H134987   1.924   6.375  15.064 -2.2583  0.1134 -0.8329
 4524TIP3    H234988   2.005   6.316  14.950  0.3106  0.0334  0.9474
 4525TIP3   OH234989   2.245   0.158  13.383  0.5530  0.8380  0.4463
 4525TIP3    H134990   2.276   0.111  13.306 -0.0009  1.6150 -0.2639
 4525TIP3    H234991   2.152   0.138  13.387  0.5157  1.0676  0.7296
 4526TIP3   OH234992   5.019   0.169  14.890 -0.2738  0.0422 -0.0740
 4526TIP3    H134993   4.950   0.117  14.848  0.5919  1.1400 -3.1166
 4526TIP3    H234994   4.982   0.258  14.893  0.9831  0.7053 -2.0176
 4527TIP3   OH234995   0.387   5.089  15.557  0.0118  0.2584  0.7623
 4527TIP3    H134996   0.478   5.087  15.589  0.8372 -0.3596 -1.4344
 4527TIP3    H234997   0.337   5.123  15.631  2.2465  2.1292  1.5715
 4528TIP3   OH234998   6.008   3.366   1.315  0.3462  0.0307  0.9938
 4528TIP3    H134999   6.030   3.286   1.364  1.5299 -0.1313  0.2534
 4528TIP3    H235000   5.992   3.432   1.382  0.0278 -0.6585  1.6086
 4529TIP3   OH235001   1.359   3.035  10.549 -0.1532  0.0703  0.4638
 4529TIP3    H135002   1.392   2.951  10.580 -1.5428 -1.0749 -0.9858
 4529TIP3    H235003   1.436   3.082  10.517  0.7467 -0.2828  2.0640
 4530TIP3   OH235004   1.362   2.987  16.277  0.8575 -0.0281  0.7656
 4530TIP3    H135005   1.268   2.996  16.293  0.8779 -0.8473  1.4283
 4530TIP3    H235006   1.396   2.948  16.357  1.5872 -0.7751  0.1091
 4531TIP3   OH235007   5.842   6.531  15.315 -0.1988  0.2412 -0.5866
 4531TIP3    H135008   5.883   6.548  15.400 -0.8487  0.9829 -0.4059
 4531TIP3    H235009   5.817   6.439  15.318  0.7268 -0.0133 -0.3897
 4532TIP3   OH235010   3.492   4.864   3.303  0.0532 -0.2284 -0.0081
 4532TIP3    H135011   3.399   4.889   3.305  0.1356  0.2258 -1.3387
 4532TIP3    H235012   3.490   4.768   3.311 -0.4528 -0.1368  1.1916
 4533TIP3   OH235013   3.058   4.408  14.462  0.5725 -0.3929  0.4702
 4533TIP3    H135014   3.029   4.497  14.478  1.4763  0.2356 -1.1160
 4533TIP3    H235015   3.029   4.359  14.539  1.6016  1.6049  2.2533
 4534TIP3   OH235016   5.559   5.201  16.555  0.8552  0.0580 -0.1094
 4534TIP3    H135017   5.603   5.177  16.637 -0.3607 -0.4102  0.4200
 4534TIP3    H235018   5.519   5.120  16.524  1.7333  0.1143 -1.4611
 4535TIP3   OH235019   2.173   0.764   2.006 -0.4307 -0.4064 -0.2865
 4535TIP3    H135020   2.188   0.724   2.092 -1.4322  0.5678  0.3765
 4535TIP3    H235021   2.260   0.788   1.975 -0.1736  1.1488  1.4504
 4536TIP3   OH235022   4.458   3.623  15.012 -0.4618  0.4038 -0.4535
 4536TIP3    H135023   4.518   3.549  15.022  0.1842  0.6472 -2.1420
 4536TIP3    H235024   4.439   3.651  15.101 -0.1992 -1.3685  0.2043
 4537TIP3   OH235025   1.187   0.563  13.023 -0.2866  0.2688 -0.0701
 4537TIP3    H135026   1.137   0.634  12.983 -1.1617  0.4935  1.3632
 4537TIP3    H235027   1.276   0.596  13.028 -0.4052  0.6985 -0.7083
 4538TIP3   OH235028   0.682   3.444   5.065 -0.5974  0.3427 -0.1175
 4538TIP3    H135029   0.600   3.433   5.112 -1.0086  0.0033 -0.9023
 4538TIP3    H235030   0.661   3.501   4.991 -0.3810 -0.6133 -0.9385
 4539TIP3   OH235031   4.982   2.497  13.649 -0.0036 -0.1314 -0.6245
 4539TIP3    H135032   5.005   2.524  13.738 -3.7508  2.6637 -0.2592
 4539TIP3    H235033   4.938   2.413  13.660 -0.0693 -0.0050  0.1266
 4540TIP3   OH235034   6.021   6.546  14.174  0.5737 -0.3157 -0.1726
 4540TIP3    H135035   5.984   6.610  14.114 -3.5909 -0.6954  1.6731
 4540TIP3    H235036   5.995   6.461  14.138  0.3197 -0.6564  0.7787
 4541TIP3   OH235037   5.250   4.835   4.668  0.3625  0.0907 -0.2192
 4541TIP3    H135038   5.222   4.907   4.610  0.8388 -0.5546 -1.2770
 4541TIP3    H235039   5.187   4.765   4.652 -0.3099  0.3693  1.0731
 4542TIP3   OH235040   3.791   3.421  11.694 -0.0175  0.4318 -0.1129
 4542TIP3    H135041   3.827   3.348  11.642 -0.9669 -0.6212  0.6527
 4542TIP3    H235042   3.723   3.458  11.638  0.3904  0.6659 -0.4612
 4543TIP3   OH235043   1.414   5.936  16.086  0.5230  0.1629 -0.4711
 4543TIP3    H135044   1.382   5.863  16.032 -0.2292  0.5324 -0.5419
 4543TIP3    H235045   1.415   6.010  16.026 -1.1777  0.7914  0.1958
 4544TIP3   OH235046   0.756   2.189  15.244 -0.4648 -1.1092  0.3964
 4544TIP3    H135047   0.792   2.198  15.155  1.2930 -1.3924  1.0430
 4544TIP3    H235048   0.828   2.216  15.301 -2.1062  0.6595  1.7187
 4545TIP3   OH235049   6.591   1.924   3.294 -0.2896  0.0067 -0.1000
 4545TIP3    H135050   6.557   1.932   3.383 -2.2726  0.6353 -0.8686
 4545TIP3    H235051   6.595   1.830   3.278  3.8202 -0.3760  1.9259
 4546TIP3   OH235052   4.990   3.101   2.291 -0.1481  0.3706 -0.1495
 4546TIP3    H135053   5.029   3.115   2.378 -1.1543  1.3082  0.1688
 4546TIP3    H235054   5.035   3.164   2.235 -1.1014  1.4105  0.2054
 4547TIP3   OH235055   0.524   2.033  15.086 -0.0749 -0.1826  0.2414
 4547TIP3    H135056   0.555   2.083  15.010 -0.5877 -1.4130 -0.8095
 4547TIP3    H235057   0.511   2.100  15.154 -0.1864  1.0425 -0.9293
 4548TIP3   OH235058   0.406   2.519   1.757 -0.5412  0.3029  0.5061
 4548TIP3    H135059   0.442   2.601   1.724 -1.6628  0.8900  0.6951
 4548TIP3    H235060   0.312   2.524   1.739 -0.8341 -0.3605  1.6884
 4549TIP3   OH235061   3.688   2.245  16.767 -0.0754 -0.6748  0.4174
 4549TIP3    H135062   3.749   2.207  16.831  2.1237 -0.3284 -1.3613
 4549TIP3    H235063   3.640   2.311  16.817 -0.2579 -2.1331  2.2968
 4550TIP3   OH235064   4.320   2.312  16.737 -0.9329  0.1361 -0.9650
 4550TIP3    H135065   4.258   2.266  16.794 -0.0267 -0.1320 -0.1654
 4550TIP3    H235066   4.395   2.332  16.794  0.2172 -0.5636 -2.1766
 4551TIP3   OH235067   5.002   5.266  10.990 -0.2785 -0.4093 -0.5158
 4551TIP3    H135068   4.908   5.263  10.975  0.0068  0.1981 -2.8331
 4551TIP3    H235069   5.036   5.324  10.921  1.5471  1.4125  1.7425
 4552TIP3   OH235070   2.671   4.782   5.246 -0.4743  0.4684  0.5243
 4552TIP3    H135071   2.699   4.745   5.330 -1.4624  0.7247  0.9914
 4552TIP3    H235072   2.576   4.793   5.256 -0.4946  1.2061 -0.3508
 4553TIP3   OH235073   2.899   3.429   2.826  0.1671 -0.4132  0.3257
 4553TIP3    H135074   2.817   3.392   2.795 -0.5654  1.8632 -0.6947
 4553TIP3    H235075   2.906   3.398   2.917 -1.8425 -0.6751  0.4499
 4554TIP3   OH235076   1.802   3.878   1.361 -0.8894  0.0964 -0.1364
 4554TIP3    H135077   1.793   3.828   1.442 -0.0066  1.3159  0.7803
 4554TIP3    H235078   1.878   3.839   1.317 -1.3659 -0.5662 -0.3753
 4555TIP3   OH235079   6.119   4.122   4.415 -0.1158  0.0697  0.1945
 4555TIP3    H135080   6.171   4.142   4.493 -2.6147  1.4676  1.6225
 4555TIP3    H235081   6.113   4.027   4.414  1.1739 -0.0481  0.8182
 4556TIP3   OH235082   5.583   4.634  12.079 -0.0784 -0.1884  0.0214
 4556TIP3    H135083   5.496   4.671  12.092  0.3318  1.2585 -1.0374
 4556TIP3    H235084   5.643   4.699  12.116  0.6255 -0.0531 -1.2613
 4557TIP3   OH235085   0.660   4.681   5.216  0.5401 -0.4423 -0.0764
 4557TIP3    H135086   0.744   4.697   5.173  0.0301 -0.0616 -0.9415
 4557TIP3    H235087   0.596   4.682   5.146 -0.1648 -1.0131  0.5428
 4558TIP3   OH235088   0.294   1.450  10.680  0.3990  0.3327  0.0951
 4558TIP3    H135089   0.242   1.377  10.645  0.2224  0.7890 -0.6015
 4558TIP3    H235090   0.381   1.437  10.643  1.5923 -1.8746  3.1972
 4559TIP3   OH235091   4.846   3.599  14.647 -0.4145  0.1848  0.7393
 4559TIP3    H135092   4.941   3.609  14.652 -0.2777 -0.8815  0.5019
 4559TIP3    H235093   4.831   3.543  14.571 -1.2071  0.0449  0.9840
 4560TIP3   OH235094   2.853   0.760  11.126  0.6349  0.3398  0.4806
 4560TIP3    H135095   2.792   0.825  11.091  0.8767  0.5725  0.4795
 4560TIP3    H235096   2.800   0.702  11.179  0.4477  0.6716  0.6560
 4561TIP3   OH235097   0.125   0.713   4.856 -0.6368  0.5749  0.3501
 4561TIP3    H135098   0.089   0.625   4.866 -0.0441  0.0904 -1.4398
 4561TIP3    H235099   0.179   0.726   4.934 -0.2738 -0.8722  0.3649
 4562TIP3   OH235100   4.341   4.034   0.227 -0.0513  0.0428 -0.0316
 4562TIP3    H135101   4.295   3.959   0.264  1.0507 -0.7414 -0.2213
 4562TIP3    H235102   4.402   3.997   0.164  0.4141  1.1093 -0.2365
 4563TIP3   OH235103   4.142   1.876   2.336 -0.2617  0.1945  0.5875
 4563TIP3    H135104   4.112   1.938   2.269  2.7385  1.7813  0.5257
 4563TIP3    H235105   4.104   1.908   2.417 -0.6702  0.6744  0.2171
 4564TIP3   OH235106   2.176   6.785   2.275 -0.2078 -0.4813 -0.2401
 4564TIP3    H135107   2.103   6.826   2.321  1.2993  1.4619  0.5346
 4564TIP3    H235108   2.227   6.858   2.239  1.7582 -1.7125 -0.1251
 4565TIP3   OH235109   4.230   6.456  13.276  0.5399  0.2398 -0.2418
 4565TIP3    H135110   4.175   6.502  13.213 -0.8361 -0.7354  0.2037
 4565TIP3    H235111   4.203   6.365  13.270  1.7804 -0.1974  0.3552
 4566TIP3   OH235112   1.437   6.273  15.044 -0.0173 -0.3522  0.0176
 4566TIP3    H135113   1.363   6.235  14.996  0.6800 -0.3415 -1.1032
 4566TIP3    H235114   1.426   6.242  15.134 -2.5747  1.3587  0.3898
 4567TIP3   OH235115   5.128   1.624  15.991 -0.0906  0.0477  0.2578
 4567TIP3    H135116   5.141   1.717  15.971 -0.2812  0.8601  3.3956
 4567TIP3    H235117   5.187   1.606  16.064 -0.0625 -2.3533 -0.2520
 4568TIP3   OH235118   2.532   0.442   2.354 -0.0800 -0.4367 -0.0835
 4568TIP3    H135119   2.510   0.467   2.444  1.5352 -0.9381  0.4722
 4568TIP3    H235120   2.545   0.347   2.357 -0.9725 -0.6168 -1.0752
 4569TIP3   OH235121   4.250   6.031   3.460  0.6639  0.1305  0.1524
 4569TIP3    H135122   4.191   6.079   3.518  2.3610  0.2347  1.8927
 4569TIP3    H235123   4.240   6.074   3.375 -0.3688  1.3337  0.8441
 4570TIP3   OH235124   3.358   5.035   0.137  0.5885 -0.5854 -0.0360
 4570TIP3    H135125   3.376   5.010   0.047  3.5505 -1.0014  0.5491
 4570TIP3    H235126   3.381   5.127   0.142 -1.8165  0.0723 -0.1762
 4571TIP3   OH235127   4.778   4.504  11.516  0.4421 -0.5338  0.1408
 4571TIP3    H135128   4.735   4.534  11.436 -0.7139  2.1483  1.6186
 4571TIP3    H235129   4.749   4.414  11.527 -0.9988 -0.3102 -1.4072
 4572TIP3   OH235130   5.216   0.403   6.547  0.5973  0.1215  0.6988
 4572TIP3    H135131   5.186   0.489   6.577  0.9898  0.5706 -0.1378
 4572TIP3    H235132   5.210   0.347   6.624 -2.0342  0.2650  0.6589
 4573TIP3   OH235133   2.272   2.485  14.198 -0.2273 -0.3142 -0.1250
 4573TIP3    H135134   2.211   2.418  14.166 -0.3467  0.0601 -0.6864
 4573TIP3    H235135   2.337   2.436  14.249 -0.4673 -0.8223 -0.3040
 4574TIP3   OH235136   1.330   3.050  10.842 -0.1822 -0.7152  0.0841
 4574TIP3    H135137   1.386   2.972  10.837  2.0537  0.6321  2.1384
 4574TIP3    H235138   1.309   3.070  10.750  0.9210 -2.5287 -0.6148
 4575TIP3   OH235139   0.682   2.596   1.954  0.1098 -0.2596 -0.5157
 4575TIP3    H135140   0.728   2.589   2.038  0.7444  1.0832 -0.7269
 4575TIP3    H235141   0.658   2.506   1.933 -1.7809 -0.4620  2.0115
 4576TIP3   OH235142   3.538   3.038   5.993  0.3897 -0.5600 -0.2469
 4576TIP3    H135143   3.484   3.103   6.040  0.6908  0.0967 -0.7930
 4576TIP3    H235144   3.610   3.019   6.054  0.1891 -0.5348 -0.0001
 4577TIP3   OH235145   1.199   5.036  16.005  0.1626 -0.0969 -0.0735
 4577TIP3    H135146   1.181   5.082  15.923 -0.6461  0.4299  0.3878
 4577TIP3    H235147   1.292   5.015  16.000  0.6756  1.9595 -0.1279
 4578TIP3   OH235148   3.565   2.158   2.145  0.2722 -0.1761  0.0302
 4578TIP3    H135149   3.567   2.249   2.176 -0.8676  0.0472 -0.4895
 4578TIP3    H235150   3.615   2.109   2.210 -0.8481  0.4974  1.4448
 4579TIP3   OH235151   2.300   3.292  14.755  0.3521 -0.5785  0.2777
 4579TIP3    H135152   2.356   3.244  14.694 -0.7881 -1.1533 -0.3429
 4579TIP3    H235153   2.218   3.242  14.757 -1.6182  2.3109 -1.8140
 4580TIP3   OH235154   2.274   5.992   0.129 -0.0614 -0.3342 -0.1764
 4580TIP3    H135155   2.309   5.906   0.149  1.1794 -0.0358 -0.9843
 4580TIP3    H235156   2.305   6.012   0.041 -1.5853  0.3127 -0.6149
 4581TIP3   OH235157   4.602   4.189   0.715  0.6243  0.0529  1.1032
 4581TIP3    H135158   4.515   4.228   0.724  0.9722  1.3526 -0.6451
 4581TIP3    H235159   4.590   4.116   0.655  1.2416  2.5522 -2.3627
 4582TIP3   OH235160   2.576   0.174   2.374 -0.1469 -0.0816  0.2912
 4582TIP3    H135161   2.535   0.088   2.380 -1.1312  0.4330  1.2677
 4582TIP3    H235162   2.646   0.172   2.439  0.6296 -0.5385 -0.5303
 4583TIP3   OH235163   1.939   4.630   4.947  0.4270 -0.4246 -0.3317
 4583TIP3    H135164   1.985   4.594   4.871  3.5247  2.5768 -0.1170
 4583TIP3    H235165   1.920   4.721   4.923  1.7525  0.7156  2.4344
 4584TIP3   OH235166   5.990   4.822  17.001 -0.5016 -0.2301 -0.1937
 4584TIP3    H135167   5.967   4.907  17.038 -0.4973 -0.2519 -0.1419
 4584TIP3    H235168   6.078   4.836  16.964  0.0971 -0.5922  1.0488
 4585TIP3   OH235169   1.018   5.247   4.884 -1.0866 -0.0926 -0.2438
 4585TIP3    H135170   1.043   5.329   4.842 -0.1953 -0.4801 -0.4922
 4585TIP3    H235171   0.984   5.273   4.970 -1.0295  0.5477 -0.4144
 4586TIP3   OH235172   6.645   3.772  16.885  0.4293 -0.3556 -0.1263
 4586TIP3    H135173   6.740   3.762  16.882  0.3746 -2.5608  2.2250
 4586TIP3    H235174   6.629   3.841  16.949  0.4138  0.8183 -1.3522
 4587TIP3   OH235175   0.413   0.142   0.909  0.3105  0.3987 -0.4174
 4587TIP3    H135176   0.356   0.165   0.836  2.2491  1.9548 -1.5853
 4587TIP3    H235177   0.472   0.217   0.916  1.5030 -0.6453  1.4055
 4588TIP3   OH235178   2.520   6.712   4.375  0.4889 -0.0492 -0.0541
 4588TIP3    H135179   2.444   6.701   4.433 -0.1195 -0.9570 -0.9797
 4588TIP3    H235180   2.593   6.728   4.435 -0.6427  2.4873  0.8177
 4589TIP3   OH235181   2.126   3.627   1.035  0.2233 -0.0225 -0.1486
 4589TIP3    H135182   2.106   3.672   1.117  0.6442  0.7936 -0.4892
 4589TIP3    H235183   2.061   3.661   0.973  1.1925  0.9028 -0.6702
 4590TIP3   OH235184   4.634   0.406  14.040  0.1299 -0.2083 -0.6912
 4590TIP3    H135185   4.571   0.367  14.100 -0.0768 -0.1262 -0.8490
 4590TIP3    H235186   4.592   0.488  14.013  0.2552 -0.2078 -0.8843
 4591TIP3   OH235187   4.550   5.829   5.221  0.4730 -0.6382  0.9696
 4591TIP3    H135188   4.634   5.793   5.249  0.8132  0.4419  1.3701
 4591TIP3    H235189   4.502   5.844   5.302  0.5355  0.2665  0.8496
 4592TIP3   OH235190   2.492   0.475  12.538 -0.6579  0.3310 -0.0385
 4592TIP3    H135191   2.501   0.381  12.557 -1.3520  0.0995 -0.7943
 4592TIP3    H235192   2.434   0.478  12.462  1.1626  1.2693 -1.4561
 4593TIP3   OH235193   6.433   4.947  11.863  0.0888  0.1128  0.4167
 4593TIP3    H135194   6.451   5.030  11.907  2.4220  1.2644 -2.3451
 4593TIP3    H235195   6.519   4.905  11.855 -0.6835 -1.4174 -0.4203
 4594TIP3   OH235196   6.582   5.419   0.996 -0.2360  0.3747 -0.3319
 4594TIP3    H135197   6.556   5.461   1.078  1.2723 -2.3190  1.6553
 4594TIP3    H235198   6.669   5.454   0.978  0.1395 -0.2774  0.1748
 4595TIP3   OH235199   3.369   3.566   1.653  0.3898  0.0575  0.2124
 4595TIP3    H135200   3.435   3.543   1.587  0.2698 -2.0803  0.7519
 4595TIP3    H235201   3.415   3.623   1.714  1.5619 -0.8512  0.2173
 4596TIP3   OH235202   5.001   0.744   0.771 -0.3459  0.2243 -0.1457
 4596TIP3    H135203   5.057   0.751   0.694  0.5899  2.7481  0.6519
 4596TIP3    H235204   5.055   0.696   0.835 -0.4247 -0.3194 -0.4888
 4597TIP3   OH235205   2.049   2.072  15.400 -1.1423 -0.6311 -0.2821
 4597TIP3    H135206   2.037   2.138  15.469 -0.1685 -1.2764  0.5347
 4597TIP3    H235207   2.103   2.005  15.441 -0.8959 -1.2378 -1.5606
 4598TIP3   OH235208   2.887   6.716  12.841 -0.2883 -0.6434  0.1646
 4598TIP3    H135209   2.849   6.726  12.754 -1.5186  0.2694  0.7622
 4598TIP3    H235210   2.954   6.785  12.846 -1.0616  0.1057  0.3565
 4599TIP3   OH235211   6.319   3.040  15.850 -0.0870  0.4359  0.4563
 4599TIP3    H135212   6.359   3.063  15.934  0.9362  2.8156 -0.5885
 4599TIP3    H235213   6.240   2.990  15.873  0.0395  1.2343  2.8163
 4600TIP3   OH235214   4.514   4.225  11.821 -0.3520 -0.2943  0.2910
 4600TIP3    H135215   4.495   4.259  11.908  0.9726  1.3922 -0.0310
 4600TIP3    H235216   4.508   4.301  11.763  1.8876 -0.7243 -0.5925
 4601TIP3   OH235217   6.113   1.907  12.432 -0.0427  0.1618 -0.0443
 4601TIP3    H135218   6.057   1.871  12.501 -1.0864 -0.8280 -1.3579
 4601TIP3    H235219   6.092   2.000  12.430  0.9376  0.4683  1.8005
 4602TIP3   OH235220   1.019   2.998  14.990  0.3255  0.4982  0.0873
 4602TIP3    H135221   1.013   2.951  14.907  1.0150  0.9903 -0.2538
 4602TIP3    H235222   1.087   2.952  15.039 -1.1132 -0.7327  1.0373
 4603TIP3   OH235223   5.675   4.495  10.548  0.3339  0.8609  0.0661
 4603TIP3    H135224   5.620   4.417  10.562 -1.2321  1.9172  0.0639
 4603TIP3    H235225   5.720   4.478  10.465  0.5227 -0.3133  0.3926
 4604TIP3   OH235226   4.821   0.874  14.026  0.1083  0.3040 -0.1063
 4604TIP3    H135227   4.798   0.784  14.001  1.5086  0.3444 -1.6729
 4604TIP3    H235228   4.819   0.873  14.122 -0.9747 -1.0877 -0.1013
 4605TIP3   OH235229   5.262   2.205  14.238 -0.4674  0.7443  0.2340
 4605TIP3    H135230   5.316   2.164  14.306 -0.9264 -0.1419  0.0781
 4605TIP3    H235231   5.240   2.133  14.178  0.2596  1.5853 -1.0860
 4606TIP3   OH235232   2.755   6.083  12.106 -0.0224  0.0583  0.3671
 4606TIP3    H135233   2.696   6.117  12.038 -0.5738 -0.9037  0.3335
 4606TIP3    H235234   2.708   6.007  12.141  1.7911 -1.6204 -0.6468
 4607TIP3   OH235235   1.574   3.637  14.478 -0.5378  0.3723  0.4353
 4607TIP3    H135236   1.529   3.558  14.509  0.5689 -0.1733  0.7064
 4607TIP3    H235237   1.565   3.635  14.383 -1.7334  0.6869  0.5269
 4608TIP3   OH235238   0.016   0.799   2.754  0.1040  0.1574 -0.2933
 4608TIP3    H135239  -0.011   0.723   2.806  1.7452 -0.5165 -0.3497
 4608TIP3    H235240   0.110   0.786   2.741 -0.0754  0.8075 -2.6066
 4609TIP3   OH235241   6.249   1.765  13.038  0.7933  0.7767  0.1117
 4609TIP3    H135242   6.319   1.746  13.101 -0.0679  0.1975  0.9414
 4609TIP3    H235243   6.293   1.776  12.954  1.7980 -0.4706  0.4459
 4610TIP3   OH235244   4.069   1.354   4.025 -0.6180  0.0925 -0.1897
 4610TIP3    H135245   4.126   1.416   4.070 -1.4522  0.5114  0.2994
 4610TIP3    H235246   4.088   1.270   4.066 -0.4301  0.2490  0.0482
 4611TIP3   OH235247   0.697   5.805  15.560 -0.2236 -0.2971 -0.0459
 4611TIP3    H135248   0.696   5.801  15.656 -1.0621 -2.1794 -0.1050
 4611TIP3    H235249   0.636   5.876  15.539  1.0834  1.1420  0.8095
 4612TIP3   OH235250   2.915   0.959  12.301 -0.1518  0.4544  0.3724
 4612TIP3    H135251   2.906   0.930  12.392 -0.5664  1.6592  0.7415
 4612TIP3    H235252   2.829   0.946  12.263 -0.1791  0.6494  0.3686
 4613TIP3   OH235253   6.355   4.348  10.617 -0.5494 -0.1609 -0.4199
 4613TIP3    H135254   6.360   4.405  10.694 -0.2017 -1.1057  0.2677
 4613TIP3    H235255   6.401   4.396  10.549 -2.2177  1.4209 -0.5267
 4614TIP3   OH235256   0.543   2.298   2.471 -0.2672 -0.3527  0.6313
 4614TIP3    H135257   0.572   2.386   2.448  0.6540 -0.4636  1.2926
 4614TIP3    H235258   0.507   2.306   2.559 -0.2637 -0.6212  0.6589
 4615TIP3   OH235259   5.979   0.449   5.897 -0.1504  0.2130 -0.3469
 4615TIP3    H135260   6.010   0.408   5.977  0.7598  0.2934 -0.6509
 4615TIP3    H235261   5.907   0.505   5.925 -1.4212 -1.5420  0.0840
 4616TIP3   OH235262   2.416   3.618   3.305  0.4960 -0.0911  0.7471
 4616TIP3    H135263   2.494   3.564   3.319 -0.0625 -0.6822  1.6455
 4616TIP3    H235264   2.357   3.563   3.254  1.7181  1.3413 -2.4539
 4617TIP3   OH235265   0.098   2.623  12.951  0.3056 -0.4210  0.1610
 4617TIP3    H135266   0.012   2.582  12.951 -0.3934  0.9411 -0.8461
 4617TIP3    H235267   0.101   2.671  12.868  2.0271 -0.4109  0.1981
 4618TIP3   OH235268   5.532   2.042  13.604  0.3796  0.0933  0.1828
 4618TIP3    H135269   5.516   2.030  13.510 -1.8808 -0.3998  0.5687
 4618TIP3    H235270   5.488   1.967  13.645  3.0609 -0.8613  1.5696
 4619TIP3   OH235271   0.347   6.063  17.117 -0.0311  0.1087 -0.3615
 4619TIP3    H135272   0.345   6.008  17.039  1.1978 -1.9051  0.9318
 4619TIP3    H235273   0.428   6.113  17.109  0.8188 -1.1303  0.2423
 4620TIP3   OH235274   2.843   3.020   5.609 -0.3055 -0.3578  0.1708
 4620TIP3    H135275   2.820   3.109   5.584 -0.2142 -0.1995  0.6366
 4620TIP3    H235276   2.760   2.974   5.616 -0.4664  0.0988  1.4331
 4621TIP3   OH235277   1.905   4.743  14.900  0.4930  0.1283  0.2679
 4621TIP3    H135278   1.810   4.741  14.891  0.4580  1.1250  0.3231
 4621TIP3    H235279   1.927   4.836  14.905  1.1500 -0.0888  3.8012
 4622TIP3   OH235280   4.735   4.622  16.075 -0.4169  0.3713 -0.1593
 4622TIP3    H135281   4.717   4.555  16.141  1.8629 -1.2354 -1.0525
 4622TIP3    H235282   4.679   4.598  16.002  0.9452 -1.1305 -0.7733
 4623TIP3   OH235283   2.333   2.714   2.078  0.3421  0.0497 -0.2614
 4623TIP3    H135284   2.424   2.739   2.063 -0.4496  2.3687 -1.9408
 4623TIP3    H235285   2.288   2.798   2.093 -1.5324 -1.0207  0.4366
 4624TIP3   OH235286   5.283   3.468  12.879 -0.3044 -0.1058  0.2096
 4624TIP3    H135287   5.222   3.429  12.942 -1.1292  2.2551  1.0143
 4624TIP3    H235288   5.262   3.426  12.796 -3.3979  0.8137  0.3753
 4625TIP3   OH235289   5.703   5.890   3.006 -0.2449  0.4380 -0.1247
 4625TIP3    H135290   5.754   5.944   2.946 -1.1281  0.9557 -0.4420
 4625TIP3    H235291   5.767   5.847   3.061  0.6305 -0.3912 -1.7235
 4626TIP3   OH235292   4.567   5.469  14.022  0.1724  0.1435 -0.3410
 4626TIP3    H135293   4.641   5.475  13.962  0.7353 -1.3629  0.1411
 4626TIP3    H235294   4.603   5.496  14.107  0.4516 -1.4146  0.0758
 4627TIP3   OH235295   0.698   5.090   3.222 -1.2056  0.3563  0.4504
 4627TIP3    H135296   0.734   5.112   3.308  1.1460 -0.7374 -0.1610
 4627TIP3    H235297   0.623   5.034   3.241 -0.0565 -0.8125  1.8260
 4628TIP3   OH235298   5.409   5.744   5.173  0.3499  0.2645  0.0761
 4628TIP3    H135299   5.419   5.742   5.078  2.7804 -0.0388  0.2747
 4628TIP3    H235300   5.467   5.815   5.202  0.1997 -0.1105  1.3796
 4629TIP3   OH235301   0.960   6.518  12.302 -0.3393  0.1070  0.1736
 4629TIP3    H135302   1.022   6.491  12.370 -0.4300 -0.8298 -0.0995
 4629TIP3    H235303   0.954   6.442  12.244  0.2443  1.1200 -1.2628
 4630TIP3   OH235304   1.585   2.006   4.879 -0.4293  0.1057  0.1405
 4630TIP3    H135305   1.564   2.089   4.921 -0.9093 -0.5918  1.3548
 4630TIP3    H235306   1.585   1.943   4.951 -2.0346 -1.2928 -1.0042
 4631TIP3   OH235307   5.584   5.083   3.600  0.0916 -0.5701  0.2725
 4631TIP3    H135308   5.599   5.177   3.607 -0.1588 -0.1265 -3.3945
 4631TIP3    H235309   5.644   5.054   3.531  0.3927 -3.2295  1.5094
 4632TIP3   OH235310   2.331   0.329  12.027 -0.4697 -0.4393  0.1827
 4632TIP3    H135311   2.350   0.396  11.961  1.9550  0.1618  1.3483
 4632TIP3    H235312   2.344   0.246  11.981  3.6822 -0.0838  0.2834
 4633TIP3   OH235313   0.947   0.055   5.610  0.3457 -0.8441 -0.3414
 4633TIP3    H135314   0.933   0.150   5.609 -0.0661 -0.8496  1.5065
 4633TIP3    H235315   1.024   0.042   5.555  0.3395  0.5493 -0.7258
 4634TIP3   OH235316   0.021   2.608  16.397  0.3915 -0.2805  0.6581
 4634TIP3    H135317   0.019   2.524  16.351  0.2605 -0.4902  1.0388
 4634TIP3    H235318   0.050   2.671  16.331 -0.6427 -0.4189  0.0403
 4635TIP3   OH235319   1.641   0.687   0.635 -0.2016  0.3799  0.1774
 4635TIP3    H135320   1.588   0.762   0.662 -0.8595  0.2178 -0.6210
 4635TIP3    H235321   1.731   0.712   0.657 -0.7342 -0.0544  3.1550
 4636TIP3   OH235322   1.468   2.237  13.200 -0.0985  0.8070  0.2089
 4636TIP3    H135323   1.393   2.297  13.195  0.4021  1.8120  2.9838
 4636TIP3    H235324   1.543   2.290  13.175  0.1162  0.8556  0.9282
 4637TIP3   OH235325   4.483   1.276   3.651  0.6469  0.4912  0.1397
 4637TIP3    H135326   4.527   1.285   3.567  1.8481  0.4355  0.7440
 4637TIP3    H235327   4.546   1.231   3.707 -0.1585  0.4569  1.0545
 4638TIP3   OH235328   4.487   4.310  12.083  0.1391  0.3424  0.1314
 4638TIP3    H135329   4.512   4.247  12.151 -1.1551 -0.5062 -0.1336
 4638TIP3    H235330   4.560   4.371  12.079  0.1372  0.6232  2.5154
 4639TIP3   OH235331   3.590   5.293   4.490  0.2078  0.5067  0.1198
 4639TIP3    H135332   3.671   5.279   4.441 -0.3996 -0.8317 -0.5608
 4639TIP3    H235333   3.536   5.217   4.469  0.3048 -0.7147  3.6958
 4640TIP3   OH235334   3.393   5.824  15.286 -0.2938  0.4333 -0.1895
 4640TIP3    H135335   3.335   5.859  15.353 -0.4832 -1.8124  0.9279
 4640TIP3    H235336   3.335   5.798  15.214 -0.2430  1.4618 -0.6264
 4641TIP3   OH235337   2.077   6.483  14.177  0.0291 -0.1169 -0.5750
 4641TIP3    H135338   1.994   6.459  14.220 -0.6764  3.3839  0.3479
 4641TIP3    H235339   2.051   6.509  14.089  0.4119 -0.5352 -0.8128
 4642TIP3   OH235340   0.007   0.357  11.306  0.4221 -0.5008 -0.6003
 4642TIP3    H135341   0.081   0.418  11.304  0.4475 -0.5488 -1.4006
 4642TIP3    H235342   0.007   0.321  11.395 -1.1260  2.5348  0.7766
 4643TIP3   OH235343   5.824   3.598   0.419 -0.7244  0.3298 -0.0846
 4643TIP3    H135344   5.790   3.534   0.356 -1.4348 -1.6146  2.1521
 4643TIP3    H235345   5.755   3.607   0.484  1.1483 -0.2207  2.1251
 4644TIP3   OH235346   3.558   6.726  11.810  0.0736  0.4204  0.3755
 4644TIP3    H135347   3.571   6.654  11.748  1.7514  1.7524 -0.9173
 4644TIP3    H235348   3.558   6.805  11.755  1.0408  1.6134  2.0148
 4645TIP3   OH235349   1.452   1.411  16.033  0.3534  0.0947 -0.0908
 4645TIP3    H135350   1.450   1.488  15.975 -0.6066  0.0316 -0.1525
 4645TIP3    H235351   1.538   1.372  16.017 -0.2445 -0.4649 -2.1937
 4646TIP3   OH235352   2.022   1.299  16.780 -0.2674 -0.3298 -0.0542
 4646TIP3    H135353   2.040   1.206  16.792 -0.7197 -0.2537  1.4999
 4646TIP3    H235354   1.946   1.301  16.721  0.1038 -0.9149 -0.5604
 4647TIP3   OH235355   3.112   0.242   6.578  0.6705  0.3567  0.2533
 4647TIP3    H135356   3.022   0.255   6.608  0.6942  0.4017  0.3062
 4647TIP3    H235357   3.165   0.258   6.656  0.8720  2.4823 -0.2373
 4648TIP3   OH235358   4.544   2.535   1.600 -0.0733  0.0243 -0.3348
 4648TIP3    H135359   4.554   2.465   1.536 -0.4812 -0.5951  0.2732
 4648TIP3    H235360   4.494   2.496   1.672 -1.7587  1.3851 -0.6967
 4649TIP3   OH235361   0.440   0.688  11.352  0.1007  0.4498 -0.0241
 4649TIP3    H135362   0.412   0.774  11.383 -1.0584  0.3977 -0.8694
 4649TIP3    H235363   0.490   0.706  11.272  0.7643  0.3976  0.3711
 4650TIP3   OH235364   6.322   5.581   1.065 -0.9350 -0.6253 -0.2109
 4650TIP3    H135365   6.370   5.579   0.982 -0.0039 -0.6115  0.3124
 4650TIP3    H235366   6.345   5.666   1.104  0.5978 -1.6090  1.1652
 4651TIP3   OH235367   6.087   2.827   5.250  0.6333  0.4912  0.4070
 4651TIP3    H135368   6.119   2.898   5.306  2.4330 -0.9762  1.3577
 4651TIP3    H235369   6.155   2.816   5.184  1.1170 -1.2641  1.1395
 4652TIP3   OH235370   5.141   2.448  11.658  0.2991 -1.0580 -0.3067
 4652TIP3    H135371   5.156   2.511  11.587 -0.1784 -0.0290  0.4709
 4652TIP3    H235372   5.227   2.410  11.675  0.5665 -0.7303 -0.9021
 4653TIP3   OH235373   0.111   1.007   2.137 -0.2968 -0.4698  0.5871
 4653TIP3    H135374   0.047   0.949   2.097  0.8722 -1.4998  0.1254
 4653TIP3    H235375   0.166   0.949   2.191 -0.5968  0.5862  2.0980
 4654TIP3   OH235376   1.509   0.310  15.297  0.4535  0.3420  0.3466
 4654TIP3    H135377   1.588   0.292  15.245 -0.6126  1.8269 -1.9440
 4654TIP3    H235378   1.540   0.363  15.370  1.6074  1.0173 -0.5872
 4655TIP3   OH235379   2.444   2.848  15.854 -0.0158 -0.1113  0.2841
 4655TIP3    H135380   2.473   2.935  15.882 -1.1821 -0.0847  1.4767
 4655TIP3    H235381   2.393   2.864  15.774 -0.3833  0.3215  0.6009
 4656TIP3   OH235382   3.545   0.065  17.123  0.0176  0.3409  0.4113
 4656TIP3    H135383   3.536   0.038  17.032 -0.4390  1.1038  0.2276
 4656TIP3    H235384   3.544   0.160  17.121  0.5920  0.3730  1.1606
 4657TIP3   OH235385   4.944   2.318  13.354 -0.0636 -0.2179 -0.5157
 4657TIP3    H135386   4.911   2.277  13.274 -1.1407  0.5614 -0.4907
 4657TIP3    H235387   4.873   2.307  13.418  0.4091 -0.0145  0.0532
 4658TIP3   OH235388   0.528   3.925   2.854  0.9279 -0.1630  0.5186
 4658TIP3    H135389   0.434   3.941   2.862  0.6355 -1.2283 -0.5571
 4658TIP3    H235390   0.537   3.830   2.865  1.8758 -0.0677  0.6027
 4659TIP3   OH235391   2.919   3.294   3.769  0.4043 -0.0607 -0.3163
 4659TIP3    H135392   3.004   3.255   3.792  0.6507 -0.0624 -1.2070
 4659TIP3    H235393   2.856   3.222   3.777  0.3898  0.0649  0.8678
 4660TIP3   OH235394   5.400   4.511  11.426  0.0531  0.3026 -0.6001
 4660TIP3    H135395   5.362   4.586  11.380  1.7469  1.2229 -0.5851
 4660TIP3    H235396   5.489   4.538  11.447  0.6139 -1.5991 -0.2838
 4661TIP3   OH235397   0.951   6.527   4.686  0.0463  0.0912 -0.2932
 4661TIP3    H135398   0.957   6.622   4.686  2.0937  0.0171 -0.7117
 4661TIP3    H235399   0.992   6.500   4.604  1.3576 -1.1929  0.7203
 4662TIP3   OH235400   2.430   2.716  13.983 -0.1361  0.1576  0.2787
 4662TIP3    H135401   2.416   2.801  13.943 -2.6142 -0.2378  0.1477
 4662TIP3    H235402   2.365   2.711  14.053  0.1646 -1.4964  0.4858
 4663TIP3   OH235403   5.736   6.139   4.433  0.3352 -0.2590 -0.1408
 4663TIP3    H135404   5.769   6.053   4.409 -3.5429 -1.9395 -0.2447
 4663TIP3    H235405   5.719   6.183   4.350 -0.0095 -0.4389 -0.1692
 4664TIP3   OH235406   5.138   2.660  10.979  0.1190  0.4001  0.0308
 4664TIP3    H135407   5.164   2.611  10.901 -0.1768 -0.5185  0.4932
 4664TIP3    H235408   5.053   2.697  10.956 -0.2983 -0.4552  0.1546
 4665TIP3   OH235409   4.023   5.501   2.310  0.3429 -0.0819  0.0383
 4665TIP3    H135410   4.075   5.421   2.309 -0.8280 -0.8696 -0.2341
 4665TIP3    H235411   3.933   5.472   2.292  0.1117  1.4587 -1.6543
 4666TIP3   OH235412   2.005   1.062   3.113  0.0658 -0.0987 -0.2484
 4666TIP3    H135413   1.937   1.068   3.046  1.2885 -0.2066 -1.5495
 4666TIP3    H235414   1.996   0.974   3.149 -1.5879  0.4747  0.8739
 4667TIP3   OH235415   1.096   3.903   0.947 -0.1652  0.9517  0.0433
 4667TIP3    H135416   1.003   3.915   0.966  0.2726  1.4061  2.2726
 4667TIP3    H235417   1.121   3.980   0.897 -0.8059  1.3041  0.2577
 4668TIP3   OH235418   0.435   4.796  14.849 -0.4695  0.0175  0.7758
 4668TIP3    H135419   0.479   4.868  14.804 -1.2277  0.4369  0.6928
 4668TIP3    H235420   0.467   4.718  14.805 -1.0912  0.4127 -0.4123
 4669TIP3   OH235421   3.252   0.951  16.248 -0.0951 -0.1876  0.2430
 4669TIP3    H135422   3.192   1.017  16.282 -0.3571 -0.0632 -0.4521
 4669TIP3    H235423   3.239   0.875  16.305 -1.9916 -0.6806 -0.7328
 4670TIP3   OH235424   2.238   2.180   4.469  0.0732  0.0937  0.5785
 4670TIP3    H135425   2.144   2.190   4.486 -0.0270  0.9485 -0.3660
 4670TIP3    H235426   2.253   2.086   4.474 -0.7849 -0.0349  0.9973
 4671TIP3   OH235427   2.356   1.715  14.682  0.1962 -0.4223  0.6131
 4671TIP3    H135428   2.311   1.798  14.668 -1.1653 -1.1122  0.7747
 4671TIP3    H235429   2.312   1.653  14.624 -0.2805 -1.5234  2.0739
 4672TIP3   OH235430   1.414   3.668   3.553  0.2350 -0.3156 -0.0711
 4672TIP3    H135431   1.480   3.676   3.621  0.2158 -1.9189  0.1871
 4672TIP3    H235432   1.385   3.758   3.535  0.4274  0.1529  1.8334
 4673TIP3   OH235433   3.670   6.029   2.921 -0.1150 -0.2204 -0.2198
 4673TIP3    H135434   3.644   5.977   2.844 -0.4933 -1.6869  0.8613
 4673TIP3    H235435   3.747   5.983   2.955 -0.8329 -0.4557  1.1251
 4674TIP3   OH235436   6.755   2.076  15.004  0.0693  0.1707  0.6678
 4674TIP3    H135437   6.779   1.984  15.001  1.8067  0.5799  0.8812
 4674TIP3    H235438   6.683   2.080  15.068  0.0994 -1.0039  0.7920
 4675TIP3   OH235439   0.308   0.582  12.908 -0.2360  0.0587 -0.4852
 4675TIP3    H135440   0.273   0.635  12.980 -0.4299  0.9427 -1.2029
 4675TIP3    H235441   0.311   0.493  12.943 -2.1548  0.1378 -0.0221
 4676TIP3   OH235442   3.941   0.733   1.267  0.3222 -0.2066  0.0049
 4676TIP3    H135443   4.012   0.676   1.237  0.8596 -0.0460  0.9001
 4676TIP3    H235444   3.875   0.728   1.199  0.5119 -1.6250 -0.1109
 4677TIP3   OH235445   1.291   2.226   3.638  0.2626 -0.6408 -0.2081
 4677TIP3    H135446   1.249   2.300   3.682 -0.1024 -0.1108 -1.4061
 4677TIP3    H235447   1.288   2.155   3.702  1.0687  0.5010  1.1509
 4678TIP3   OH235448   1.300   0.122   5.590  0.2678  0.4341  0.1861
 4678TIP3    H135449   1.260   0.076   5.516  1.5262  0.6618 -0.6724
 4678TIP3    H235450   1.254   0.206   5.594  1.0623  0.9745 -1.2141
 4679TIP3   OH235451   3.373   2.495   3.842 -0.0112  0.5689 -0.4935
 4679TIP3    H135452   3.279   2.511   3.838 -0.0958  0.8244  1.4516
 4679TIP3    H235453   3.413   2.579   3.821 -0.2921  1.0832  0.9142
 4680TIP3   OH235454   3.228   2.458  17.248  0.3607 -0.3719  0.4441
 4680TIP3    H135455   3.263   2.376  17.284 -0.0240 -1.1613 -0.8881
 4680TIP3    H235456   3.146   2.472  17.295  0.0424 -1.1780  0.1479
 4681TIP3   OH235457   1.638   5.852  15.233 -0.1076  0.2863 -0.2769
 4681TIP3    H135458   1.625   5.801  15.313  0.2501 -1.7855 -1.4853
 4681TIP3    H235459   1.723   5.895  15.246 -1.1315  1.9591  1.4160
 4682TIP3   OH235460   2.784   3.935  12.316  0.5424 -0.3661 -0.1759
 4682TIP3    H135461   2.753   4.013  12.270  1.9324  3.1523  4.0977
 4682TIP3    H235462   2.708   3.904  12.365  0.6084  0.2204  0.3269
 4683TIP3   OH235463   6.727   0.737   5.957  0.4538 -0.1712  0.1379
 4683TIP3    H135464   6.799   0.716   5.897  0.7370 -0.1512  0.4647
 4683TIP3    H235465   6.648   0.714   5.908  0.6250  0.7856 -0.6227
 4684TIP3   OH235466   1.034   6.000  17.108 -0.3728 -0.5269  0.0823
 4684TIP3    H135467   1.102   6.045  17.157 -1.2468 -0.4330  1.2633
 4684TIP3    H235468   0.977   5.962  17.175 -0.7843 -1.6796 -0.8776
 4685TIP3   OH235469   5.465   4.836  13.660  0.2566  0.2853  0.4080
 4685TIP3    H135470   5.387   4.794  13.696  0.7161  0.3080  1.4591
 4685TIP3    H235471   5.532   4.824  13.727  1.2345  0.0573 -0.5756
 4686TIP3   OH235472   3.796   1.311  12.788 -0.2677 -0.2752 -0.4618
 4686TIP3    H135473   3.783   1.273  12.701  0.6714  1.9223 -1.6512
 4686TIP3    H235474   3.890   1.306  12.803 -0.4857 -1.1320  0.7001
 4687TIP3   OH235475   0.454   4.395   1.706  0.3184 -0.3733  0.7157
 4687TIP3    H135476   0.521   4.451   1.666 -0.6096  0.7643  0.6827
 4687TIP3    H235477   0.456   4.314   1.655  0.5006  0.3008 -0.3780
 4688TIP3   OH235478   3.055   2.766   2.160 -0.0968  0.4197  0.4025
 4688TIP3    H135479   3.106   2.716   2.096  3.1391 -0.2509  3.1803
 4688TIP3    H235480   3.077   2.857   2.142 -1.7391  0.5379 -1.3012
 4689TIP3   OH235481   0.304   2.327  15.624 -0.1677  0.3059  0.1633
 4689TIP3    H135482   0.280   2.244  15.583  1.5335 -0.2663  0.2283
 4689TIP3    H235483   0.328   2.384  15.551  0.9280 -0.0604  0.2111
 4690TIP3   OH235484   5.650   2.516   1.748  0.1451 -0.3442 -0.0086
 4690TIP3    H135485   5.671   2.557   1.832  1.9292 -0.3472 -0.4238
 4690TIP3    H235486   5.693   2.430   1.752 -0.8353 -0.8756 -0.4366
 4691TIP3   OH235487   0.028   5.244  11.427  0.2553 -0.4470 -0.6384
 4691TIP3    H135488  -0.023   5.257  11.507 -0.4746 -2.3842 -0.7399
 4691TIP3    H235489  -0.033   5.204  11.365  0.9801  0.4421 -1.9876
 4692TIP3   OH235490   1.507   3.865   0.552 -0.5384  0.8377  0.4069
 4692TIP3    H135491   1.414   3.888   0.559 -0.3337  2.0803 -0.6473
 4692TIP3    H235492   1.542   3.880   0.640 -1.1671  1.1149  0.6187
 4693TIP3   OH235493   0.350   2.761  14.303  0.3360  0.4028 -0.3373
 4693TIP3    H135494   0.418   2.828  14.313 -0.0897  1.3149 -2.7042
 4693TIP3    H235495   0.286   2.802  14.244 -0.6112 -1.6030 -0.7737
 4694TIP3   OH235496   4.029   5.875  15.085  1.1320  0.0851 -0.1321
 4694TIP3    H135497   3.979   5.799  15.054  1.4421  0.2742 -1.1383
 4694TIP3    H235498   4.075   5.843  15.162  1.2766 -0.7736 -0.5535
 4695TIP3   OH235499   0.866   3.237  10.805 -0.0888 -0.4916 -0.1498
 4695TIP3    H135500   0.817   3.254  10.724 -0.8494  0.5533  0.5171
 4695TIP3    H235501   0.957   3.253  10.780 -0.5013  2.0803 -0.2777
 4696TIP3   OH235502   0.263   5.808   4.879 -0.2590  0.9460 -0.2058
 4696TIP3    H135503   0.179   5.784   4.840 -0.5524  0.5199  0.6548
 4696TIP3    H235504   0.264   5.903   4.879 -1.2356  0.9810  0.7525
 4697TIP3   OH235505   1.312   0.789  11.720 -0.1052  0.3721  0.2638
 4697TIP3    H135506   1.246   0.789  11.651  1.6357 -0.7482 -1.5277
 4697TIP3    H235507   1.269   0.749  11.795 -1.3959 -0.6025 -0.9413
 4698TIP3   OH235508   2.898   5.520  11.052  0.0590  0.1471 -0.3879
 4698TIP3    H135509   2.979   5.514  11.103 -0.2144 -0.8082 -0.0333
 4698TIP3    H235510   2.841   5.576  11.105  0.4344  0.6953 -0.5641
 4699TIP3   OH235511   4.949   4.237  12.221 -0.5644 -0.6591  0.4747
 4699TIP3    H135512   4.971   4.178  12.294  2.3769 -0.6980 -0.3209
 4699TIP3    H235513   4.940   4.178  12.146 -1.0079 -0.3933  0.3212
 4700TIP3   OH235514   1.031   4.817  15.960  0.0828 -0.1701  0.0468
 4700TIP3    H135515   1.076   4.894  15.995 -1.5622  0.4534  0.8642
 4700TIP3    H235516   1.057   4.814  15.868  1.3254  0.4934  0.3620
 4701TIP3   OH235517   2.949   0.634   4.932 -0.9566  0.2123  0.2787
 4701TIP3    H135518   2.931   0.696   5.003  1.1705 -0.8027  1.8337
 4701TIP3    H235519   2.927   0.548   4.969 -0.9796 -0.2306 -0.7302
 4702TIP3   OH235520   3.018   0.992  15.507 -0.1541 -0.2500  0.2847
 4702TIP3    H135521   2.999   1.084  15.490  0.7171  0.0081  0.6732
 4702TIP3    H235522   3.034   0.955  15.420 -0.8814 -0.1339  0.0903
 4703TIP3   OH235523   1.353   5.125   3.033 -0.3289  0.0392  0.5834
 4703TIP3    H135524   1.375   5.081   3.115  0.5170  0.4843  0.6022
 4703TIP3    H235525   1.435   5.163   3.003 -0.4089 -0.8914 -0.9401
 4704TIP3   OH235526   2.524   5.930  16.068  0.4852  0.1485 -0.5943
 4704TIP3    H135527   2.435   5.915  16.037  0.4345 -1.9740  0.4033
 4704TIP3    H235528   2.561   5.993  16.007 -1.5524  0.7418 -1.2821
 4705TIP3   OH235529   0.335   2.852   4.241  0.0183  0.5505 -0.2163
 4705TIP3    H135530   0.312   2.924   4.182  0.3996 -0.0543 -1.1321
 4705TIP3    H235531   0.279   2.865   4.317 -0.2181  1.5715 -0.5465
 4706TIP3   OH235532   6.638   0.293  16.971 -0.6892  0.1151 -0.2421
 4706TIP3    H135533   6.599   0.378  16.952 -0.8061 -0.7100 -4.7959
 4706TIP3    H235534   6.563   0.236  16.990 -1.0727  0.1978 -1.3954
 4707TIP3   OH235535   5.883   5.645   5.769 -0.0967  0.2986  0.7615
 4707TIP3    H135536   5.954   5.709   5.773  0.9086 -0.8139  1.5971
 4707TIP3    H235537   5.852   5.638   5.860 -0.5812  0.0153  0.5802
 4708TIP3   OH235538   0.693   1.399   0.678 -0.4365  0.3276  0.3140
 4708TIP3    H135539   0.691   1.402   0.774 -0.9615 -0.0477  0.3203
 4708TIP3    H235540   0.682   1.490   0.650 -1.7947  0.2818  0.6033
 4709TIP3   OH235541   1.112   6.411   3.305 -0.2749  0.5446 -0.5830
 4709TIP3    H135542   1.196   6.400   3.350  0.0727 -0.3388 -1.4144
 4709TIP3    H235543   1.047   6.405   3.374  0.3047  0.3055 -0.0494
 4710TIP3   OH235544   0.217   6.317  14.129 -0.0564 -0.1016 -0.3522
 4710TIP3    H135545   0.241   6.396  14.179  0.4450 -0.4581 -0.0157
 4710TIP3    H235546   0.295   6.262  14.133 -0.8160 -1.1638  0.4930
 4711TIP3   OH235547   1.838   0.708   1.326  0.6882  0.3204 -0.2148
 4711TIP3    H135548   1.859   0.790   1.281  1.2142  0.0392 -0.4927
 4711TIP3    H235549   1.828   0.733   1.418 -3.9127  1.5744 -0.8066
 4712TIP3   OH235550   6.647   3.941  15.716  0.2774  0.8520  0.3157
 4712TIP3    H135551   6.664   4.026  15.757 -0.7285  1.1136  0.2093
 4712TIP3    H235552   6.709   3.936  15.644  1.2092  0.9356  1.0970
 4713TIP3   OH235553   1.480   2.449   2.758 -0.1207 -0.2933  0.0376
 4713TIP3    H135554   1.540   2.524   2.750  0.7839 -0.9554  0.5226
 4713TIP3    H235555   1.522   2.380   2.707 -2.1539  0.2048 -2.5484
 4714TIP3   OH235556   2.601   5.456  16.783  0.1905  0.4273  0.5237
 4714TIP3    H135557   2.624   5.481  16.694  1.3481  0.8873  0.9355
 4714TIP3    H235558   2.571   5.538  16.823 -2.4655 -0.1904 -0.0527
 4715TIP3   OH235559   6.284   3.741   2.193 -0.3233  0.4344 -0.2467
 4715TIP3    H135560   6.309   3.815   2.247  1.9789 -0.3133 -0.2106
 4715TIP3    H235561   6.282   3.666   2.253 -1.5075  0.2391 -0.4996
 4716TIP3   OH235562   5.182   2.942   1.385  0.2819 -0.1145 -0.0471
 4716TIP3    H135563   5.190   2.899   1.471 -1.4916 -0.9122 -0.2261
 4716TIP3    H235564   5.139   2.876   1.330  2.4709 -0.0813 -1.9362
 4717TIP3   OH235565   0.722   2.370  12.752 -0.2317  0.4564 -0.4658
 4717TIP3    H135566   0.793   2.326  12.704  0.3540 -0.2856  1.0212
 4717TIP3    H235567   0.766   2.438  12.802 -0.6618  0.4081 -0.0283
 4718TIP3   OH235568   5.402   6.765  16.864  0.0388  0.1684  0.3790
 4718TIP3    H135569   5.493   6.788  16.878  0.3403 -0.9513  0.3641
 4718TIP3    H235570   5.383   6.795  16.775  1.1052 -1.6564 -0.5213
 4719TIP3   OH235571   2.277   4.240   5.242  0.1359  0.0627 -0.3882
 4719TIP3    H135572   2.204   4.229   5.181 -1.6621 -2.6086  2.0090
 4719TIP3    H235573   2.355   4.223   5.188 -0.8956  2.3623 -2.8680
 4720TIP3   OH235574   4.013   5.154  11.459 -0.1121  0.0778 -0.3110
 4720TIP3    H135575   3.936   5.153  11.402 -0.4412 -1.1302  0.1163
 4720TIP3    H235576   3.977   5.145  11.547  0.2655  3.4439  0.3337
 4721TIP3   OH235577   3.105   4.543   2.426 -0.0093 -0.1127 -0.1161
 4721TIP3    H135578   3.077   4.502   2.507  0.9480  0.9140  0.7583
 4721TIP3    H235579   3.176   4.602   2.451 -0.7424  1.4257 -1.4473
 4722TIP3   OH235580   2.064   3.720  15.915 -0.0469  0.0920  0.1432
 4722TIP3    H135581   2.111   3.674  15.846 -1.0633 -0.7490 -0.0054
 4722TIP3    H235582   2.074   3.813  15.893  1.5530 -0.0586  0.1452
 4723TIP3   OH235583   0.189   0.315  15.795  0.1369  0.0970 -0.0324
 4723TIP3    H135584   0.158   0.337  15.883 -0.5016 -0.6385 -0.0678
 4723TIP3    H235585   0.268   0.263  15.810  0.1491  0.1531  0.1000
 4724TIP3   OH235586   1.390   2.725   0.245  0.1821 -0.0965 -0.5393
 4724TIP3    H135587   1.328   2.658   0.271  0.0476  0.4826  0.6946
 4724TIP3    H235588   1.342   2.807   0.251  0.7400  0.2506 -0.6695
 4725TIP3   OH235589   1.942   1.857   4.903 -0.2762  0.6243  0.5993
 4725TIP3    H135590   2.032   1.828   4.918 -0.9170 -1.0456  1.4544
 4725TIP3    H235591   1.889   1.801   4.959 -2.0665 -0.0281 -1.5908
 4726TIP3   OH235592   4.521   1.416   2.022  0.5622  0.0535 -0.5562
 4726TIP3    H135593   4.494   1.333   2.059 -1.7101  0.4844 -1.0901
 4726TIP3    H235594   4.453   1.438   1.958  0.8445  2.5250 -0.1308
 4727TIP3   OH235595   6.069   4.891   1.402  0.2871  0.3250 -0.9800
 4727TIP3    H135596   6.147   4.836   1.408  0.0058 -0.1613 -1.6631
 4727TIP3    H235597   5.997   4.833   1.426  0.2878  1.2948  1.7769
 4728TIP3   OH235598   0.025   1.908  12.776 -0.1990 -0.3874  0.0868
 4728TIP3    H135599   0.092   1.914  12.707  1.9703 -0.3907  2.0654
 4728TIP3    H235600  -0.008   1.819  12.770 -1.8399  0.2846 -2.4144
 4729TIP3   OH235601   0.432   4.067  16.637  0.1371 -0.1426 -0.3148
 4729TIP3    H135602   0.450   4.037  16.548 -0.8100  0.5393 -0.7521
 4729TIP3    H235603   0.362   4.130  16.627  0.3595  0.3160  0.8717
 4730TIP3   OH235604   6.530   3.508  15.098 -0.1576  0.0139  0.3937
 4730TIP3    H135605   6.483   3.485  15.018 -1.5495  0.1816  1.1415
 4730TIP3    H235606   6.549   3.423  15.139  1.1409 -0.1135 -0.3942
 4731TIP3   OH235607   1.461   3.242   5.199  0.0478 -0.0008 -0.2172
 4731TIP3    H135608   1.384   3.286   5.236  0.4329 -0.7501  1.5661
 4731TIP3    H235609   1.472   3.282   5.113 -2.6712 -0.2711 -0.7920
 4732TIP3   OH235610   2.806   2.800  13.005  0.5362  0.3874 -0.2834
 4732TIP3    H135611   2.723   2.806  13.052  0.9372 -1.4309  0.7357
 4732TIP3    H235612   2.803   2.873  12.942 -1.6477  0.5883 -0.0306
 4733TIP3   OH235613   0.632   6.549  10.910  0.6985 -0.3530  1.1597
 4733TIP3    H135614   0.706   6.582  10.859 -0.0997  0.4381  0.4844
 4733TIP3    H235615   0.671   6.486  10.971  1.7227 -1.1041 -0.2111
 4734TIP3   OH235616   2.871   0.393  13.336  0.4404  0.0656 -0.1201
 4734TIP3    H135617   2.834   0.441  13.409  1.4254 -0.8889  1.0577
 4734TIP3    H235618   2.963   0.420  13.332  0.7842 -1.0062 -0.0053
 4735TIP3   OH235619   0.845   5.414  16.265  0.1287  0.0007 -0.0022
 4735TIP3    H135620   0.899   5.357  16.210 -0.0738  0.3984 -0.6249
 4735TIP3    H235621   0.755   5.390  16.242  0.0430  0.4691 -0.1672
 4736TIP3   OH235622   0.716   2.929   0.698 -0.3880 -0.4100  0.5288
 4736TIP3    H135623   0.678   2.842   0.700  0.1692 -0.6702  0.1108
 4736TIP3    H235624   0.756   2.936   0.611  0.9975 -0.3664  1.1388
 4737TIP3   OH235625   1.596   0.030   3.922 -0.1870 -0.4617 -0.0227
 4737TIP3    H135626   1.502   0.020   3.935 -0.4130 -4.1510 -2.7997
 4737TIP3    H235627   1.605   0.052   3.829  1.6792 -1.3583 -0.1016
 4738TIP3   OH235628   0.033   3.015  14.993 -0.5833  0.4674 -0.4991
 4738TIP3    H135629  -0.015   3.001  15.074  3.0291 -1.7560  1.5502
 4738TIP3    H235630   0.049   2.927  14.959  0.9787  1.1555 -1.6760
 4739TIP3   OH235631   0.417   1.183   0.693  0.1486 -0.0634 -0.2403
 4739TIP3    H135632   0.433   1.203   0.601  2.0454  1.4124  0.3466
 4739TIP3    H235633   0.429   1.266   0.739  3.3746 -1.4162  1.7515
 4740TIP3   OH235634   1.594   1.573   0.450 -0.0077 -0.5211 -0.2779
 4740TIP3    H135635   1.671   1.518   0.465 -0.0383 -0.4274  0.2718
 4740TIP3    H235636   1.564   1.549   0.363  1.8278  0.8763 -1.3716
 4741TIP3   OH235637   4.406   2.052  12.089 -0.3117 -0.0348 -0.8070
 4741TIP3    H135638   4.465   1.985  12.055 -0.6720 -0.7899 -0.0044
 4741TIP3    H235639   4.324   2.005  12.105 -0.5788  0.6061 -0.2401
 4742TIP3   OH235640   0.652   0.107  12.977 -0.3662  0.2844  0.1318
 4742TIP3    H135641   0.597   0.093  13.055  1.0732 -0.9239  0.9756
 4742TIP3    H235642   0.618   0.045  12.913  0.0550 -0.5679  0.7030
 4743TIP3   OH235643   2.641   1.247   0.205  0.2611 -0.1858  0.4191
 4743TIP3    H135644   2.566   1.214   0.254 -0.5625 -2.9535 -2.4329
 4743TIP3    H235645   2.717   1.210   0.251 -0.4926 -2.8806 -0.3456
 4744TIP3   OH235646   4.646   3.944   1.652  0.0603  0.6739  0.0421
 4744TIP3    H135647   4.614   3.974   1.737 -2.0258  1.2608 -0.8913
 4744TIP3    H235648   4.594   3.993   1.588  0.6706 -0.6981 -1.5744
 4745TIP3   OH235649   4.172   4.909   1.545 -0.2137  0.1367  0.0958
 4745TIP3    H135650   4.264   4.890   1.566 -0.8141 -2.5338  0.7354
 4745TIP3    H235651   4.146   4.839   1.485 -1.4790  1.6813 -1.2429
 4746TIP3   OH235652   0.563   5.402  15.874  0.5563  0.2482 -0.3946
 4746TIP3    H135653   0.608   5.470  15.824  1.3197  1.3591  1.6902
 4746TIP3    H235654   0.470   5.415  15.853  0.7603  1.4102 -0.6621
 4747TIP3   OH235655   4.744   0.044   4.177 -0.1501  0.4085  0.4221
 4747TIP3    H135656   4.696   0.105   4.121 -2.2781 -0.3642  1.3438
 4747TIP3    H235657   4.747  -0.038   4.127  0.5477  0.5353  0.2343
 4748TIP3   OH235658   4.435   2.049   2.616  0.0395 -0.2550  0.3854
 4748TIP3    H135659   4.404   1.995   2.543  2.1740  0.9666 -1.5758
 4748TIP3    H235660   4.512   2.002   2.649  1.5549  1.1642 -0.9451
 4749TIP3   OH235661   1.650   1.830   1.938 -0.4371  0.0744  0.7288
 4749TIP3    H135662   1.741   1.857   1.950 -0.0825 -0.7123 -0.0567
 4749TIP3    H235663   1.623   1.798   2.025  1.1866 -2.9415  0.2807
 4750TIP3   OH235664   5.613   1.707   6.059  0.6186 -0.3456  0.7897
 4750TIP3    H135665   5.658   1.744   6.135 -1.7241  2.7834  0.8456
 4750TIP3    H235666   5.543   1.653   6.097 -1.2753  2.1177  1.0632
 4751TIP3   OH235667   3.482   2.698   1.710 -0.0892  0.1668  0.1932
 4751TIP3    H135668   3.422   2.628   1.682 -1.3908  0.9258  0.9790
 4751TIP3    H235669   3.527   2.662   1.786 -2.7292  1.0425  2.3224
 4752TIP3   OH235670   4.645   5.677   0.122 -0.5150  0.4116  0.1576
 4752TIP3    H135671   4.729   5.633   0.130 -0.4599  0.2006 -1.2294
 4752TIP3    H235672   4.645   5.744   0.190  1.2242  1.1022 -0.4876
 4753TIP3   OH235673   1.802   3.796  14.541  0.6395 -0.2300 -0.5460
 4753TIP3    H135674   1.759   3.878  14.564  1.8132  0.6356 -1.3129
 4753TIP3    H235675   1.748   3.728  14.581 -0.0424  0.9413  0.5926
 4754TIP3   OH235676   1.002   0.665   2.224  0.2675  0.3455 -0.4398
 4754TIP3    H135677   0.908   0.658   2.208 -0.0747 -0.5898  1.6479
 4754TIP3    H235678   1.029   0.743   2.175 -1.5748  0.6114 -1.0993
 4755TIP3   OH235679   4.410   5.270  11.122  0.4681 -0.3270  0.3709
 4755TIP3    H135680   4.439   5.309  11.039 -1.1803 -0.5608 -0.3737
 4755TIP3    H235681   4.363   5.340  11.166 -0.5673 -0.8026  0.0603
 4756TIP3   OH235682   1.555   0.981  11.032  0.2792  0.0687  0.2814
 4756TIP3    H135683   1.599   0.904  11.068  0.8689  0.0956 -0.3515
 4756TIP3    H235684   1.515   0.949  10.951 -1.7672 -0.2063  1.3332
 4757TIP3   OH235685   0.947   1.940   4.943 -0.0945  0.6319  0.1001
 4757TIP3    H135686   1.017   1.957   4.880  0.2291  3.0523  1.0005
 4757TIP3    H235687   0.868   1.931   4.889  0.4940  0.5740 -0.7670
 4758TIP3   OH235688   2.587   2.266   4.708  0.5849  0.0781  0.1822
 4758TIP3    H135689   2.660   2.227   4.757 -0.0406 -2.6339 -0.9051
 4758TIP3    H235690   2.513   2.262   4.769  0.9360  1.4200  0.7389
 4759TIP3   OH235691   4.422   5.854  12.942 -0.0729 -0.6988  0.5301
 4759TIP3    H135692   4.370   5.934  12.942  1.5870  0.5382  3.0930
 4759TIP3    H235693   4.477   5.861  12.864 -1.2562 -0.3347 -0.3036
 4760TIP3   OH235694   1.689   2.042   3.542  0.0875  0.2718  0.4177
 4760TIP3    H135695   1.618   2.030   3.479  0.7489  0.8661 -0.4525
 4760TIP3    H235696   1.652   2.101   3.608  0.0108  1.2233 -0.4495
 4761TIP3   OH235697   6.363   3.943  11.090 -0.9603 -0.0007  0.1593
 4761TIP3    H135698   6.315   3.971  11.012 -2.4500 -1.8330  0.3368
 4761TIP3    H235699   6.350   3.848  11.093  2.6774 -0.6204  0.2909
 4762TIP3   OH235700   5.040   3.962  11.623 -0.4079  0.1099 -0.6668
 4762TIP3    H135701   5.125   3.930  11.653 -1.3798 -3.9199 -1.6535
 4762TIP3    H235702   5.041   3.948  11.528 -2.1591  0.0185 -0.6986
 4763TIP3   OH235703   1.666   0.962  14.513  0.5569 -0.6072 -0.0518
 4763TIP3    H135704   1.592   1.006  14.470  0.3506  0.2501  1.1246
 4763TIP3    H235705   1.721   1.034  14.545  1.6102 -1.2341 -0.3912
 4764TIP3   OH235706   3.012   2.917  16.790 -0.0455  0.4526 -0.2186
 4764TIP3    H135707   2.996   2.824  16.806 -2.1943  1.0132  1.3131
 4764TIP3    H235708   3.097   2.934  16.831 -1.4337 -0.0668  3.2474
 4765TIP3   OH235709   5.869   0.258  15.742 -0.3290 -0.5403 -0.1065
 4765TIP3    H135710   5.814   0.283  15.668 -2.0691 -2.1842  0.5677
 4765TIP3    H235711   5.917   0.181  15.711 -1.7004 -1.7584  0.7091
 4766TIP3   OH235712   3.665   0.927   4.365 -0.8109 -0.2263 -0.0061
 4766TIP3    H135713   3.587   0.897   4.411 -0.7905 -0.0151  0.1685
 4766TIP3    H235714   3.643   0.920   4.272 -1.0939 -0.0210  0.0461
 4767TIP3   OH235715   3.354   0.196   5.046 -0.4759 -0.1420 -0.4497
 4767TIP3    H135716   3.347   0.106   5.014  0.6815 -0.6754  0.7286
 4767TIP3    H235717   3.268   0.235   5.028 -1.5204 -1.9397  0.4451
 4768TIP3   OH235718   3.694   1.553  12.916 -0.0389 -0.2595  0.0630
 4768TIP3    H135719   3.616   1.548  12.971  0.9187 -0.3140  1.4750
 4768TIP3    H235720   3.695   1.470  12.868 -0.2641 -0.7556  0.8838
 4769TIP3   OH235721   1.968   6.512  16.341 -0.2433 -0.0053 -0.9083
 4769TIP3    H135722   1.931   6.458  16.270 -0.3896 -1.1194 -0.0218
 4769TIP3    H235723   2.063   6.501  16.332 -0.2740 -2.0905  0.4271
 4770TIP3   OH235724   0.368   3.349   1.311  0.2088  0.5512 -0.2481
 4770TIP3    H135725   0.395   3.366   1.220  1.2299 -0.2887 -0.1196
 4770TIP3    H235726   0.424   3.405   1.364  3.1396 -2.4287  0.1372
 4771TIP3   OH235727   3.927   5.185   3.198  0.4973  0.0874  0.2976
 4771TIP3    H135728   3.917   5.095   3.168  0.8922  0.2779 -0.4308
 4771TIP3    H235729   3.972   5.178   3.282 -0.4616 -0.4472  0.7869
 4772TIP3   OH235730   2.506   4.803  16.134 -0.7484 -0.1786  0.0834
 4772TIP3    H135731   2.518   4.895  16.157 -1.7585 -0.2698  1.0455
 4772TIP3    H235732   2.579   4.757  16.175  0.0076  0.2380 -0.7716
 4773TIP3   OH235733   4.951   5.070   3.709 -0.2930  0.4574 -0.0266
 4773TIP3    H135734   5.003   5.096   3.633  0.1734  0.2562  0.2219
 4773TIP3    H235735   4.955   4.975   3.710  0.0767  0.4774  0.5110
 4774TIP3   OH235736   6.457   6.762  14.517  0.1146 -0.2051  0.5784
 4774TIP3    H135737   6.401   6.721  14.451 -0.6827 -0.5097  1.4139
 4774TIP3    H235738   6.530   6.703  14.528 -1.0587 -1.5065  1.8258
 4775TIP3   OH235739   0.319   2.811   5.320 -0.0899  0.1047 -0.0555
 4775TIP3    H135740   0.226   2.788   5.331  0.2338 -0.0615  2.9652
 4775TIP3    H235741   0.358   2.734   5.279 -0.9250 -0.6642  0.5560
 4776TIP3   OH235742   4.431   5.162   5.782 -1.0309 -0.0523 -0.0331
 4776TIP3    H135743   4.384   5.081   5.766 -0.2371 -0.9142  1.6773
 4776TIP3    H235744   4.408   5.186   5.872 -1.6805  1.9359 -0.6946
 4777TIP3   OH235745   1.032   2.486  16.761 -0.8430  0.3223 -0.2759
 4777TIP3    H135746   1.068   2.562  16.807 -1.2481  0.9671 -0.9951
 4777TIP3    H235747   1.073   2.410  16.802  0.4326  0.9890 -0.2997
 4778TIP3   OH235748   5.332   4.901   4.212 -0.0689 -0.3397 -0.0406
 4778TIP3    H135749   5.273   4.955   4.159 -0.8782 -1.4785 -0.3568
 4778TIP3    H235750   5.408   4.957   4.229  0.0260  0.2106 -2.0315
 4779TIP3   OH235751   6.321   3.394   4.288 -0.0324  0.0989 -0.0170
 4779TIP3    H135752   6.313   3.321   4.349  0.1179 -1.3351 -1.6365
 4779TIP3    H235753   6.277   3.364   4.208  0.4783  1.5830 -0.9008
 4780TIP3   OH235754   1.306   3.141  15.308 -0.0079 -0.6056  0.0628
 4780TIP3    H135755   1.225   3.184  15.280 -0.4190 -2.1553 -1.3079
 4780TIP3    H235756   1.356   3.210  15.351 -0.5918  1.2819 -2.0631
 4781TIP3   OH235757   0.203   5.043  12.696  0.0285 -0.0569  0.0534
 4781TIP3    H135758   0.134   4.991  12.737  0.2374 -0.8664 -0.6033
 4781TIP3    H235759   0.283   4.995  12.715  0.1423 -0.3951 -1.1839
 4782TIP3   OH235760   4.067   6.225   3.621  0.0811 -0.8267 -0.4632
 4782TIP3    H135761   4.066   6.184   3.708 -2.1401 -1.4517 -0.7311
 4782TIP3    H235762   3.975   6.243   3.602  0.7870  3.5792 -0.7567
 4783TIP3   OH235763   1.359   4.475   2.167 -0.3037  0.1530 -0.0417
 4783TIP3    H135764   1.425   4.491   2.101 -0.1474  1.2180  0.3357
 4783TIP3    H235765   1.277   4.470   2.118 -0.0267 -0.4812 -0.4440
 4784TIP3   OH235766   0.640   5.918  13.288  0.1442  0.1231 -0.6989
 4784TIP3    H135767   0.643   5.998  13.235 -1.0006  0.4439 -0.3008
 4784TIP3    H235768   0.621   5.849  13.225  0.5009  0.2525 -0.9539
 4785TIP3   OH235769   2.065   0.464  14.006  0.6080  0.5395  0.1406
 4785TIP3    H135770   2.102   0.549  14.029  1.1401  0.8640 -1.7327
 4785TIP3    H235771   2.099   0.404  14.072  1.7500  1.4481  0.3978
 4786TIP3   OH235772   4.882   6.285  12.257 -0.2558  0.2044  0.2473
 4786TIP3    H135773   4.889   6.190  12.253  0.5124  0.2658 -0.0786
 4786TIP3    H235774   4.818   6.302  12.326  0.1008 -0.5316  0.7705
 4787TIP3   OH235775   5.479   6.229  15.430 -0.3687  0.0273  0.2616
 4787TIP3    H135776   5.521   6.156  15.475 -0.6488  0.3870  1.1389
 4787TIP3    H235777   5.494   6.305  15.487  0.7414  0.8801 -1.0969
 4788TIP3   OH235778   6.066   1.642   2.568  0.1533 -0.0618  0.5207
 4788TIP3    H135779   6.129   1.635   2.639 -0.0337  1.3174  0.8542
 4788TIP3    H235780   6.029   1.730   2.577 -1.9443 -0.8593  0.4573
 4789TIP3   OH235781   0.557   4.943   1.384  0.5677  0.0591 -0.7298
 4789TIP3    H135782   0.495   5.015   1.389 -0.6236 -1.0340  2.8400
 4789TIP3    H235783   0.541   4.891   1.462  4.6597 -1.4485 -0.6343
 4790TIP3   OH235784   6.665   1.150  15.507 -0.2714  0.0648  0.2806
 4790TIP3    H135785   6.633   1.187  15.425  2.1336  2.8800  0.4611
 4790TIP3    H235786   6.746   1.104  15.483  1.3025  2.2222  1.1533
 4791TIP3   OH235787   5.484   0.628   3.468 -0.0492  0.3467  0.0645
 4791TIP3    H135788   5.409   0.604   3.522  0.3792  0.8493  0.9096
 4791TIP3    H235789   5.453   0.702   3.415 -0.5650 -0.3452 -0.6214
 4792TIP3   OH235790   0.291   0.888  10.836 -0.1066  0.8864 -1.0512
 4792TIP3    H135791   0.268   0.859  10.747 -3.3111 -1.5620  0.3636
 4792TIP3    H235792   0.207   0.911  10.876  0.9355 -0.0766  1.9698
 4793TIP3   OH235793   6.655   3.405   4.834 -0.8031 -0.3968  0.0679
 4793TIP3    H135794   6.695   3.490   4.817  1.2534 -1.2044  0.5388
 4793TIP3    H235795   6.594   3.421   4.906 -1.6602  0.9558 -0.9129
 4794TIP3   OH235796   1.332   5.187   4.705 -0.5456 -0.0559 -0.2531
 4794TIP3    H135797   1.422   5.206   4.730 -0.3928 -1.0781  0.0007
 4794TIP3    H235798   1.280   5.211   4.782 -0.6385  1.5222 -0.7544
 4795TIP3   OH235799   0.351   4.854   2.125 -0.1540 -0.1927 -0.9508
 4795TIP3    H135800   0.371   4.761   2.138 -1.4103 -0.4059 -0.4767
 4795TIP3    H235801   0.419   4.900   2.175 -0.6397 -0.8891  0.3821
 4796TIP3   OH235802   4.015   0.144  14.698 -0.2945 -0.1249  0.2466
 4796TIP3    H135803   4.042   0.070  14.753  2.0454  0.5864  0.1726
 4796TIP3    H235804   3.945   0.109  14.643 -0.5964 -1.7169  1.5541
 4797TIP3   OH235805   3.523   1.790   1.566  1.0978 -0.4286  1.4604
 4797TIP3    H135806   3.491   1.722   1.507  2.0602 -0.2058  0.6634
 4797TIP3    H235807   3.444   1.830   1.602  0.4801 -0.4072  0.1313
 4798TIP3   OH235808   0.118   0.016  16.511  0.6979 -0.4593  0.0336
 4798TIP3    H135809   0.083   0.069  16.583  2.6499 -0.1029  0.7744
 4798TIP3    H235810   0.101  -0.075  16.538 -0.2266 -0.2965  0.0443
 4799TIP3   OH235811   5.999   2.935   2.918  0.0172 -0.1998  0.2980
 4799TIP3    H135812   5.937   3.006   2.905 -0.2195 -0.5072 -0.2628
 4799TIP3    H235813   5.952   2.872   2.973 -0.5474 -0.9063 -0.9679
 4800TIP3   OH235814   1.264   3.681   4.619  0.0809 -0.0897  0.1310
 4800TIP3    H135815   1.251   3.739   4.543 -1.0500 -0.6218 -0.0915
 4800TIP3    H235816   1.277   3.594   4.580 -0.9188 -0.4353  0.5606
 4801TIP3   OH235817   2.137   6.031  15.600 -0.3510 -0.1323 -0.1772
 4801TIP3    H135818   2.202   6.095  15.572  1.5453 -1.5532  0.7139
 4801TIP3    H235819   2.061   6.082  15.624  0.5426  1.6422 -0.9558
 4802TIP3   OH235820   3.498   1.455   0.550 -0.0725 -0.3156  0.4849
 4802TIP3    H135821   3.529   1.463   0.460  2.9269 -1.3095  1.3189
 4802TIP3    H235822   3.497   1.361   0.566 -1.7374 -0.2148  1.1891
 4803TIP3   OH235823   2.953   3.666  16.403 -0.9001  0.4584 -0.6777
 4803TIP3    H135824   2.915   3.698  16.321 -1.1368  1.2406 -0.2747
 4803TIP3    H235825   2.905   3.585  16.421 -0.7038  0.1698 -1.4148
 4804TIP3   OH235826   4.643   5.383  13.288 -0.7127 -0.0479 -0.6208
 4804TIP3    H135827   4.557   5.423  13.300  0.5440  3.0046 -0.7667
 4804TIP3    H235828   4.688   5.398  13.371  0.5570  0.9729 -1.4385
 4805TIP3   OH235829   6.375   0.325   3.252  0.1030  0.8183  0.0191
 4805TIP3    H135830   6.395   0.353   3.163  0.9539 -1.3764 -0.5569
 4805TIP3    H235831   6.460   0.322   3.296  0.2699 -1.6545 -0.2863
 4806TIP3   OH235832   6.136   2.796   3.337  0.7137  0.0013  0.0878
 4806TIP3    H135833   6.182   2.718   3.367  0.1211 -0.8012 -0.9970
 4806TIP3    H235834   6.205   2.854   3.305  1.1016 -0.4197  0.1548
 4807TIP3   OH235835   4.888   2.177   5.290  0.3416 -0.0148 -0.0749
 4807TIP3    H135836   4.813   2.119   5.304  0.6099 -0.3606 -0.0687
 4807TIP3    H235837   4.883   2.241   5.362  0.3319 -0.3309  0.2069
 4808TIP3   OH235838   5.140   0.433   2.276  0.5226  0.4010  0.0033
 4808TIP3    H135839   5.222   0.392   2.248  1.7861  0.1175  3.5471
 4808TIP3    H235840   5.082   0.359   2.296  0.3022  0.5404 -0.1162
 4809TIP3   OH235841   1.714   0.661   3.758 -0.6394  0.2743 -0.0047
 4809TIP3    H135842   1.793   0.630   3.714 -0.4639  1.3397 -0.4622
 4809TIP3    H235843   1.692   0.743   3.714  0.5462  2.3760  2.9388
 4810TIP3   OH235844   0.514   6.594  13.286  0.2598  0.2136 -0.3466
 4810TIP3    H135845   0.583   6.533  13.311 -0.0680 -0.5856 -1.2994
 4810TIP3    H235846   0.495   6.643  13.366 -0.5273 -1.9928  0.9417
 4811TIP3   OH235847   0.810   3.391  16.131  0.4214  0.2833  0.1804
 4811TIP3    H135848   0.867   3.368  16.057 -0.8188 -0.5248 -0.5526
 4811TIP3    H235849   0.820   3.486  16.140  0.0770  0.5107 -1.5015
 4812TIP3   OH235850   4.406   2.565   4.524 -0.0282  0.0690 -0.0429
 4812TIP3    H135851   4.409   2.568   4.619 -0.6517 -1.9494  0.0887
 4812TIP3    H235852   4.324   2.520   4.503  1.2138 -1.7079 -1.4194
 4813TIP3   OH235853   1.085   4.943  16.640  0.4563  0.5178 -0.0810
 4813TIP3    H135854   1.009   4.886  16.634  0.9622 -0.1676 -0.1140
 4813TIP3    H235855   1.131   4.930  16.557  1.7431 -0.7222  0.7956
 4814TIP3   OH235856   2.218   4.360  14.925 -0.1700 -0.0153  0.0277
 4814TIP3    H135857   2.221   4.314  15.009  0.7432  1.6782  0.9694
 4814TIP3    H235858   2.282   4.316  14.871 -0.3303 -0.7467  0.4185
 4815TIP3   OH235859   2.226   2.921   5.782  0.3593  0.0062 -0.2950
 4815TIP3    H135860   2.170   2.970   5.842 -0.3094  0.6413 -1.4035
 4815TIP3    H235861   2.177   2.919   5.699  1.3691 -0.6222 -0.9002
 4816TIP3   OH235862   5.009   6.656  11.847 -0.1851  0.4326  0.0828
 4816TIP3    H135863   4.920   6.692  11.847 -1.3019 -2.0977  1.3447
 4816TIP3    H235864   5.007   6.588  11.780  1.0644  0.8734 -0.4210
 4817TIP3   OH235865   6.002   1.870  14.988 -0.0058  0.1883  0.1051
 4817TIP3    H135866   6.031   1.779  14.995  1.4048  0.4182 -1.8182
 4817TIP3    H235867   6.009   1.890  14.894  0.0620  2.3805  0.5255
 4818TIP3   OH235868   3.547   1.775  12.845 -0.1423 -0.7073 -0.0569
 4818TIP3    H135869   3.612   1.705  12.840 -1.3308 -1.8821  0.3095
 4818TIP3    H235870   3.469   1.739  12.801 -0.2482  1.0604 -1.4521
 4819TIP3   OH235871   0.678   3.234  15.803 -0.0658 -0.1447 -0.1124
 4819TIP3    H135872   0.629   3.250  15.884  0.2306  0.0342  0.0318
 4819TIP3    H235873   0.715   3.146  15.815 -0.2811 -0.2483 -0.1888
 4820TIP3   OH235874   3.235   3.752   1.869  0.0392  0.0532 -0.6666
 4820TIP3    H135875   3.142   3.771   1.857  0.0328 -0.4589 -1.5705
 4820TIP3    H235876   3.239   3.700   1.949 -0.5002 -0.2573 -0.8360
 4821TIP3   OH235877   6.020   3.803  14.695  0.0154 -0.1628  0.6549
 4821TIP3    H135878   6.036   3.897  14.682 -0.3354  0.3318  3.1719
 4821TIP3    H235879   6.107   3.763  14.691  0.1601  0.2379 -0.5325
 4822TIP3   OH235880   3.021   1.770  12.069  0.1876 -0.8608  0.6663
 4822TIP3    H135881   3.059   1.697  12.119 -1.8829 -2.9817 -0.6588
 4822TIP3    H235882   2.931   1.777  12.101 -0.8524 -1.5522 -1.9005
 4823TIP3   OH235883   1.900   2.695   4.194  0.5332 -0.3400  0.1418
 4823TIP3    H135884   1.857   2.767   4.241 -1.3330 -0.4935 -1.1852
 4823TIP3    H235885   1.975   2.735   4.151 -0.8282  1.0181 -1.0902
 4824TIP3   OH235886   1.857   0.773  10.713 -1.0524  0.2143 -0.2203
 4824TIP3    H135887   1.809   0.853  10.690 -2.1708 -0.4687 -0.3616
 4824TIP3    H235888   1.792   0.703  10.701  0.1884 -0.8256 -1.0635
 4825TIP3   OH235889   4.423   0.443  12.464 -0.0148  0.5392  0.1191
 4825TIP3    H135890   4.473   0.362  12.457 -0.6909  0.1532 -0.2863
 4825TIP3    H235891   4.416   0.459  12.558 -2.1490 -1.3200  0.3609
 4826TIP3   OH235892   3.065   2.358   0.388  0.1807  0.1183 -0.0587
 4826TIP3    H135893   3.115   2.350   0.469 -0.2379  0.6548  0.2571
 4826TIP3    H235894   2.976   2.331   0.411 -0.0223  0.6045 -0.2453
 4827TIP3   OH235895   6.652   1.478  15.903 -0.3713  0.0334 -0.3517
 4827TIP3    H135896   6.714   1.416  15.941 -1.6906 -0.8127  0.5384
 4827TIP3    H235897   6.584   1.423  15.864 -0.5003  0.9310 -1.4344
 4828TIP3   OH235898   1.322   6.021   3.206 -0.0613  0.1885  0.2323
 4828TIP3    H135899   1.316   5.931   3.176  2.3399  0.2182 -0.5404
 4828TIP3    H235900   1.304   6.016   3.300  3.3890 -1.7337  0.9618
 4829TIP3   OH235901   6.469   3.656  12.456  0.4076 -0.9100  0.2973
 4829TIP3    H135902   6.518   3.595  12.511  0.3127 -1.7348 -0.5055
 4829TIP3    H235903   6.531   3.726  12.436  0.2318 -0.1963  2.0251
 4830TIP3   OH235904   3.761   0.189   0.022 -0.2691  0.0842 -0.5179
 4830TIP3    H135905   3.710   0.127  -0.030  1.0852 -0.8444 -0.7886
 4830TIP3    H235906   3.777   0.262  -0.038  0.8979 -0.7791 -1.3022
 4831TIP3   OH235907   3.432   0.549  13.334  0.0229 -0.5025 -0.1691
 4831TIP3    H135908   3.517   0.530  13.294  0.1575  0.8361 -0.5774
 4831TIP3    H235909   3.454   0.579  13.422  0.0354  0.5012 -0.5058
 4832TIP3   OH235910   1.905   4.972  14.767 -0.0681 -0.5581  0.0810
 4832TIP3    H135911   1.871   4.926  14.690 -1.1883  1.3014 -0.6101
 4832TIP3    H235912   1.829   5.013  14.806  0.6990 -0.3646  1.4333
 4833TIP3   OH235913   4.117   0.322  12.862  0.0004  0.1160  0.2896
 4833TIP3    H135914   4.035   0.276  12.846  0.1683 -0.5737  1.3124
 4833TIP3    H235915   4.096   0.414  12.848 -1.3181  0.0964  1.7904
 4834TIP3   OH235916   3.850   2.769  13.858  0.2640  0.0388  0.4166
 4834TIP3    H135917   3.814   2.764  13.769  0.0753 -0.9247  0.5311
 4834TIP3    H235918   3.944   2.781  13.845  0.2512 -0.2125  0.0785
 4835TIP3   OH235919   2.173   3.022  17.033 -0.0690 -0.2385  0.3400
 4835TIP3    H135920   2.208   2.942  17.072 -0.6145 -0.4815  0.3464
 4835TIP3    H235921   2.249   3.066  16.996  0.1112 -1.2548 -0.5521
 4836TIP3   OH235922   5.149   3.221   5.751 -0.2112  0.2353 -0.7260
 4836TIP3    H135923   5.190   3.307   5.761 -1.4355  0.7299  0.3645
 4836TIP3    H235924   5.148   3.206   5.656 -0.3352  1.6210 -0.9704
 4837TIP3   OH235925   6.378   4.523  16.011  0.5078 -0.1364  0.1176
 4837TIP3    H135926   6.307   4.517  16.076  0.6628 -2.1126  0.1684
 4837TIP3    H235927   6.448   4.469  16.048  0.0224 -2.6619 -2.3740
 4838TIP3   OH235928   4.811   5.588  17.002 -0.4950  0.3385  0.3171
 4838TIP3    H135929   4.873   5.601  17.074  2.0184  2.2031 -1.9731
 4838TIP3    H235930   4.838   5.506  16.961 -1.1506 -0.0979  0.7367
 4839TIP3   OH235931   3.124   0.371  11.292  0.4480 -0.1032  0.2468
 4839TIP3    H135932   3.159   0.397  11.377  2.0867  1.9043 -0.9344
 4839TIP3    H235933   3.189   0.311  11.256  1.5340  1.6834 -0.9196
 4840TIP3   OH235934   5.668   5.537  12.669 -0.2130  0.0221  0.4320
 4840TIP3    H135935   5.763   5.533  12.654 -0.1878 -0.9472  0.7805
 4840TIP3    H235936   5.653   5.478  12.743 -1.4348 -1.9962 -1.3204
 4841TIP3   OH235937   1.906   2.824   0.283  0.6338  0.6655 -0.7336
 4841TIP3    H135938   1.864   2.869   0.209 -0.5421  1.5843  0.4551
 4841TIP3    H235939   1.996   2.855   0.282  0.9855 -0.2390 -2.4623
 4842TIP3   OH235940   0.280   3.905   1.730 -0.3074  0.6252 -0.6061
 4842TIP3    H135941   0.287   3.923   1.637 -0.9822  0.7560 -0.6324
 4842TIP3    H235942   0.320   3.981   1.773  2.1493 -0.4444 -0.7957
 4843TIP3   OH235943   1.672   6.781   0.933 -0.4077  0.4194  0.3923
 4843TIP3    H135944   1.580   6.809   0.926  0.4246  3.0129 -1.3833
 4843TIP3    H235945   1.705   6.828   1.010 -0.7457 -1.2604  1.6163
 4844TIP3   OH235946   6.216   0.703   3.050 -0.2779  0.6028  0.3594
 4844TIP3    H135947   6.198   0.796   3.042  1.2513  0.9716  0.8883
 4844TIP3    H235948   6.196   0.683   3.142 -0.9337  0.3056  0.1652
 4845TIP3   OH235949   2.003   1.749  15.298  0.1617 -0.2741  0.1453
 4845TIP3    H135950   2.011   1.805  15.375  0.7928  0.9069 -0.7478
 4845TIP3    H235951   2.036   1.664  15.327  2.9242  0.8147  0.5235
 4846TIP3   OH235952   0.679   2.708  13.268  0.3156 -0.3912  0.8996
 4846TIP3    H135953   0.711   2.633  13.219  0.2191 -0.1566  0.4653
 4846TIP3    H235954   0.670   2.777  13.202 -0.5805 -0.3035  1.0989
 4847TIP3   OH235955   5.749   2.793  14.813  0.4634 -0.5463 -0.4738
 4847TIP3    H135956   5.686   2.772  14.882 -0.2161  0.8508 -0.6402
 4847TIP3    H235957   5.801   2.713  14.803 -0.3510 -1.2446  0.6594
 4848TIP3   OH235958   0.285   1.244  11.118 -0.1722  0.1278  0.2085
 4848TIP3    H135959   0.284   1.208  11.029  1.8161  0.7811 -0.1317
 4848TIP3    H235960   0.310   1.169  11.172  1.6398  0.3793 -0.2078
 4849TIP3   OH235961   3.948   3.493  13.328  0.2914 -0.4807 -1.0820
 4849TIP3    H135962   4.039   3.509  13.353  0.0783 -0.4949 -0.2979
 4849TIP3    H235963   3.955   3.444  13.246  0.9838 -0.2297 -1.1847
 4850TIP3   OH235964   4.234   6.332  16.291  0.2898  0.2442 -0.1762
 4850TIP3    H135965   4.297   6.296  16.353 -0.7962 -0.7117  0.3995
 4850TIP3    H235966   4.278   6.410  16.255  1.7380 -0.3298  0.2793
 4851TIP3   OH235967   3.085   5.730   3.005 -0.0941 -0.1792 -0.0347
 4851TIP3    H135968   3.013   5.757   2.947 -0.3330  1.4557  0.9669
 4851TIP3    H235969   3.117   5.648   2.966 -0.5277  0.6100 -2.2036
 4852TIP3   OH235970   4.216   4.880   4.968  0.3496  0.3556 -0.3580
 4852TIP3    H135971   4.265   4.905   5.046 -1.9369 -0.5423  1.4442
 4852TIP3    H235972   4.128   4.863   4.999 -1.2671  2.1458 -3.4989
 4853TIP3   OH235973   0.666   1.680  16.988 -0.2439 -0.0364  0.4358
 4853TIP3    H135974   0.604   1.644  17.052 -1.1894 -2.4179 -1.6552
 4853TIP3    H235975   0.611   1.725  16.924  0.4286 -0.0518 -0.1586
 4854TIP3   OH235976   2.130   0.279  10.687 -0.3280 -0.4437 -0.2824
 4854TIP3    H135977   2.078   0.256  10.610  1.4071  1.0245 -2.0155
 4854TIP3    H235978   2.167   0.196  10.717 -1.6442 -1.1456 -0.5279
 4855TIP3   OH235979   6.302   5.308  15.916  0.3382  0.1251  0.1653
 4855TIP3    H135980   6.361   5.375  15.883  1.4325  0.0115  1.7379
 4855TIP3    H235981   6.245   5.354  15.978  0.5805 -0.2317  0.6658
 4856TIP3   OH235982   1.833   2.911   4.380  0.2957  0.5818  0.7643
 4856TIP3    H135983   1.755   2.866   4.347  1.5025 -1.4605  0.4860
 4856TIP3    H235984   1.830   2.900   4.475  1.6539 -2.2226  0.6055
 4857TIP3   OH235985   2.224   1.201  12.453 -1.1051  0.1907  0.2191
 4857TIP3    H135986   2.167   1.141  12.501 -0.5138 -1.4752 -1.0408
 4857TIP3    H235987   2.246   1.153  12.373  0.1943  1.7248 -0.3845
 4858TIP3   OH235988   4.788   2.432   3.043  0.4055  0.2652 -0.6671
 4858TIP3    H135989   4.822   2.513   3.081 -0.0891  0.8287 -1.3951
 4858TIP3    H235990   4.711   2.412   3.096  1.1748 -0.3734  0.2423
 4859TIP3   OH235991   1.317   4.140   3.622  0.0900  0.1942  0.5383
 4859TIP3    H135992   1.238   4.187   3.650  1.2602  1.5556  1.7419
 4859TIP3    H235993   1.373   4.141   3.700  0.8764 -1.7106  0.0455
 4860TIP3   OH235994   4.901   6.324  12.673 -0.0565  0.5143  0.0715
 4860TIP3    H135995   4.873   6.275  12.596 -0.3072  1.2701 -0.3287
 4860TIP3    H235996   4.839   6.397  12.679  1.2547  1.6830 -0.2664
 4861TIP3   OH235997   6.100   5.548   4.983  0.1220 -0.0163 -0.0750
 4861TIP3    H135998   6.137   5.471   5.028  0.8266  0.7170  0.6422
 4861TIP3    H235999   6.070   5.514   4.899  1.1848 -0.9296 -0.1229
 4862TIP3   OH236000   0.093   3.318  12.429 -0.4751 -0.3837 -0.1409
 4862TIP3    H136001   0.091   3.351  12.518 -1.9360  0.4026 -0.4206
 4862TIP3    H236002   0.147   3.239  12.433 -0.4209 -0.2950  1.4006
 4863TIP3   OH236003   0.635   0.420  13.603 -0.1375  0.2476 -0.2313
 4863TIP3    H136004   0.699   0.350  13.587  0.1756  0.5432 -0.3087
 4863TIP3    H236005   0.614   0.412  13.696  0.4613  0.5110 -0.0643
 4864TIP3   OH236006   6.683   2.294   3.640  0.0467 -0.1060  0.0481
 4864TIP3    H136007   6.716   2.205   3.657  2.9315  1.0830  1.3447
 4864TIP3    H236008   6.613   2.306   3.704 -0.4702 -1.4309 -0.2188
 4865TIP3   OH236009   5.669   4.747   5.149 -0.0469  0.3150  0.0389
 4865TIP3    H136010   5.611   4.686   5.103 -0.3991  0.6279  0.0591
 4865TIP3    H236011   5.625   4.765   5.232  0.5046 -0.1128  0.4340
 4866TIP3   OH236012   3.408   3.374  11.729 -0.1392  0.1486 -0.8985
 4866TIP3    H136013   3.467   3.450  11.733 -0.1410  0.1087  2.8426
 4866TIP3    H236014   3.466   3.300  11.714  0.2991  0.5208 -1.0754
 4867TIP3   OH236015   0.730   5.326  13.435  0.0398  0.3409  0.0218
 4867TIP3    H136016   0.650   5.304  13.386 -0.4234  1.2901  0.3212
 4867TIP3    H236017   0.734   5.422  13.432  1.9086  0.2802 -1.1413
 4868TIP3   OH236018   0.223   4.271  11.571  0.0875 -0.1657  0.6385
 4868TIP3    H136019   0.163   4.345  11.559 -1.8715 -1.6666  0.7090
 4868TIP3    H236020   0.237   4.237  11.484  0.0153 -0.4407  0.7347
 4869TIP3   OH236021   6.290   4.114   1.075 -0.3608  0.5704  0.5620
 4869TIP3    H136022   6.222   4.076   1.019 -0.3046  0.8990  0.2716
 4869TIP3    H236023   6.321   4.040   1.129 -0.2733  0.2109  0.0208
 4870TIP3   OH236024   1.469   6.476  16.610  0.5056  0.3728  0.0939
 4870TIP3    H136025   1.451   6.382  16.621  0.8287 -0.1151 -2.7468
 4870TIP3    H236026   1.385   6.513  16.582  0.1551  1.1567  2.0384
 4871TIP3   OH236027   6.314   5.280  16.530  0.3287 -0.3209 -0.8826
 4871TIP3    H136028   6.296   5.227  16.453 -0.1410 -1.6155  0.0918
 4871TIP3    H236029   6.229   5.316  16.555  0.5180  0.2897 -1.0840
 4872TIP3   OH236030   2.075   1.427  12.629 -0.1640 -0.7407  0.5945
 4872TIP3    H136031   2.095   1.488  12.700  0.1554 -1.0519  0.7753
 4872TIP3    H236032   2.144   1.442  12.565  0.4740 -1.5606  1.0575
 4873TIP3   OH236033   1.643   6.668  16.205 -0.3281 -0.2556  0.2470
 4873TIP3    H136034   1.572   6.702  16.150  1.2331 -0.0107 -1.7283
 4873TIP3    H236035   1.635   6.573  16.197 -2.3184 -0.4122  2.6615
 4874TIP3   OH236036   6.095   5.252   3.869  0.6574  0.0046  0.9070
 4874TIP3    H136037   6.157   5.179   3.873  0.2903 -0.5463 -1.5195
 4874TIP3    H236038   6.132   5.311   3.803 -2.7908 -1.9925 -3.3553
 4875TIP3   OH236039   2.431   0.130  16.078 -0.2378 -0.1801 -0.2008
 4875TIP3    H136040   2.510   0.184  16.068 -0.2470  0.4747  2.4809
 4875TIP3    H236041   2.364   0.192  16.107 -1.4431 -0.9531 -1.2379
 4876TIP3   OH236042   0.569   1.821   5.358  0.2041  0.1943  0.1770
 4876TIP3    H136043   0.474   1.814   5.362  0.1678  1.1119  1.1644
 4876TIP3    H236044   0.586   1.911   5.328  0.7648 -0.0819 -0.3737
 4877TIP3   OH236045   0.629   3.654   0.750  0.6858 -1.1049 -0.2389
 4877TIP3    H136046   0.539   3.625   0.743  0.6851 -1.3170  0.5211
 4877TIP3    H236047   0.626   3.726   0.814  0.9714 -0.7194 -0.6494
 4878TIP3   OH236048   1.672   6.331  15.396  0.4439 -0.1172  0.8646
 4878TIP3    H136049   1.760   6.359  15.423  0.4015  0.3232  0.5513
 4878TIP3    H236050   1.654   6.254  15.451  0.7492  0.1927  1.4164
 4879TIP3   OH236051   5.795   2.627   0.091  0.8157 -0.2710 -0.6649
 4879TIP3    H136052   5.704   2.653   0.099  0.6578 -0.5672 -1.4643
 4879TIP3    H236053   5.834   2.692   0.033  0.8066 -0.8605 -1.3418
 4880TIP3   OH236054   3.415   5.444  12.607 -0.0175  0.1717  0.6491
 4880TIP3    H136055   3.460   5.359  12.605 -0.7430 -0.2400 -1.8982
 4880TIP3    H236056   3.334   5.429  12.556 -0.2210  2.3490  0.2514
 4881TIP3   OH236057   5.149   0.438   5.107  0.1145  0.0067  0.2385
 4881TIP3    H136058   5.055   0.436   5.086  0.1644 -1.4651  0.0675
 4881TIP3    H236059   5.185   0.505   5.048 -0.9606  1.2989  0.9900
 4882TIP3   OH236060   0.741   4.911  11.231  0.0818  0.8380 -0.8870
 4882TIP3    H136061   0.658   4.958  11.242  0.0458  0.4116  1.0594
 4882TIP3    H236062   0.795   4.940  11.305  0.7114 -0.7872 -0.6692
 4883TIP3   OH236063   0.751   5.511   0.069  0.0217  0.3488  0.0298
 4883TIP3    H136064   0.781   5.550  -0.013 -0.6187  1.7326  0.4270
 4883TIP3    H236065   0.679   5.568   0.097 -0.3596 -0.6321  1.0942
 4884TIP3   OH236066   5.397   2.596   4.178 -0.2879  0.1649  0.2047
 4884TIP3    H136067   5.310   2.612   4.215  0.1108  1.3367  0.6902
 4884TIP3    H236068   5.448   2.674   4.201  0.7404 -0.2548 -0.5440
 4885TIP3   OH236069   1.008   6.692  16.576 -0.2071 -0.3273 -0.2043
 4885TIP3    H136070   0.949   6.765  16.594 -0.7197 -0.8616  0.3416
 4885TIP3    H236071   1.058   6.681  16.657 -0.8114 -1.1922  0.0622
 4886TIP3   OH236072   0.965   1.034   6.097  0.2159  0.3575 -0.6899
 4886TIP3    H136073   1.054   1.034   6.060  0.5848 -0.1346  0.1453
 4886TIP3    H236074   0.973   1.089   6.175  0.0876 -0.6548  0.0468
 4887TIP3   OH236075   1.895   1.981   1.955 -0.6721 -0.2151 -0.1932
 4887TIP3    H136076   1.877   2.026   1.873 -0.8407 -0.2441 -0.1726
 4887TIP3    H236077   1.983   2.009   1.980 -0.8139  0.1795 -0.1283
 4888TIP3   OH236078   3.992   1.309  15.844 -0.5281  0.2452 -0.6205
 4888TIP3    H136079   4.012   1.219  15.820  0.6786  0.1379  0.6929
 4888TIP3    H236080   3.958   1.304  15.933  0.6719  1.1682 -0.0730
 4889TIP3   OH236081   3.900   1.600   0.517  0.0922  0.0014  0.5991
 4889TIP3    H136082   3.868   1.685   0.548 -0.6702 -0.2679  0.5688
 4889TIP3    H236083   3.993   1.614   0.502  0.2864  0.4156  2.0429
 4890TIP3   OH236084   5.939   5.224   3.473  0.0012 -0.0349 -0.0760
 4890TIP3    H136085   5.995   5.151   3.500  1.2844 -0.0284 -2.4693
 4890TIP3    H236086   5.991   5.302   3.489 -0.8053  0.2956  1.0949
 4891TIP3   OH236087   4.943   4.813  12.260 -0.3000 -0.1674  0.0005
 4891TIP3    H136088   4.954   4.743  12.325  0.8497 -0.4432 -0.4749
 4891TIP3    H236089   5.005   4.791  12.191  0.1353  1.3865 -0.1214
 4892TIP3   OH236090   4.682   0.137  13.880 -0.5584  0.7214 -0.5685
 4892TIP3    H136091   4.646   0.051  13.901  1.7181  0.0053  0.8400
 4892TIP3    H236092   4.662   0.190  13.957  1.2863  0.3008  0.2504
 4893TIP3   OH236093   0.709   5.986  10.644  0.0476  0.9659 -0.1712
 4893TIP3    H136094   0.616   5.963  10.641  0.4534 -0.8113 -0.2311
 4893TIP3    H236095   0.710   6.082  10.637 -1.8342  1.1570  1.2977
 4894TIP3   OH236096   6.271   1.859   0.476  0.2456  0.1333 -0.7371
 4894TIP3    H136097   6.347   1.915   0.461  0.1472 -0.1290 -2.4829
 4894TIP3    H236098   6.225   1.859   0.392 -1.1596 -0.5025 -0.0041
 4895TIP3   OH236099   4.194   0.870   3.764  0.0821 -0.0905  0.1527
 4895TIP3    H136100   4.215   0.960   3.788 -0.0867 -0.4209  1.6418
 4895TIP3    H236101   4.207   0.820   3.845  2.4753 -1.8108 -1.1624
 4896TIP3   OH236102   4.680   4.611  12.733 -0.0590  0.0711  0.0973
 4896TIP3    H136103   4.640   4.625  12.647  0.8924  0.0945 -0.3490
 4896TIP3    H236104   4.619   4.552  12.778 -1.1701  0.9951 -0.1382
 4897TIP3   OH236105   0.889   6.177   5.677  0.2003  0.1896 -0.1052
 4897TIP3    H136106   0.955   6.171   5.608  1.9718 -1.8616  1.6149
 4897TIP3    H236107   0.885   6.088   5.713 -1.3037  0.9810  1.8396
 4898TIP3   OH236108   2.954   0.820  12.917 -0.3184  0.1404  0.0580
 4898TIP3    H136109   2.868   0.825  12.960 -1.1294  2.4009 -1.6025
 4898TIP3    H236110   2.933   0.800  12.825  0.8868  0.9729 -0.4195
 4899TIP3   OH236111   4.661   2.183   0.253  0.4070  0.3585  0.6461
 4899TIP3    H136112   4.607   2.202   0.177  0.7889  0.2500  0.3447
 4899TIP3    H236113   4.748   2.167   0.217  1.0167  2.0704  1.2418
 4900TIP3   OH236114   2.674   3.482   5.980  0.0773 -0.5736  0.7769
 4900TIP3    H136115   2.650   3.391   5.998 -1.0206 -1.3174 -3.3867
 4900TIP3    H236116   2.590   3.527   5.969  0.2394 -0.9142 -4.1388
 4901TIP3   OH236117   6.753   5.945  12.440 -0.3524 -0.0380  0.0238
 4901TIP3    H136118   6.799   5.952  12.356 -1.7926 -1.0517 -0.9066
 4901TIP3    H236119   6.718   6.032  12.456 -0.0796  0.1579 -0.4285
 4902TIP3   OH236120   3.206   2.222   4.265  0.3217  0.1958 -0.2405
 4902TIP3    H136121   3.302   2.215   4.269  0.4235  0.8235 -1.2936
 4902TIP3    H236122   3.179   2.233   4.357  1.2489 -0.0483  0.0735
 4903TIP3   OH236123   3.196   5.279   1.996  0.0566 -0.3025 -0.3536
 4903TIP3    H136124   3.138   5.352   2.019 -0.1768 -0.8279  0.8116
 4903TIP3    H236125   3.279   5.300   2.039 -0.5038 -1.4921  1.4144
 4904TIP3   OH236126   0.440   5.598   4.925 -0.2302  0.3576  0.0025
 4904TIP3    H136127   0.406   5.564   5.008 -0.1084  1.4467  0.5228
 4904TIP3    H236128   0.375   5.664   4.899  1.0074  1.8429  0.5600
 4905TIP3   OH236129   1.920   6.713  10.778  0.5296  0.1931 -0.0767
 4905TIP3    H136130   1.942   6.628  10.818  0.5240 -0.9189 -2.3099
 4905TIP3    H236131   1.999   6.766  10.792 -0.4464  0.9444  3.8786
 4906TIP3   OH236132   1.284   4.105  16.399  0.4929  0.5347 -0.5347
 4906TIP3    H136133   1.217   4.064  16.454  1.9984 -1.1096  0.1866
 4906TIP3    H236134   1.307   4.037  16.335  2.0955  0.7192 -0.1923
 4907TIP3   OH236135   4.806   4.628  14.525 -0.3331  0.2869  0.0285
 4907TIP3    H136136   4.875   4.602  14.586 -0.4954 -1.9097 -0.6661
 4907TIP3    H236137   4.726   4.594  14.564 -0.2556 -2.7992 -2.1516
 4908TIP3   OH236138   1.674   2.667  13.872 -0.3136  0.5358  0.2997
 4908TIP3    H136139   1.579   2.652  13.873 -0.3845  0.9486 -0.1373
 4908TIP3    H236140   1.689   2.733  13.940 -0.5250  1.5260 -0.5963
 4909TIP3   OH236141   4.306   2.192  14.683 -0.1248 -0.1959  0.0895
 4909TIP3    H136142   4.243   2.264  14.674 -1.5889 -1.2467  1.3481
 4909TIP3    H236143   4.319   2.160  14.594  2.8551  3.3742 -1.0039
 4910TIP3   OH236144   3.932   4.105  12.510 -0.7372  0.0645  0.4189
 4910TIP3    H136145   3.936   4.012  12.536  0.1742  0.5457  2.2269
 4910TIP3    H236146   4.021   4.125  12.480 -0.4427  0.7370  1.6564
 4911TIP3   OH236147   5.580   3.483   2.195  0.2265  0.8062 -0.4282
 4911TIP3    H136148   5.508   3.453   2.139 -0.2238 -1.1513  1.1150
 4911TIP3    H236149   5.546   3.562   2.238 -1.1956 -0.3337  0.6037
 4912TIP3   OH236150   4.999   5.884  13.367 -0.6172  0.1028  0.5378
 4912TIP3    H136151   5.057   5.940  13.419  0.9640 -0.8677 -0.1057
 4912TIP3    H236152   5.050   5.805  13.351 -2.1519 -0.8079 -0.0591
 4913TIP3   OH236153   5.967   3.157   0.419  0.0265 -0.3798  0.0337
 4913TIP3    H136154   5.939   3.115   0.501 -0.1752  0.3255  0.3293
 4913TIP3    H236155   6.061   3.169   0.429 -0.2535  1.3084  0.9154
 4914TIP3   OH236156   4.811   4.555   0.315 -0.4234 -0.9847  1.0664
 4914TIP3    H136157   4.731   4.502   0.316 -1.6592  0.8108  1.2277
 4914TIP3    H236158   4.870   4.510   0.375 -1.6125 -1.9010  1.5940
 4915TIP3   OH236159   4.311   2.016   5.344 -0.2123 -0.7947 -0.0026
 4915TIP3    H136160   4.362   1.941   5.314 -0.9028 -1.3140  0.1043
 4915TIP3    H236161   4.224   1.981   5.364 -0.0210 -0.3494  1.8589
 4916TIP3   OH236162   1.486   6.385   3.817  0.5076  0.7294 -0.1065
 4916TIP3    H136163   1.565   6.422   3.777  0.9262 -0.9730 -0.9392
 4916TIP3    H236164   1.415   6.415   3.761  0.5380  2.1738  0.5771
 4917TIP3   OH236165   0.555   4.275  15.000  0.0435  0.2860 -0.5510
 4917TIP3    H136166   0.566   4.193  15.048 -1.8037 -0.2352 -0.9156
 4917TIP3    H236167   0.636   4.285  14.950  0.5844 -0.9494  0.0307
 4918TIP3   OH236168   1.233   1.536  14.042 -0.1279 -0.3787  0.1559
 4918TIP3    H136169   1.305   1.480  14.015 -1.1031 -1.1010 -1.0539
 4918TIP3    H236170   1.168   1.475  14.078 -0.6621  0.1062  0.0246
 4919TIP3   OH236171   2.087   3.398  12.264 -0.3897 -0.5598 -0.1266
 4919TIP3    H136172   2.011   3.419  12.210  0.5371  1.1560 -0.8671
 4919TIP3    H236173   2.157   3.382  12.201 -0.2767 -2.9143  0.5257
 4920TIP3   OH236174   5.346   0.338  11.079  0.2143  0.0849  0.4202
 4920TIP3    H136175   5.302   0.258  11.053  1.5005 -0.7273  0.6366
 4920TIP3    H236176   5.421   0.344  11.020 -1.5994  2.9400 -1.8800
 4921TIP3   OH236177   2.538   0.122   2.989  0.6533  0.7259 -0.2053
 4921TIP3    H136178   2.551   0.139   3.083 -2.3506 -2.0639  0.9297
 4921TIP3    H236179   2.592   0.045   2.971 -0.3923 -0.0719 -0.0932
 4922TIP3   OH236180   2.539   5.332   3.902 -0.2063  0.0941 -0.0125
 4922TIP3    H136181   2.475   5.336   3.973  0.5327  2.4147  0.6169
 4922TIP3    H236182   2.510   5.400   3.840  0.9528  0.3515 -0.2968
 4923TIP3   OH236183   4.874   4.278   0.719  0.5140 -0.0779 -0.5060
 4923TIP3    H136184   4.919   4.258   0.801  0.5995  3.3028  0.4156
 4923TIP3    H236185   4.784   4.249   0.734  0.2589  1.4540  1.2789
 4924TIP3   OH236186   1.800   4.795   2.752 -0.9264  0.4681 -0.2491
 4924TIP3    H136187   1.810   4.882   2.790  0.4023  0.8838 -1.4737
 4924TIP3    H236188   1.834   4.803   2.663  0.6091 -1.6284  0.0741
 4925TIP3   OH236189   0.797   4.392   2.465 -0.3672  0.5796 -0.6829
 4925TIP3    H136190   0.889   4.410   2.444 -0.1379  0.4174  0.1429
 4925TIP3    H236191   0.795   4.299   2.486 -0.9278  0.3501 -1.7088
 4926TIP3   OH236192   3.045   5.875   0.225 -0.1053  0.7088 -0.1254
 4926TIP3    H136193   2.984   5.949   0.229 -1.2073 -0.2216  1.7510
 4926TIP3    H236194   3.056   5.849   0.316  0.2416 -1.4465 -0.7443
 4927TIP3   OH236195   6.689   2.068  13.043 -0.0092  0.3074 -0.0781
 4927TIP3    H136196   6.772   2.109  13.019 -0.7544  1.2624 -1.1092
 4927TIP3    H236197   6.634   2.077  12.965 -1.0924 -0.3156  0.5846
 4928TIP3   OH236198   4.714   6.212  16.937 -0.2537  0.4490 -0.3545
 4928TIP3    H136199   4.632   6.255  16.911  0.5932  2.1907 -0.3379
 4928TIP3    H236200   4.758   6.192  16.854 -0.2187  0.5012 -0.3488
 4929TIP3   OH236201   5.901   4.083  12.659 -0.1566  0.3219  0.0585
 4929TIP3    H136202   5.923   4.140  12.733 -0.0371  3.0970 -1.9812
 4929TIP3    H236203   5.807   4.065  12.670  0.2957 -1.2074  2.0193
 4930TIP3   OH236204   4.901   2.434  17.110  0.1528  0.4690  0.4243
 4930TIP3    H136205   4.907   2.342  17.137 -1.0486  0.2624  0.0629
 4930TIP3    H236206   4.839   2.433  17.038  1.3257  1.3663 -0.6380
 4931TIP3   OH236207   5.174   5.811  10.854 -0.1310 -0.6385  0.6467
 4931TIP3    H136208   5.204   5.722  10.872  0.9518 -1.0128 -2.4267
 4931TIP3    H236209   5.254   5.862  10.845 -0.5771 -0.1473 -0.9321
 4932TIP3   OH236210   0.120   3.945  13.101 -0.1242  0.3544  0.3277
 4932TIP3    H136211   0.202   3.993  13.090  0.5286 -0.8675 -0.3610
 4932TIP3    H236212   0.063   3.976  13.030  0.6976 -0.6778 -0.8151
 4933TIP3   OH236213   1.769   5.047   4.388 -0.6144 -0.7297  0.3458
 4933TIP3    H136214   1.723   5.020   4.468 -2.4030  0.4282 -0.2537
 4933TIP3    H236215   1.847   5.092   4.421 -0.7616 -1.2121  1.4217
 4934TIP3   OH236216   3.106   2.829   4.493  0.2544  0.8254 -0.0314
 4934TIP3    H136217   3.121   2.743   4.453  2.9466  1.0229  0.3767
 4934TIP3    H236218   3.193   2.861   4.515 -0.8595  0.8706  5.8147
 4935TIP3   OH236219   0.512   4.570   4.226 -0.0572  0.3735  0.4120
 4935TIP3    H136220   0.499   4.485   4.268 -1.2160 -0.0122 -0.7002
 4935TIP3    H236221   0.502   4.633   4.297  1.7221 -0.4090  1.4485
 4936TIP3   OH236222   1.415   5.092  13.886 -0.4684  0.5713  0.1035
 4936TIP3    H136223   1.446   5.055  13.969  0.5113  0.2635 -0.3771
 4936TIP3    H236224   1.379   5.177  13.910 -0.5179  0.3358  0.8950
 4937TIP3   OH236225   1.361   5.458   1.196  0.9265  0.0954  0.2486
 4937TIP3    H136226   1.324   5.462   1.108 -1.3164  1.6418  1.1783
 4937TIP3    H236227   1.370   5.364   1.214 -0.4708 -0.2994 -0.9179
 4938TIP3   OH236228   3.317   1.167   0.301 -0.6373 -0.3687 -0.3849
 4938TIP3    H136229   3.289   1.193   0.388  3.4057  1.4522  0.6074
 4938TIP3    H236230   3.390   1.106   0.316 -1.3883 -1.9467 -2.5863
 4939TIP3   OH236231   2.591   0.941   3.097  0.4100 -0.0819  0.1687
 4939TIP3    H136232   2.605   0.991   3.178 -0.9927 -0.1217  0.4622
 4939TIP3    H236233   2.576   0.851   3.127 -2.9856  0.3602  0.1925
 4940TIP3   OH236234   0.357   1.427   2.668  0.4709  0.1861  0.4479
 4940TIP3    H136235   0.269   1.446   2.700  0.1084 -0.0988 -0.3491
 4940TIP3    H236236   0.392   1.512   2.642  0.8186  0.4372  1.6925
 4941TIP3   OH236237   5.292   6.091   0.122 -0.0079  0.0281  0.5017
 4941TIP3    H136238   5.257   6.023   0.064 -1.3875  1.3546 -0.2958
 4941TIP3    H236239   5.316   6.162   0.063  0.8364  0.4862  1.3781
 4942TIP3   OH236240   1.742   5.340   2.225  0.3862  0.4267  1.0580
 4942TIP3    H136241   1.783   5.405   2.282  0.1912  0.3089  1.3344
 4942TIP3    H236242   1.815   5.289   2.189  0.4511 -0.1388  1.9765
 4943TIP3   OH236243   6.043   1.356  16.795  0.0625 -1.2306  0.2483
 4943TIP3    H136244   6.055   1.281  16.853  1.7883 -1.9060 -0.8910
 4943TIP3    H236245   5.992   1.418  16.846  0.5367 -2.2524  2.0656
 4944TIP3   OH236246   4.600   5.151  15.349 -0.0646  0.1011 -0.2881
 4944TIP3    H136247   4.619   5.225  15.407  2.2315  0.4017 -1.3337
 4944TIP3    H236248   4.555   5.088  15.405  1.3828  0.6963  1.6431
 4945TIP3   OH236249   2.130   6.635  16.040 -0.1517 -0.0981  0.0434
 4945TIP3    H136250   2.187   6.645  16.116 -1.9033 -0.0538  1.4280
 4945TIP3    H236251   2.067   6.706  16.048 -3.2406 -2.7096  1.2703
 4946TIP3   OH236252   6.406   4.609  17.067 -0.8626  0.2837  0.3051
 4946TIP3    H136253   6.483   4.561  17.036 -1.2865 -0.6152  0.6293
 4946TIP3    H236254   6.441   4.694  17.095 -0.0421  0.0178  0.1158
 4947TIP3   OH236255   2.764   2.377  15.882 -0.1570  0.1530  0.0299
 4947TIP3    H136256   2.711   2.357  15.959 -0.4253  2.5557  0.5248
 4947TIP3    H236257   2.741   2.467  15.858  0.3117 -0.3247 -2.5624
 4948TIP3   OH236258   5.118   2.897   4.573 -0.5030  0.9536 -0.8053
 4948TIP3    H136259   5.164   2.865   4.650  0.1946  0.5979 -1.3560
 4948TIP3    H236260   5.084   2.818   4.531  1.6624  0.7896 -2.4516
 4949TIP3   OH236261   3.701   0.314  14.043  0.0338  0.1017  0.3680
 4949TIP3    H136262   3.649   0.375  13.991 -0.4511 -1.8315 -1.5789
 4949TIP3    H236263   3.677   0.228  14.009  2.3564 -1.0459  1.4296
 4950TIP3   OH236264   3.143   5.770   5.985 -0.6768 -0.2766 -0.2594
 4950TIP3    H136265   3.100   5.847   5.949 -0.3388 -0.6675 -1.5695
 4950TIP3    H236266   3.158   5.714   5.909  0.7798 -0.7994  0.3860
 4951TIP3   OH236267   2.071   4.539   6.042  0.4890  0.0367 -0.2437
 4951TIP3    H136268   2.111   4.452   6.047  2.2642  0.7682 -0.8993
 4951TIP3    H236269   2.144   4.599   6.026 -0.4480  1.9034  1.8971
 4952TIP3   OH236270   2.900   6.441  15.781 -0.1779 -0.2404 -0.3019
 4952TIP3    H136271   2.907   6.536  15.781  0.7571 -0.3083 -0.4948
 4952TIP3    H236272   2.876   6.418  15.691  0.1081 -0.2288 -0.3794
 4953TIP3   OH236273   4.161   1.674  13.120 -0.2974  0.1701  0.0950
 4953TIP3    H136274   4.189   1.683  13.029  0.3091 -0.6955  0.1729
 4953TIP3    H236275   4.068   1.653  13.115 -0.2941  0.2512 -0.3251
 4954TIP3   OH236276   2.354   5.876  12.656  0.0825  0.1500 -0.1154
 4954TIP3    H136277   2.345   5.801  12.598  0.0058 -0.7127  0.9716
 4954TIP3    H236278   2.406   5.844  12.729  0.5354  1.3225  0.1091
 4955TIP3   OH236279   5.849   4.714   1.068 -0.4888  0.3304  0.5138
 4955TIP3    H136280   5.776   4.728   1.128 -1.0417  1.0184 -0.3025
 4955TIP3    H236281   5.857   4.619   1.061 -1.8449  0.2391 -0.0218
 4956TIP3   OH236282   1.262   5.237   5.856 -0.2690 -0.7667  0.3390
 4956TIP3    H136283   1.332   5.302   5.862 -0.2591 -0.6165 -1.0397
 4956TIP3    H236284   1.200   5.275   5.793 -0.6913 -1.7235  0.1681
 4957TIP3   OH236285   6.305   0.852  11.876  0.3063  0.4443  0.7307
 4957TIP3    H136286   6.255   0.778  11.909 -0.5819  1.0233  0.7041
 4957TIP3    H236287   6.243   0.925  11.875  0.4697  0.6344 -1.5198
 4958TIP3   OH236288   4.544   0.748   0.304 -0.0618 -0.4675 -0.2572
 4958TIP3    H136289   4.451   0.739   0.322  0.3665 -1.7580  1.7407
 4958TIP3    H236290   4.578   0.659   0.312  1.7082  0.2944  1.7704
 4959TIP3   OH236291   0.208   1.210   1.175 -0.4647  0.0869  0.1603
 4959TIP3    H136292   0.202   1.209   1.270 -0.3262  0.5313  0.1738
 4959TIP3    H236293   0.121   1.183   1.145 -0.4471 -0.2565  0.4125
 4960TIP3   OH236294   0.869   1.785  14.134  0.2703 -0.3387 -0.0671
 4960TIP3    H136295   0.907   1.726  14.200  0.9416 -0.7136 -0.7660
 4960TIP3    H236296   0.804   1.836  14.182  0.5990 -0.7452  0.8411
 4961TIP3   OH236297   3.839   4.491  15.982  0.2398 -0.4773  0.1440
 4961TIP3    H136298   3.830   4.447  16.066  0.4124  1.5110  1.2428
 4961TIP3    H236299   3.927   4.470  15.953  0.1605 -1.2137  0.4267
 4962TIP3   OH236300   4.609   0.146  10.892 -0.2005  0.3075  0.6486
 4962TIP3    H136301   4.522   0.181  10.910 -0.0155  1.2539 -0.1858
 4962TIP3    H236302   4.669   0.218  10.913  0.1170  0.9550 -2.1311
 4963TIP3   OH236303   5.169   6.496  13.883 -0.3071  0.1545  0.2197
 4963TIP3    H136304   5.210   6.411  13.899  0.3747  0.4101 -0.1498
 4963TIP3    H236305   5.236   6.560  13.908 -0.3065  0.5766 -0.8371
 4964TIP3   OH236306   6.312   4.360   3.524  0.1553 -0.0890  0.1255
 4964TIP3    H136307   6.360   4.330   3.446  1.6355  0.9873  0.5725
 4964TIP3    H236308   6.233   4.305   3.526  0.7157 -1.0282 -1.3931
 4965TIP3   OH236309   0.504   6.208   2.502  0.2419  0.2121 -0.2592
 4965TIP3    H136310   0.530   6.297   2.524 -0.3246  0.2528  0.2930
 4965TIP3    H236311   0.422   6.195   2.550  0.5466 -0.7570  0.0221
 4966TIP3   OH236312   4.343   1.518   1.149 -0.3647  0.1922 -0.1000
 4966TIP3    H136313   4.392   1.556   1.223  1.8584 -0.3101 -1.2232
 4966TIP3    H236314   4.348   1.423   1.163 -2.7010  0.1149  0.7210
 4967TIP3   OH236315   0.764   4.879  15.960 -0.2300  0.2730  0.4688
 4967TIP3    H136316   0.848   4.839  15.937 -0.0642 -0.4365  2.1307
 4967TIP3    H236317   0.781   4.973  15.961 -0.2351  0.3628 -2.0162
 4968TIP3   OH236318   1.248   4.927   3.543  0.1877 -0.9161  0.2109
 4968TIP3    H136319   1.174   4.971   3.500  0.1568 -0.1913  0.9738
 4968TIP3    H236320   1.207   4.857   3.593 -0.3831  1.0935  2.7896
 4969TIP3   OH236321   5.836   5.260  11.360 -0.1089  0.1533 -0.1635
 4969TIP3    H136322   5.799   5.173  11.373 -2.2043  1.0830  0.7052
 4969TIP3    H236323   5.794   5.292  11.280  0.5043  0.4211 -0.3787
 4970TIP3   OH236324   6.521   2.098   1.015 -0.3591  0.0084  0.3035
 4970TIP3    H136325   6.532   2.181   1.061  1.0275 -0.1129  0.2287
 4970TIP3    H236326   6.447   2.056   1.059 -1.2204  1.3546  0.2046
 4971TIP3   OH236327   1.535   4.572   3.516  0.5120  0.2825 -0.4247
 4971TIP3    H136328   1.627   4.573   3.490  0.0535  1.0598 -2.1527
 4971TIP3    H236329   1.501   4.491   3.479  0.1570  0.7422 -1.1105
 4972TIP3   OH236330   1.275   4.180   5.893  0.1207  0.4042 -0.6106
 4972TIP3    H136331   1.236   4.200   5.808  0.4249  0.7311 -0.6712
 4972TIP3    H236332   1.200   4.152   5.947  0.1769 -1.9553 -1.5984
 4973TIP3   OH236333   0.539   3.025  15.561  0.4195 -0.0159 -0.4267
 4973TIP3    H136334   0.487   3.099  15.592  0.1442  0.2340 -1.4351
 4973TIP3    H236335   0.518   3.018  15.468  1.6452 -0.3576 -0.7082
 4974TIP3   OH236336   2.564   0.709   6.714 -0.3989  0.3382 -0.4725
 4974TIP3    H136337   2.496   0.775   6.701  0.2314  1.3971  1.2870
 4974TIP3    H236338   2.594   0.722   6.804  2.7222  0.5168 -1.4013
 4975TIP3   OH236339   1.170   0.393   1.488  0.0939 -0.2173  0.8538
 4975TIP3    H136340   1.198   0.478   1.522  0.8851  0.0666 -0.4677
 4975TIP3    H236341   1.169   0.336   1.566  3.4245  0.0070  1.1907
 4976TIP3   OH236342   4.777   5.193   3.907  0.2444  0.1829  0.8514
 4976TIP3    H136343   4.703   5.229   3.859 -0.3404 -0.6562  1.0995
 4976TIP3    H236344   4.841   5.169   3.840 -0.3822 -0.5771  0.5119
 4977TIP3   OH236345   2.627   0.151  13.853  0.2959  0.1299  0.4987
 4977TIP3    H136346   2.715   0.185  13.870  0.2471 -0.4540  2.1400
 4977TIP3    H236347   2.600   0.113  13.937 -0.8676 -1.1795 -0.4259
 4978TIP3   OH236348   0.577   6.596   4.180 -0.4969  0.0595  0.6222
 4978TIP3    H136349   0.519   6.614   4.107  0.3764  0.3602 -0.0187
 4978TIP3    H236350   0.621   6.679   4.197  2.2145 -0.8687 -1.1393
 4979TIP3   OH236351   4.973   1.868   0.226  0.1048  0.4970 -0.3653
 4979TIP3    H136352   4.924   1.807   0.281 -0.5851 -0.1650 -1.6668
 4979TIP3    H236353   5.028   1.812   0.172  0.7190  1.1347 -0.4052
 4980TIP3   OH236354   5.755   4.847   3.218  0.2338 -0.4201  0.1044
 4980TIP3    H136355   5.672   4.829   3.174  0.9028  0.2768 -1.5340
 4980TIP3    H236356   5.737   4.922   3.275 -0.4607 -0.8368  0.4415
 4981TIP3   OH236357   2.701   6.664  15.831  0.2884 -0.0663  0.1179
 4981TIP3    H136358   2.726   6.573  15.812 -0.1288  0.0025 -0.8500
 4981TIP3    H236359   2.611   6.657  15.862  0.1441  0.0377 -0.2700
 4982TIP3   OH236360   6.713   3.212   2.648  0.4763  0.2079  0.4820
 4982TIP3    H136361   6.633   3.162   2.633  1.3262 -0.6074 -1.6635
 4982TIP3    H236362   6.682   3.297   2.679 -1.2693  0.1402 -0.8928
 4983TIP3   OH236363   4.928   6.724   5.677  0.0843 -0.0885  0.2657
 4983TIP3    H136364   4.857   6.661   5.668 -0.1456  0.0560  1.0456
 4983TIP3    H236365   4.929   6.770   5.593 -1.5754  0.7590  0.6741
 4984TIP3   OH236366   3.381   4.041  15.769  0.0225 -0.6230  0.0912
 4984TIP3    H136367   3.464   4.086  15.782 -0.6705  0.6059  0.4550
 4984TIP3    H236368   3.328   4.066  15.845 -0.7228 -1.2925 -0.1898
 4985TIP3   OH236369   2.618   0.432   3.510 -0.0792 -0.7236 -0.5345
 4985TIP3    H136370   2.556   0.446   3.439 -1.9083 -0.4626  1.0080
 4985TIP3    H236371   2.613   0.512   3.562 -0.8326 -1.8967  1.3059
 4986TIP3   OH236372   6.546   4.881   5.904 -0.1998  0.0942 -0.5327
 4986TIP3    H136373   6.575   4.954   5.848  0.4676  1.3988  1.4080
 4986TIP3    H236374   6.455   4.902   5.924 -0.8976 -1.1151 -2.1691
 4987TIP3   OH236375   0.874   6.133  11.200 -0.3650 -0.1137 -0.3965
 4987TIP3    H136376   0.937   6.205  11.205 -0.8256  0.2304  0.7394
 4987TIP3    H236377   0.914   6.062  11.251 -1.4467  0.5653  1.4982
 4988TIP3   OH236378   5.693   2.561  10.417  0.0504  0.7864 -0.4511
 4988TIP3    H136379   5.626   2.512  10.370 -0.3770  0.9114  0.0085
 4988TIP3    H236380   5.757   2.585  10.351 -2.7865  5.0511 -2.1287
 4989TIP3   OH236381   1.879   2.875   3.238 -0.4501  0.4144 -0.0912
 4989TIP3    H136382   1.838   2.904   3.320 -0.2039  1.9707 -0.5062
 4989TIP3    H236383   1.864   2.946   3.177  2.1962  0.7038 -0.4872
 4990TIP3   OH236384   2.389   3.150   3.526 -0.0620 -0.0995 -0.3011
 4990TIP3    H136385   2.380   3.151   3.430  0.3967  4.2965 -0.5248
 4990TIP3    H236386   2.310   3.195   3.557  1.3506  1.5718  1.0392
 4991TIP3   OH236387   3.903   3.181  11.563 -0.0397 -0.0729  0.6749
 4991TIP3    H136388   3.981   3.176  11.507 -0.2730 -1.8327  0.4513
 4991TIP3    H236389   3.829   3.169  11.503 -0.4749  1.0141  0.9645
 4992TIP3   OH236390   0.801   2.169   5.089 -0.5674  0.2702  0.4599
 4992TIP3    H136391   0.736   2.238   5.079 -0.0402  0.4243 -2.9220
 4992TIP3    H236392   0.885   2.214   5.089 -0.2934 -0.2279  0.0448
 4993TIP3   OH236393   3.103   3.176   6.523 -0.4399 -0.2027 -0.1997
 4993TIP3    H136394   3.084   3.252   6.578 -1.7261 -0.7913  0.2356
 4993TIP3    H236395   3.054   3.192   6.442 -1.1829 -0.7974  0.1142
 4994TIP3   OH236396   0.613   1.425   0.154 -0.1289  0.4450  0.3326
 4994TIP3    H136397   0.677   1.458   0.091 -0.3719  1.4252  0.5837
 4994TIP3    H236398   0.609   1.331   0.137  1.4893  0.3313  0.4161
 4995TIP3   OH236399   4.446   4.956   1.522  0.2505 -0.3573  0.1568
 4995TIP3    H136400   4.456   4.889   1.590 -0.2589 -0.6034 -0.0055
 4995TIP3    H236401   4.488   4.918   1.445 -0.0377 -0.4921  0.0650
 4996TIP3   OH236402   4.516   3.582  11.512 -0.0053 -0.3252 -0.6337
 4996TIP3    H136403   4.537   3.493  11.486  1.4072  0.1493 -1.2669
 4996TIP3    H236404   4.439   3.574  11.568  1.1053 -2.1329  0.7628
 4997TIP3   OH236405   6.636   3.694   2.581 -0.2773  0.0084  0.2115
 4997TIP3    H136406   6.547   3.719   2.603 -0.0875  0.3815  0.5575
 4997TIP3    H236407   6.628   3.606   2.543 -0.6738 -0.3621  1.1426
 4998TIP3   OH236408   1.842   5.979  15.544  0.6770  0.1594  0.3706
 4998TIP3    H136409   1.760   6.028  15.554  0.3247 -0.4195  0.3745
 4998TIP3    H236410   1.824   5.894  15.585  1.6755  0.4494  1.4613
 4999TIP3   OH236411   5.321   5.056  15.328 -0.0136  0.7881  1.0090
 4999TIP3    H136412   5.364   5.141  15.317 -0.4678  0.7627 -1.4487
 4999TIP3    H236413   5.303   5.051  15.422  1.8107  2.5000  1.5281
 5000TIP3   OH236414   0.572   3.231  16.066  0.4040 -0.3611 -0.0127
 5000TIP3    H136415   0.609   3.312  16.100  3.2676 -1.4943 -0.1528
 5000TIP3    H236416   0.534   3.188  16.143 -3.8361  2.1963 -0.3294
 5001TIP3   OH236417   4.383   5.566   1.733 -0.1691  0.7881 -0.1035
 5001TIP3    H136418   4.346   5.606   1.812  2.7802  0.6721  1.5153
 5001TIP3    H236419   4.308   5.531   1.686 -2.3922  3.5754  1.0430
 5002TIP3   OH236420   3.475   6.698   5.789 -0.6630 -0.0263  0.4673
 5002TIP3    H136421   3.538   6.756   5.746 -1.5932  0.0592 -0.8388
 5002TIP3    H236422   3.516   6.677   5.873  1.3822 -0.4431 -0.5500
 5003TIP3   OH236423   0.545   4.898   3.917 -0.0468 -0.5098  0.6973
 5003TIP3    H136424   0.484   4.829   3.942 -0.0010 -1.1934 -0.9016
 5003TIP3    H236425   0.606   4.855   3.857  0.7581  0.6375  0.6609
 5004TIP3   OH236426   3.420   0.885   1.950  0.8144 -0.0497  0.7375
 5004TIP3    H136427   3.429   0.832   1.870 -0.6194 -0.3791  0.7836
 5004TIP3    H236428   3.507   0.925   1.961  0.4619  1.8766 -2.2935
 5005TIP3   OH236429   6.261   1.394   5.111  0.1031  0.7288 -0.0453
 5005TIP3    H136430   6.333   1.402   5.174 -0.8163  1.9449  0.9120
 5005TIP3    H236431   6.297   1.341   5.039  1.3113 -0.3641  1.3037
 5006TIP3   OH236432   6.787   2.913  11.101  0.2746  0.2887  0.6906
 5006TIP3    H136433   6.871   2.953  11.122  1.0226 -0.9401  0.1409
 5006TIP3    H236434   6.731   2.986  11.073  0.5825  1.3702  2.7342
 5007TIP3   OH236435   1.208   2.265  16.783  0.0916 -0.0124  0.1619
 5007TIP3    H136436   1.254   2.183  16.800 -0.9813 -1.0355 -1.5787
 5007TIP3    H236437   1.119   2.238  16.759 -0.8738  1.7897  1.5244
 5008TIP3   OH236438   4.198   6.047   0.579 -0.1522  0.3341  0.0159
 5008TIP3    H136439   4.208   5.952   0.575  0.8552  0.4001  0.5930
 5008TIP3    H236440   4.236   6.079   0.498 -1.7321  0.1820 -0.8249
 5009TIP3   OH236441   0.736   6.307  14.193  0.0030  0.2313  0.0990
 5009TIP3    H136442   0.736   6.338  14.283  0.3443  0.7997 -0.0903
 5009TIP3    H236443   0.789   6.227  14.194  0.4300  0.5128  0.3158
 5010TIP3   OH236444   5.699   0.775   3.586 -0.0463  0.5019 -0.7579
 5010TIP3    H136445   5.738   0.842   3.530  1.5004 -1.4476 -2.1841
 5010TIP3    H236446   5.637   0.729   3.529 -1.6436  1.1184  0.4089
 5011TIP3   OH236447   2.848   2.861  17.090 -0.3981  0.4254  0.0773
 5011TIP3    H136448   2.889   2.908  17.017 -0.1828 -0.7205 -0.5705
 5011TIP3    H236449   2.807   2.784  17.050 -1.4433  0.4768  0.9941
 5012TIP3   OH236450   6.082   5.221   2.703  0.7972 -0.1046 -0.0329
 5012TIP3    H136451   5.987   5.216   2.704  0.7666  0.0759 -1.1187
 5012TIP3    H236452   6.111   5.141   2.747  0.1526  0.4653  1.5031
 5013TIP3   OH236453   6.306   2.531   1.664  0.3812  0.1009  0.0433
 5013TIP3    H136454   6.369   2.578   1.609 -1.2731  2.4168 -0.0327
 5013TIP3    H236455   6.351   2.522   1.749  0.6542  2.2986  0.1924
 5014TIP3   OH236456   5.950   4.654   5.751 -0.1097  0.2652  0.4428
 5014TIP3    H136457   5.861   4.666   5.718  0.1898  3.1751  0.4035
 5014TIP3    H236458   5.943   4.666   5.846  0.0861 -0.8661  0.6196
 5015TIP3   OH236459   0.486   2.972  12.010 -0.1254  0.4496  0.1444
 5015TIP3    H136460   0.399   3.011  12.021 -0.2292  0.4543 -0.6735
 5015TIP3    H236461   0.525   3.020  11.937  0.2336 -0.1360 -0.0505
 5016TIP3   OH236462   4.528   3.296   5.813  0.0021 -0.4075 -0.1755
 5016TIP3    H136463   4.598   3.251   5.766  1.4684 -0.6250  2.0647
 5016TIP3    H236464   4.524   3.252   5.897 -2.0371  0.4036  0.1911
 5017TIP3   OH236465   1.926   1.877  16.277 -0.0330  0.0869  0.0037
 5017TIP3    H136466   1.989   1.933  16.231  1.1880 -1.4097 -0.2468
 5017TIP3    H236467   1.845   1.927  16.277  0.9350  1.7407 -0.4010
 5018TIP3   OH236468   2.061   5.669   3.703  0.7535  0.2770  0.0105
 5018TIP3    H136469   2.122   5.644   3.773  0.6750 -2.0028 -0.6615
 5018TIP3    H236470   2.000   5.596   3.697 -0.5400  1.3877 -1.0417
 5019TIP3   OH236471   5.362   0.594  11.592  0.3580  0.5761 -0.1564
 5019TIP3    H136472   5.359   0.687  11.616  0.8517  0.4237  0.5176
 5019TIP3    H236473   5.455   0.575  11.581  0.2874  0.0553  0.1307
 5020TIP3   OH236474   6.147   2.313   1.746 -0.5615  0.2595 -0.0168
 5020TIP3    H136475   6.119   2.331   1.836 -1.9846 -0.1088 -0.3712
 5020TIP3    H236476   6.219   2.374   1.731  1.1431 -1.1051  2.0756
 5021TIP3   OH236477   5.493   6.080   5.030 -0.6582  0.3237  0.3407
 5021TIP3    H136478   5.559   6.045   4.970 -0.4971  0.5039  0.4138
 5021TIP3    H236479   5.521   6.169   5.048 -1.7424  0.9495 -0.8436
 5022TIP3   OH236480   3.022   3.370   3.338  0.4769  0.3996  0.3491
 5022TIP3    H136481   3.058   3.303   3.396  0.1104  1.0557  1.3662
 5022TIP3    H236482   3.096   3.426   3.316  0.3408  1.0908  1.5307
 5023TIP3   OH236483   4.945   2.998  11.879  0.3246 -0.1199  0.3968
 5023TIP3    H136484   4.876   3.047  11.924  0.3841 -0.1634  0.5322
 5023TIP3    H236485   4.901   2.919  11.848 -0.2846  0.8999 -1.5398
 5024TIP3   OH236486   1.077   5.619   2.312  0.0626 -0.1383  0.1457
 5024TIP3    H136487   1.054   5.537   2.267  0.1761 -0.2774  0.3421
 5024TIP3    H236488   0.993   5.656   2.338 -0.0176  0.0319 -0.3324
 5025TIP3   OH236489   1.717   5.527   5.967  0.0153 -0.1989  0.1623
 5025TIP3    H136490   1.717   5.597   6.032  1.3522 -1.3846  1.5445
 5025TIP3    H236491   1.711   5.447   6.019 -2.1458 -1.1379 -1.4048
 5026TIP3   OH236492   0.635   0.231   1.792  0.1071 -0.4296 -0.2160
 5026TIP3    H136493   0.594   0.309   1.754  1.1604 -0.0698 -0.6388
 5026TIP3    H236494   0.729   0.250   1.790  0.3331 -1.4696  0.2229
 5027TIP3   OH236495   0.656   2.863  13.037 -0.2854 -0.5652 -0.4191
 5027TIP3    H136496   0.573   2.888  12.996 -0.7689 -0.4748  0.5726
 5027TIP3    H236497   0.716   2.851  12.964 -1.0670 -0.2485 -1.1379
 5028TIP3   OH236498   4.709   3.994   2.157  0.2302 -0.3610  0.5624
 5028TIP3    H136499   4.713   3.978   2.063 -0.5449  1.4187  0.1824
 5028TIP3    H236500   4.794   3.964   2.189 -0.2044 -2.7931 -0.3464
 5029TIP3   OH236501   5.610   1.114  16.174  0.6099  0.7222  0.1232
 5029TIP3    H136502   5.570   1.058  16.241  2.0270 -0.5510 -0.0403
 5029TIP3    H236503   5.678   1.162  16.222  2.5251 -1.1618 -0.5782
 5030TIP3   OH236504   3.006   6.394   3.394 -0.8250 -0.3215  0.1943
 5030TIP3    H136505   3.024   6.482   3.428 -2.3343 -0.3293  1.1048
 5030TIP3    H236506   3.067   6.337   3.441 -0.0385  0.1846 -0.1920
 5031TIP3   OH236507   1.468   4.481   5.529 -0.0852 -0.3841 -0.4983
 5031TIP3    H136508   1.527   4.406   5.516  2.8584  2.0110 -1.9989
 5031TIP3    H236509   1.403   4.471   5.459  1.0836 -0.8549 -1.5797
 5032TIP3   OH236510   0.968   1.098   3.609 -0.3247  0.4543  0.5278
 5032TIP3    H136511   0.990   1.168   3.671  0.1668  1.1086 -0.3706
 5032TIP3    H236512   0.996   1.131   3.524 -0.7475 -0.5460 -0.0177
 5033TIP3   OH236513   2.758   3.712  11.039  0.7168  0.4966 -0.0437
 5033TIP3    H136514   2.826   3.765  10.997  1.6097 -0.6191 -0.0512
 5033TIP3    H236515   2.677   3.761  11.025  1.5720  2.1227  0.4182
 5034TIP3   OH236516   6.650   1.227   4.638  0.2041 -0.5040  0.3591
 5034TIP3    H136517   6.723   1.244   4.699  1.7715  0.3731 -1.6242
 5034TIP3    H236518   6.678   1.150   4.589 -0.8741 -0.9924  0.4984
 5035TIP3   OH236519   4.045   0.307   2.901 -0.1180 -0.0681  0.1310
 5035TIP3    H136520   3.992   0.374   2.858  0.0376 -0.5815 -0.8799
 5035TIP3    H236521   3.985   0.267   2.965  0.1582  1.9000  1.7466
 5036TIP3   OH236522   1.080   1.553  16.122 -0.4217  0.2091  0.1616
 5036TIP3    H136523   1.094   1.648  16.131  2.4302 -0.3237  3.6291
 5036TIP3    H236524   1.020   1.531  16.193 -2.6830 -0.4988 -1.8159
 5037TIP3   OH236525   5.557   0.933  14.467  0.7690 -0.0385  0.3287
 5037TIP3    H136526   5.641   0.970  14.493  0.3104 -0.1804  2.0839
 5037TIP3    H236527   5.492   0.998  14.495  0.1521 -0.8975  0.9174
 5038TIP3   OH236528   6.278   4.198   0.299  0.2178  0.1298  0.4274
 5038TIP3    H136529   6.189   4.168   0.277  0.7230  0.1379 -1.8504
 5038TIP3    H236530   6.302   4.146   0.376 -1.4489 -0.4369  0.6101
 5039TIP3   OH236531   4.236   4.245   1.566 -0.6032 -0.4836  0.3982
 5039TIP3    H136532   4.171   4.236   1.496  1.5856 -1.4160 -1.6257
 5039TIP3    H236533   4.194   4.205   1.642 -2.6799 -0.3616 -0.5964
 5040TIP3   OH236534   1.941   1.793  16.003  0.0868 -0.5604 -0.6433
 5040TIP3    H136535   1.957   1.774  16.096  3.1014  1.1766 -0.6884
 5040TIP3    H236536   1.879   1.866  16.004  1.3627  0.5641  0.1426
 5041TIP3   OH236537   0.975   2.248  11.970 -0.1987 -0.1269 -0.3618
 5041TIP3    H136538   0.881   2.240  11.988 -0.0628  0.3621  0.6413
 5041TIP3    H236539   1.012   2.166  12.002  0.0503  0.7636  1.8190
 5042TIP3   OH236540   5.008   0.301   3.338  0.1944 -0.2401 -0.5265
 5042TIP3    H136541   5.049   0.249   3.407  1.2388  1.4365  0.1762
 5042TIP3    H236542   4.928   0.336   3.378 -0.0372 -0.5567 -0.7056
 5043TIP3   OH236543   5.606   4.047   5.040  0.0666  1.0857 -0.5931
 5043TIP3    H136544   5.550   3.987   5.089  2.2142 -0.2479  0.3936
 5043TIP3    H236545   5.559   4.130   5.040 -2.0758 -0.0574 -0.2408
 5044TIP3   OH236546   6.526   1.019   3.145 -0.4105  0.3818  0.3259
 5044TIP3    H136547   6.611   0.981   3.121  0.6709  2.4019  0.7430
 5044TIP3    H236548   6.513   1.091   3.082 -0.7446  1.4689  1.5911
 5045TIP3   OH236549   0.863   1.447  11.368  0.5955 -0.2610 -0.3362
 5045TIP3    H136550   0.952   1.420  11.346  0.1274 -0.5273 -2.1372
 5045TIP3    H236551   0.807   1.389  11.315 -0.5904  0.7258 -0.2074
 5046TIP3   OH236552   2.790   1.790  15.790  0.3601  0.1668 -0.1245
 5046TIP3    H136553   2.795   1.861  15.854  0.3954 -0.7052  0.8555
 5046TIP3    H236554   2.705   1.802  15.748  1.0267  1.7454 -1.1327
 5047TIP3   OH236555   1.149   3.569  11.928  0.7963 -0.9023  0.1975
 5047TIP3    H136556   1.070   3.579  11.982  2.2949  0.1141  2.3366
 5047TIP3    H236557   1.172   3.658  11.902  2.0893 -0.9999  0.9344
 5048TIP3   OH236558   6.364   2.724  14.818  0.7472  0.0069 -0.5672
 5048TIP3    H136559   6.449   2.693  14.850  1.2973  0.3257 -1.6666
 5048TIP3    H236560   6.306   2.649  14.827  1.3625 -0.4756 -0.5780
 5049TIP3   OH236561   2.203   2.821   0.806 -0.2224 -0.3288 -0.6776
 5049TIP3    H136562   2.109   2.835   0.791 -0.1353 -0.3690 -1.2763
 5049TIP3    H236563   2.215   2.840   0.899 -0.7153  0.2607 -0.7255
 5050TIP3   OH236564   0.305   2.733  13.079  0.1832 -0.2381  0.1700
 5050TIP3    H136565   0.273   2.822  13.086 -0.9143 -0.7323  1.8412
 5050TIP3    H236566   0.238   2.687  13.029 -1.1028 -0.9158  2.3810
 5051TIP3   OH236567   4.588   4.691   0.878  0.5853 -0.0022 -0.6207
 5051TIP3    H136568   4.655   4.655   0.819  0.3372 -2.0411  0.2717
 5051TIP3    H236569   4.513   4.633   0.866  0.5945 -0.5959  1.8051
 5052TIP3   OH236570   3.870   3.446   4.777  0.3734  0.5571  0.4954
 5052TIP3    H136571   3.861   3.474   4.868 -1.1441  0.7818  0.2994
 5052TIP3    H236572   3.837   3.519   4.725 -1.1684 -0.5064 -0.1137
 5053TIP3   OH236573   5.884   4.393   2.162  0.5868  0.5288  0.0755
 5053TIP3    H136574   5.939   4.323   2.126 -0.0446 -0.3134  0.6913
 5053TIP3    H236575   5.920   4.474   2.125  1.1291 -0.1470 -0.9233
 5054TIP3   OH236576   1.400   0.947  16.127  0.1280 -0.2890 -0.5601
 5054TIP3    H136577   1.479   0.991  16.097 -0.9473  1.4694 -0.9734
 5054TIP3    H236578   1.405   0.949  16.222  0.9729 -0.9725 -0.5809
 5055TIP3   OH236579   3.989   3.945  13.133  0.1388 -0.0268  0.0539
 5055TIP3    H136580   3.954   3.886  13.066  0.8069  1.2159 -1.4505
 5055TIP3    H236581   3.911   3.978  13.178 -0.2609 -1.7145  0.6677
 5056TIP3   OH236582   6.673   1.500  14.147  0.1833 -0.2909 -0.1300
 5056TIP3    H136583   6.620   1.575  14.174  1.9277  1.0432 -0.2023
 5056TIP3    H236584   6.711   1.466  14.228  1.3549  0.4916 -0.3304
 5057TIP3   OH236585   6.720   4.433   4.719 -0.0106  0.0291 -0.1071
 5057TIP3    H136586   6.630   4.463   4.710 -0.3425 -0.6466  0.7858
 5057TIP3    H236587   6.724   4.396   4.807  0.8910 -0.7954 -0.4793
 5058TIP3   OH236588   3.329   5.465  13.104  0.6722  0.0465  0.8646
 5058TIP3    H136589   3.243   5.466  13.062  0.5036  4.3199  0.8938
 5058TIP3    H236590   3.390   5.441  13.034 -0.2596 -0.3150  0.1507
 5059TIP3   OH236591   1.553   5.673  15.428 -1.0177 -0.1242 -0.1073
 5059TIP3    H136592   1.527   5.617  15.501 -0.1299  0.0788  0.3830
 5059TIP3    H236593   1.479   5.671  15.368 -1.8595 -0.0857  0.9140
 5060TIP3   OH236594   3.095   5.055  15.084  0.5243 -0.1368 -0.0709
 5060TIP3    H136595   3.044   4.976  15.064  3.1914 -1.5230 -2.0041
 5060TIP3    H236596   3.093   5.061  15.180 -0.4847 -2.0436  0.0757
 5061TIP3   OH236597   3.105   2.944  16.038  0.8829 -0.2896  0.2832
 5061TIP3    H136598   3.021   2.912  16.071  0.0871  1.3810  0.0037
 5061TIP3    H236599   3.171   2.888  16.080 -0.1313  0.7223  3.5080
 5062TIP3   OH236600   3.844   4.171   0.052 -0.5115  0.0618  0.1873
 5062TIP3    H136601   3.917   4.185  -0.007 -0.2352 -1.4444  0.1367
 5062TIP3    H236602   3.884   4.157   0.138 -0.8327  0.6873  0.4515
 5063TIP3   OH236603   3.818   0.857   0.959  0.2395 -0.5672 -1.1060
 5063TIP3    H136604   3.842   0.776   0.915 -0.4073 -1.6070  0.3800
 5063TIP3    H236605   3.753   0.898   0.902  0.3906 -1.2126 -1.7458
 5064TIP3   OH236606   2.353   1.060  12.028 -0.5769 -0.5009  0.2169
 5064TIP3    H136607   2.370   1.029  12.117  1.1120 -0.0461  0.0954
 5064TIP3    H236608   2.364   1.155  12.034 -1.9449 -0.2989 -0.1857
 5065TIP3   OH236609   4.855   0.922   5.831 -0.3751  0.3674  0.1565
 5065TIP3    H136610   4.827   1.012   5.847 -0.3135  0.2479  0.9875
 5065TIP3    H236611   4.826   0.873   5.909  0.9707 -0.0167  0.4518
 5066TIP3   OH236612   1.697   4.661   3.884 -0.1847 -0.2402  0.3100
 5066TIP3    H136613   1.624   4.706   3.843  0.3353 -1.0211 -1.5430
 5066TIP3    H236614   1.769   4.725   3.882  0.0983 -0.5694 -0.8768
 5067TIP3   OH236615   3.779   6.033  13.523  0.0290 -0.6677 -0.0950
 5067TIP3    H136616   3.814   6.101  13.580 -1.3993 -1.0211  1.2617
 5067TIP3    H236617   3.857   5.989  13.489  0.9362  0.1408  0.8495
 5068TIP3   OH236618   5.807   1.264  14.392  0.5578  0.7489 -0.3417
 5068TIP3    H136619   5.766   1.233  14.473 -0.6193  0.2466 -1.0998
 5068TIP3    H236620   5.895   1.227  14.393  0.1562 -0.2243  0.1458
 5069TIP3   OH236621   3.472   4.612   4.512 -0.4048  0.1551  0.3991
 5069TIP3    H136622   3.486   4.546   4.581 -1.1214  1.9157  2.3199
 5069TIP3    H236623   3.559   4.645   4.493  0.2618 -2.6183 -2.0488
 5070TIP3   OH236624   4.336   2.541  11.443 -0.1448  0.1956  0.4895
 5070TIP3    H136625   4.282   2.594  11.502 -1.4853  0.0758 -0.5889
 5070TIP3    H236626   4.306   2.451  11.458 -1.6063  0.3011 -1.4114
 5071TIP3   OH236627   5.003   2.778  16.333  0.4656 -0.5152 -0.3121
 5071TIP3    H136628   4.909   2.758  16.327  0.7328 -2.7655  1.4602
 5071TIP3    H236629   5.016   2.802  16.425  2.0683 -3.5744  0.4013
 5072TIP3   OH236630   3.382   0.985   4.988  0.0905 -0.2108  0.4135
 5072TIP3    H136631   3.458   1.008   4.935  0.3214 -0.1419  0.7662
 5072TIP3    H236632   3.412   0.912   5.042 -0.8263 -1.7973 -1.1399
 5073TIP3   OH236633   3.312   0.281  12.412 -0.1294  0.6264  0.4353
 5073TIP3    H136634   3.234   0.336  12.406 -1.2906 -1.0166 -0.6178
 5073TIP3    H236635   3.376   0.321  12.353  0.2738  2.5910  2.1069
 5074TIP3   OH236636   0.281   0.648   3.454 -0.0012 -0.0754 -0.1760
 5074TIP3    H136637   0.376   0.657   3.444 -0.0288  0.6440  0.1326
 5074TIP3    H236638   0.250   0.739   3.459 -1.0407 -0.1247 -3.4121
 5075TIP3   OH236639   1.993   5.928  17.245  0.5341 -0.0198  0.4000
 5075TIP3    H136640   1.968   5.836  17.244 -0.3050  0.2040  0.2916
 5075TIP3    H236641   2.068   5.931  17.304 -0.4276 -0.5368  1.7076
 5076TIP3   OH236642   4.951   4.123   1.169 -0.0182 -0.1242 -0.0688
 5076TIP3    H136643   4.859   4.112   1.146  0.4160 -1.1107 -1.5043
 5076TIP3    H236644   4.950   4.150   1.261 -1.7501  0.6140 -0.2622
 5077TIP3   OH236645   6.193   1.026   5.615  0.0190 -0.0275 -0.0884
 5077TIP3    H136646   6.254   0.983   5.676  0.1328 -0.1408 -0.2798
 5077TIP3    H236647   6.115   0.971   5.616 -0.8084  1.1165  1.5694
 5078TIP3   OH236648   4.432   6.754   6.099 -0.4597  0.6410 -0.6820
 5078TIP3    H136649   4.395   6.731   6.184  2.0779  0.3899  0.4540
 5078TIP3    H236650   4.417   6.678   6.044  0.5697 -0.4762  0.5216
 5079TIP3   OH236651   6.787   5.935   5.352  0.3523 -0.0519 -0.4524
 5079TIP3    H136652   6.869   5.887   5.365  0.1047 -1.2872 -2.9007
 5079TIP3    H236653   6.812   6.027   5.356  1.6061 -0.3960  0.1767
 5080TIP3   OH236654   5.255   1.744   3.142  0.3089 -0.0204  0.5390
 5080TIP3    H136655   5.281   1.657   3.170  0.2011  0.6633  3.0640
 5080TIP3    H236656   5.315   1.803   3.187 -0.1911  1.2458 -0.3874
 5081TIP3   OH236657   1.518   4.197  15.659 -0.3120 -0.1977 -0.8197
 5081TIP3    H136658   1.522   4.102  15.644 -1.5851 -0.2208 -1.1074
 5081TIP3    H236659   1.473   4.232  15.583 -1.9515  0.3497  0.3546
 5082TIP3   OH236660   5.713   0.016   4.163 -0.0131 -1.0527 -0.5888
 5082TIP3    H136661   5.734   0.110   4.161  0.2717 -1.0631  1.1485
 5082TIP3    H236662   5.733  -0.014   4.074  2.1530  0.0741 -0.5622
 5083TIP3   OH236663   6.521   1.358  15.631  0.0513  0.1939  0.6627
 5083TIP3    H136664   6.470   1.350  15.550  1.7691 -0.1661 -0.4348
 5083TIP3    H236665   6.587   1.289  15.625  0.2778  0.2229  2.3550
 5084TIP3   OH236666   4.814   0.990  15.144  0.2464 -0.8512 -0.4182
 5084TIP3    H136667   4.720   1.002  15.130 -0.1878 -3.7797 -0.5296
 5084TIP3    H236668   4.834   1.043  15.221 -1.3521  0.2777 -0.7262
 5085TIP3   OH236669   4.274   4.132   3.221 -0.4723  0.1161 -0.2922
 5085TIP3    H136670   4.358   4.099   3.190 -0.5314  1.4476 -1.9877
 5085TIP3    H236671   4.295   4.215   3.264 -0.8142 -0.0632  0.2393
 5086TIP3   OH236672   5.266   0.287   5.585 -0.4142  0.2936 -0.2031
 5086TIP3    H136673   5.321   0.349   5.634 -1.1213 -0.0210  1.0284
 5086TIP3    H236674   5.248   0.332   5.502  1.4296  0.5227 -0.5227
 5087TIP3   OH236675   4.602   4.501  13.914 -0.2228 -0.1605  0.3144
 5087TIP3    H136676   4.582   4.578  13.862  0.1513 -0.3690 -0.1502
 5087TIP3    H236677   4.568   4.521  14.001 -1.6504 -0.1523 -0.2122
 5088TIP3   OH236678   1.505   5.561  15.068 -0.0158  0.2211 -0.5694
 5088TIP3    H136679   1.534   5.651  15.050 -1.7630  0.8162 -0.6542
 5088TIP3    H236680   1.441   5.570  15.139 -0.6403 -0.8767 -0.9659
 5089TIP3   OH236681   6.777   2.505  15.183 -0.2684 -0.5965 -0.5728
 5089TIP3    H136682   6.700   2.560  15.167 -0.3037 -0.4839 -0.0498
 5089TIP3    H236683   6.771   2.482  15.276  1.4234  1.1259  0.0199
 5090TIP3   OH236684   5.493   5.584   3.411  0.8205  0.7195  0.1624
 5090TIP3    H136685   5.411   5.575   3.362  1.2551 -1.3888 -0.2548
 5090TIP3    H236686   5.467   5.623   3.495 -0.7008 -0.4334  0.2528
 5091TIP3   OH236687   3.355   1.390  17.220  0.1153 -0.0478 -0.2469
 5091TIP3    H136688   3.301   1.420  17.294  1.5362  1.2743  0.3088
 5091TIP3    H236689   3.379   1.471  17.174  1.4691 -0.6156 -0.5794
 5092TIP3   OH236690   6.432   5.211  14.204 -0.0399  0.3128 -0.2923
 5092TIP3    H136691   6.481   5.150  14.149  0.5165  0.3878  0.1019
 5092TIP3    H236692   6.494   5.282  14.220  0.3319 -0.3667  1.5850
 5093TIP3   OH236693   3.401   4.163   5.110  0.2767 -0.0792 -0.1646
 5093TIP3    H136694   3.334   4.227   5.138  0.3338  0.0574 -0.3377
 5093TIP3    H236695   3.405   4.100   5.182  1.4629  1.0608  0.8243
 5094TIP3   OH236696   6.777   1.328  14.336 -0.6315 -0.2657  0.3667
 5094TIP3    H136697   6.807   1.267  14.268 -0.1916  1.9419 -1.5471
 5094TIP3    H236698   6.687   1.302  14.352 -0.2290 -1.8951  0.1994
 5095TIP3   OH236699   4.696   4.971  16.307 -0.5766 -0.3647 -0.1951
 5095TIP3    H136700   4.620   5.011  16.264 -0.9077 -0.7030  0.0668
 5095TIP3    H236701   4.702   5.016  16.391 -1.1329 -1.0692  0.2263
 5096TIP3   OH236702   5.997   4.836   0.834 -0.0038 -0.0230 -0.0886
 5096TIP3    H136703   5.995   4.741   0.844 -0.2228  0.1829  2.5069
 5096TIP3    H236704   5.914   4.865   0.871  1.9895  1.4067  3.8585
 5097TIP3   OH236705   6.721   0.453  14.481  0.2970 -0.2559 -0.1321
 5097TIP3    H136706   6.780   0.397  14.430 -0.7700  0.0371 -1.7705
 5097TIP3    H236707   6.776   0.490  14.550  2.3685  1.0296 -2.3544
 5098TIP3   OH236708   1.665   0.334   6.277 -0.0810 -0.4098  0.8907
 5098TIP3    H136709   1.637   0.421   6.305  0.8222  0.1754  0.0380
 5098TIP3    H236710   1.756   0.327   6.305  0.0553 -0.8197  0.3815
 5099TIP3   OH236711   2.423   3.608   6.151 -0.4384 -0.5016  0.0532
 5099TIP3    H136712   2.371   3.660   6.214  0.5672  0.4481  0.1289
 5099TIP3    H236713   2.509   3.601   6.192  0.5693  1.0577 -1.6461
 5100TIP3   OH236714   2.968   5.135   3.790  0.4722 -0.8294  0.2717
 5100TIP3    H136715   2.942   5.227   3.792  3.6799  0.2135  0.8977
 5100TIP3    H236716   2.985   5.116   3.698  2.5481  0.2161  0.3635
 5101TIP3   OH236717   0.095   6.392  14.916  0.0733  0.2841 -0.5306
 5101TIP3    H136718   0.119   6.312  14.962 -0.1690 -0.8736 -2.3317
 5101TIP3    H236719   0.007   6.413  14.948  0.2420 -0.0161  0.1388
 5102TIP3   OH236720   0.144   6.410  13.329  0.1982 -0.2857  0.4233
 5102TIP3    H136721   0.088   6.441  13.400 -1.1902 -0.3736 -0.5858
 5102TIP3    H236722   0.157   6.317  13.348 -1.1011 -0.5802  0.0115
 5103TIP3   OH236723   6.043   4.578  13.714  0.4033  0.0775 -0.1773
 5103TIP3    H136724   5.992   4.499  13.734  1.7934 -1.1287 -1.1472
 5103TIP3    H236725   6.054   4.575  13.619  0.6629  1.3522 -0.2022
 5104TIP3   OH236726   4.681   4.771   3.659 -1.0134 -0.0225 -0.0681
 5104TIP3    H136727   4.645   4.860   3.662  0.8365  0.7366  0.9892
 5104TIP3    H236728   4.607   4.715   3.681 -1.5859  1.4984  2.2975
 5105TIP3   OH236729   1.572   4.641   1.021  0.0273  0.4641  0.0381
 5105TIP3    H136730   1.513   4.586   1.071  0.1996  1.5183  1.4522
 5105TIP3    H236731   1.642   4.664   1.082  0.8599  0.8695 -1.0208
 5106TIP3   OH236732   5.174   4.777   0.564 -0.8443  0.0094 -0.1114
 5106TIP3    H136733   5.178   4.732   0.649 -1.4404  0.3190  0.0817
 5106TIP3    H236734   5.119   4.854   0.580 -1.6598 -0.3762 -0.9776
 5107TIP3   OH236735   6.272   2.370  11.452 -0.5498  0.3493 -0.4901
 5107TIP3    H136736   6.189   2.344  11.493  0.0840  2.2265  2.2264
 5107TIP3    H236737   6.246   2.407  11.368 -2.4579  0.5906  0.1522
 5108TIP3   OH236738   1.181   6.327  15.505  1.3416  0.2217  0.2487
 5108TIP3    H136739   1.112   6.291  15.449  1.3816  1.3047 -0.5337
 5108TIP3    H236740   1.221   6.396  15.452  2.2251  0.4251  1.1528
 5109TIP3   OH236741   5.997   0.800  17.117  0.5494  0.1657  0.7163
 5109TIP3    H136742   6.000   0.758  17.031 -1.0596  1.4353 -0.0080
 5109TIP3    H236743   6.035   0.735  17.176  3.0604 -0.1781 -1.1213
 5110TIP3   OH236744   4.428   4.977  10.367 -1.1103  0.5068  0.0414
 5110TIP3    H136745   4.389   4.910  10.310 -0.9070  1.7419 -1.6489
 5110TIP3    H236746   4.514   4.942  10.390 -1.9590 -0.8782  1.2429
 5111TIP3   OH236747   0.982   2.938   6.435  0.4995  0.7370 -0.4068
 5111TIP3    H136748   1.025   3.004   6.381 -1.3799  2.4837  0.0895
 5111TIP3    H236749   0.928   2.887   6.374  1.2346  0.2470 -0.6605
 5112TIP3   OH236750   0.964   3.269   5.823 -0.6156  0.7910 -0.2002
 5112TIP3    H136751   0.948   3.261   5.917 -2.5998  0.7022 -0.4951
 5112TIP3    H236752   0.999   3.357   5.812  0.2190  0.5806  0.6765
 5113TIP3   OH236753   5.487   2.093   3.739  0.1286 -0.4062  0.3598
 5113TIP3    H136754   5.568   2.123   3.698 -0.4529  0.0175 -0.5069
 5113TIP3    H236755   5.423   2.094   3.668 -1.1828  1.3884  1.5125
 5114TIP3   OH236756   3.917   2.337  13.099 -0.0016 -0.3143  0.3185
 5114TIP3    H136757   3.878   2.257  13.064 -0.0148 -0.2787  0.2512
 5114TIP3    H236758   3.872   2.352  13.182 -1.3309  0.6389 -0.5253
 5115TIP3   OH236759   0.029   3.074   0.783 -0.2959  0.2420  0.3074
 5115TIP3    H136760  -0.029   3.076   0.707  2.9458 -2.3105 -2.5489
 5115TIP3    H236761  -0.004   3.001   0.836 -1.1572  0.4657  0.0890
 5116TIP3   OH236762   5.041   5.508  15.680 -0.0106 -0.7692 -0.4180
 5116TIP3    H136763   5.067   5.586  15.729  1.2842 -1.7312  0.5203
 5116TIP3    H236764   5.086   5.517  15.596 -0.9972  0.1534 -0.8612
 5117TIP3   OH236765   2.237   0.388   3.518  0.1706 -0.0833  0.8082
 5117TIP3    H136766   2.284   0.384   3.602  0.6340  2.5799  0.7774
 5117TIP3    H236767   2.302   0.422   3.457 -0.5494 -0.7178 -0.3391
 5118TIP3   OH236768   4.394   2.689  11.769 -0.1609 -0.5397 -0.0037
 5118TIP3    H136769   4.309   2.688  11.725 -0.8603 -0.5397  1.2978
 5118TIP3    H236770   4.373   2.682  11.862  1.2212  0.3724  0.4097
 5119TIP3   OH236771   1.008   3.447  16.413  0.0397  0.6670 -0.7219
 5119TIP3    H136772   0.950   3.523  16.418 -0.2419  0.4391 -0.4554
 5119TIP3    H236773   0.952   3.376  16.385 -0.1765  0.0896  1.0313
 5120TIP3   OH236774   3.900   5.750  11.629  0.2295 -0.7776  0.2627
 5120TIP3    H136775   3.847   5.798  11.693 -0.2511 -3.4972  2.0978
 5120TIP3    H236776   3.837   5.697  11.581  0.9374 -1.2489 -0.1603
 5121TIP3   OH236777   4.967   4.091  13.287  0.2714 -0.2082 -0.5758
 5121TIP3    H136778   4.912   4.033  13.339  0.4085  0.7122  0.6440
 5121TIP3    H236779   5.047   4.102  13.339 -0.4500  2.4494  0.1350
 5122TIP3   OH236780   1.606   0.700   1.048  0.7900  0.9884 -0.1397
 5122TIP3    H136781   1.560   0.682   1.130  3.3321 -1.7120  0.8764
 5122TIP3    H236782   1.561   0.647   0.982  1.2239 -0.1448  0.4483
 5123TIP3   OH236783   2.546   5.659  16.226 -0.1918  0.3032 -0.2537
 5123TIP3    H136784   2.608   5.614  16.169 -0.9386  0.2246 -1.0203
 5123TIP3    H236785   2.529   5.742  16.182  0.3022  0.8656  0.5834
 5124TIP3   OH236786   3.408   5.797   2.131  0.3106  0.0035 -0.5288
 5124TIP3    H136787   3.410   5.766   2.041 -0.3159 -1.3866 -0.0829
 5124TIP3    H236788   3.373   5.886   2.125 -1.6681 -0.8001 -1.4876
 5125TIP3   OH236789   3.973   5.176  15.650  0.0928 -0.1129 -0.1178
 5125TIP3    H136790   3.937   5.246  15.706  0.4986  0.2799 -0.3420
 5125TIP3    H236791   4.037   5.221  15.595  1.3474 -0.9134  0.6710
 5126TIP3   OH236792   2.017   4.137  15.944  0.4756  0.0652  0.0763
 5126TIP3    H136793   2.049   4.117  16.031 -0.8366 -0.3201  0.4904
 5126TIP3    H236794   1.983   4.226  15.950 -0.9445 -0.4720  0.3742
 5127TIP3   OH236795   6.488   6.318  13.878  0.3770 -0.5400 -0.0038
 5127TIP3    H136796   6.442   6.237  13.900 -0.1897  0.5968  3.6496
 5127TIP3    H236797   6.419   6.378  13.851  0.0804  0.0542  1.9059
 5128TIP3   OH236798   0.848   1.318  14.938 -0.0778  0.6513  0.2571
 5128TIP3    H136799   0.770   1.361  14.903 -0.4411 -0.2345 -0.0464
 5128TIP3    H236800   0.883   1.380  15.002  0.8808  2.5622 -1.9613
 5129TIP3   OH236801   6.634   5.277  16.083  0.2189 -0.0763  0.1948
 5129TIP3    H136802   6.556   5.331  16.081  0.3977  0.1867 -1.3685
 5129TIP3    H236803   6.649   5.254  15.991  2.0607  0.0261  0.4278
 5130TIP3   OH236804   5.663   1.425   1.635  0.1427  0.5663 -0.1522
 5130TIP3    H136805   5.681   1.455   1.546  2.9180  2.0577  0.7924
 5130TIP3    H236806   5.747   1.435   1.681 -0.8161 -1.4856  2.2909
 5131TIP3   OH236807   1.749   5.326  16.703 -0.0897 -0.1967 -0.1162
 5131TIP3    H136808   1.674   5.335  16.762 -0.3670  0.8062 -0.6165
 5131TIP3    H236809   1.757   5.411  16.660  0.3891 -0.7682 -1.1954
 5132TIP3   OH236810   2.526   0.740  13.506 -0.5789 -0.3832  0.2090
 5132TIP3    H136811   2.488   0.723  13.419 -1.5682  0.2472  0.5090
 5132TIP3    H236812   2.474   0.685  13.565  0.0457 -0.7526  0.4191
 5133TIP3   OH236813   5.983   2.683   2.088  0.4793  0.0574 -0.4807
 5133TIP3    H136814   5.979   2.589   2.075  1.4092 -0.2790  1.3084
 5133TIP3    H236815   5.904   2.704   2.137  0.6623  0.0748 -0.1918
 5134TIP3   OH236816   5.792   4.900   0.517 -0.5870  0.8299  0.0276
 5134TIP3    H136817   5.720   4.874   0.460  0.8398  2.0379 -2.5060
 5134TIP3    H236818   5.870   4.860   0.476  0.2774 -0.4505  2.6575
 5135TIP3   OH236819   6.233   2.089  16.945  0.0154 -0.0180  0.0274
 5135TIP3    H136820   6.319   2.099  16.903 -0.0027 -0.3699 -0.0996
 5135TIP3    H236821   6.231   2.157  17.012 -0.0608  0.7263 -0.7133
 5136TIP3   OH236822   5.730   4.157   2.304 -0.5371  0.4398 -0.4086
 5136TIP3    H136823   5.782   4.169   2.383 -2.0004  1.5700  0.4188
 5136TIP3    H236824   5.754   4.230   2.248 -1.0901  0.8649 -0.0975
 5137TIP3   OH236825   2.249   1.003  13.978 -0.5313  0.2535  0.4828
 5137TIP3    H136826   2.279   1.015  14.069 -0.9880 -1.5062  0.9108
 5137TIP3    H236827   2.314   1.049  13.925 -0.3838  1.5215  1.7026
 5138TIP3   OH236828   0.193   2.900   2.765 -0.1967 -0.5588 -0.4900
 5138TIP3    H136829   0.099   2.881   2.769 -0.5975  1.3516  0.2205
 5138TIP3    H236830   0.201   2.987   2.803  2.1153 -1.4173  1.2136
 5139TIP3   OH236831   5.602   4.492  16.575 -0.0096 -0.1152  0.2296
 5139TIP3    H136832   5.661   4.567  16.578  0.2841 -0.3359  0.0218
 5139TIP3    H236833   5.566   4.493  16.486  0.2541 -0.4156  0.1172
 5140TIP3   OH236834   6.324   4.712  14.371  0.2253 -0.8149 -0.0907
 5140TIP3    H136835   6.356   4.662  14.447 -0.2252 -0.6567  0.2042
 5140TIP3    H236836   6.310   4.646  14.304  1.5474 -0.8464 -0.3628
 5141TIP3   OH236837   1.816   4.712  15.187  0.1083  0.4304  0.3953
 5141TIP3    H136838   1.744   4.775  15.196  0.3032  0.7714 -0.3719
 5141TIP3    H236839   1.895   4.763  15.202  0.2063  0.0843  1.0863
 5142TIP3   OH236840   5.409   3.565   0.759  0.5420 -0.6004 -0.1313
 5142TIP3    H136841   5.423   3.475   0.791 -0.9112  0.1846  3.1950
 5142TIP3    H236842   5.314   3.572   0.750  0.3281  1.3557  2.5354
 5143TIP3   OH236843   2.856   5.514   5.762 -0.2911  0.1046 -0.2935
 5143TIP3    H136844   2.837   5.528   5.669 -1.9367 -0.8047 -0.1261
 5143TIP3    H236845   2.848   5.601   5.802  0.1761  0.4571 -0.9395
 5144TIP3   OH236846   6.304   5.647  11.778 -0.0966 -0.0872  0.2944
 5144TIP3    H136847   6.385   5.639  11.830  1.2294  1.0689 -1.4763
 5144TIP3    H236848   6.272   5.735  11.798  0.3224  0.2941 -0.6660
 5145TIP3   OH236849   4.004   5.889  13.398  0.0606 -0.2225 -0.4477
 5145TIP3    H136850   3.993   5.858  13.308 -2.1204 -1.1830  0.0904
 5145TIP3    H236851   4.002   5.809  13.451  1.4409  0.3190  0.4820
 5146TIP3   OH236852   1.288   6.560  13.916  0.0753 -0.5328  0.2537
 5146TIP3    H136853   1.255   6.551  14.005 -2.4778  1.3553 -0.3784
 5146TIP3    H236854   1.297   6.470  13.885 -2.2280 -1.2463  1.3772
 5147TIP3   OH236855   6.574   2.618  15.080  0.1967 -0.1789 -0.1322
 5147TIP3    H136856   6.495   2.608  15.133  0.1613  0.7446  0.0172
 5147TIP3    H236857   6.570   2.548  15.016 -0.1161 -0.8896  0.6505
 5148TIP3   OH236858   3.912   5.022  13.126 -0.0075  0.2462  0.2256
 5148TIP3    H136859   3.954   4.993  13.206 -0.0208  1.5613  0.7423
 5148TIP3    H236860   3.858   4.948  13.098 -0.8294  0.1155  2.0237
 5149TIP3   OH236861   0.438   3.699  11.949 -0.3926  0.0064 -0.1335
 5149TIP3    H136862   0.353   3.739  11.929 -2.1641 -2.9883  0.7246
 5149TIP3    H236863   0.446   3.627  11.888  1.3047 -0.1200  0.1899
 5150TIP3   OH236864   0.182   4.748  11.798  0.6142  0.3223 -0.6549
 5150TIP3    H136865   0.227   4.827  11.829 -2.7936  2.6503 -1.1190
 5150TIP3    H236866   0.124   4.779  11.729 -0.7569 -2.6585 -0.9859
 5151TIP3   OH236867   4.235   4.664   1.150 -0.5331 -0.4327 -0.0618
 5151TIP3    H136868   4.182   4.585   1.141 -0.6928 -0.4407  0.8681
 5151TIP3    H236869   4.272   4.678   1.063  0.7473 -2.4061  0.1008
 5152TIP3   OH236870   0.331   6.365   6.554 -0.2417 -0.8973  0.5830
 5152TIP3    H136871   0.362   6.452   6.577 -0.2505 -0.2396 -1.6413
 5152TIP3    H236872   0.323   6.319   6.637 -0.4160  1.2764  1.8236
 5153TIP3   OH236873   5.015   2.818  13.313 -0.2318  0.2289  0.7166
 5153TIP3    H136874   4.960   2.768  13.253  1.5814 -1.2203  0.1654
 5153TIP3    H236875   5.001   2.776  13.398 -0.0072 -0.1334  0.5791
 5154TIP3   OH236876   5.292   0.299  14.368  0.5343 -0.2428  0.2209
 5154TIP3    H136877   5.362   0.328  14.309  0.5362 -0.1700  0.2586
 5154TIP3    H236878   5.290   0.204  14.357 -0.1593 -0.1392 -0.6625
 5155TIP3   OH236879   3.465   4.704  13.472 -0.7065  0.5946 -0.0863
 5155TIP3    H136880   3.535   4.767  13.453 -0.8845  0.8357  0.0490
 5155TIP3    H236881   3.497   4.621  13.437  1.3201 -0.1770  3.0970
 5156TIP3   OH236882   1.240   4.923  15.281  0.1756 -0.1496 -0.2986
 5156TIP3    H136883   1.271   4.951  15.195  0.9085 -0.0863 -0.0149
 5156TIP3    H236884   1.150   4.955  15.285  0.9741  2.2696  0.0312
 5157TIP3   OH236885   0.303   1.907  16.045  0.3050 -0.2438  0.3590
 5157TIP3    H136886   0.352   1.902  15.964  2.1513 -2.1339  1.4808
 5157TIP3    H236887   0.248   1.828  16.044  0.4896 -0.3865  1.0038
 5158TIP3   OH236888   2.395   5.776  10.968  0.1113  0.0864  0.0485
 5158TIP3    H136889   2.353   5.851  10.926 -0.7886 -0.7387 -0.5566
 5158TIP3    H236890   2.451   5.815  11.035  0.3400  1.3447 -0.8336
 5159TIP3   OH236891   2.886   2.565   4.067 -0.1999  0.2089 -0.2407
 5159TIP3    H136892   2.868   2.500   3.998 -0.9272  1.1941 -1.0124
 5159TIP3    H236893   2.802   2.611   4.079  0.4280  1.3438 -0.0703
 5160TIP3   OH236894   6.680   2.989   6.511 -0.2852  0.3116 -0.5677
 5160TIP3    H136895   6.611   3.048   6.541  0.6032  0.9071  0.3577
 5160TIP3    H236896   6.757   3.044   6.502  0.4284 -0.5955 -0.2039
 5161TIP3   OH236897   4.152   0.214   0.888 -0.7746  0.1124 -0.0905
 5161TIP3    H136898   4.070   0.176   0.858 -0.0548  0.6233 -2.9458
 5161TIP3    H236899   4.151   0.304   0.856 -1.2197  1.8456  4.1686
 5162TIP3   OH236900   1.489   2.187  17.214  0.2106  0.5716  0.5772
 5162TIP3    H136901   1.540   2.113  17.247  0.6975  0.6091 -0.0684
 5162TIP3    H236902   1.404   2.149  17.190  0.6867  0.0823 -0.3798
 5163TIP3   OH236903   5.703   3.566  16.622  0.0360 -0.4822  0.1356
 5163TIP3    H136904   5.616   3.527  16.608 -1.0858  2.0274 -0.3639
 5163TIP3    H236905   5.748   3.553  16.538 -0.1463 -1.0254  0.1143
 5164TIP3   OH236906   1.113   2.564  13.996  0.3821 -0.2396 -0.1039
 5164TIP3    H136907   1.068   2.485  14.024  0.9923 -0.8086 -0.7079
 5164TIP3    H236908   1.084   2.578  13.905  1.6406 -0.7945 -0.6122
 5165TIP3   OH236909   3.935   0.151   4.291  0.2616  0.2781  0.0674
 5165TIP3    H136910   3.865   0.087   4.306  0.0738  0.0509 -1.5694
 5165TIP3    H236911   4.009   0.099   4.261  0.7110  0.6561  0.5121
 5166TIP3   OH236912   2.905   1.823  10.653 -0.1585  0.8026  0.0334
 5166TIP3    H136913   2.810   1.835  10.652 -0.1775  0.6477 -0.4113
 5166TIP3    H236914   2.941   1.912  10.645 -0.2887  0.7066 -2.1778
 5167TIP3   OH236915   2.434   3.649   1.073  0.1288  0.7544  0.6270
 5167TIP3    H136916   2.355   3.616   1.030  0.1970  0.9894  0.3142
 5167TIP3    H236917   2.453   3.731   1.027  0.3749  0.8572  0.9104
 5168TIP3   OH236918   2.521   2.833  15.251  0.1758 -0.2958 -0.1365
 5168TIP3    H136919   2.435   2.846  15.291  1.0848  0.3655  1.7237
 5168TIP3    H236920   2.505   2.839  15.157 -1.6708  0.7367  0.1946
 5169TIP3   OH236921   0.993   3.485  11.718  0.3705 -0.0503  0.4451
 5169TIP3    H136922   1.076   3.505  11.762  0.1302  1.0627  0.4197
 5169TIP3    H236923   0.927   3.492  11.787  0.1380  0.4245  0.1751
 5170TIP3   OH236924   4.164   4.273  13.608  0.2309 -0.1267 -0.5949
 5170TIP3    H136925   4.090   4.333  13.603  1.1414  1.2482  1.0608
 5170TIP3    H236926   4.138   4.197  13.556 -1.4622  1.1885 -1.7871
 5171TIP3   OH236927   0.761   4.292   1.628 -0.2053  0.6644 -0.1067
 5171TIP3    H136928   0.800   4.221   1.679  0.6301  0.2937 -1.2043
 5171TIP3    H236929   0.697   4.248   1.572  0.5996  0.6875 -1.0767
 5172TIP3   OH236930   5.289   6.194  11.625  0.1898 -0.3293  0.1929
 5172TIP3    H136931   5.362   6.246  11.593 -0.5777 -0.5833 -2.1555
 5172TIP3    H236932   5.216   6.256  11.628  0.1614 -0.4003  1.1549
 5173TIP3   OH236933   1.632   0.833   1.891  0.0097  0.0367 -0.4820
 5173TIP3    H136934   1.641   0.902   1.825  0.1250 -0.6834 -1.2304
 5173TIP3    H236935   1.720   0.799   1.903  0.3092  1.3104  1.3448
 5174TIP3   OH236936   1.762   3.482   4.885  0.2574  0.0333  0.1520
 5174TIP3    H136937   1.778   3.391   4.913 -1.5387 -0.3442  0.0784
 5174TIP3    H236938   1.843   3.528   4.906  1.7039 -1.8304 -0.9298
 5175TIP3   OH236939   6.551   4.561  11.806  0.2138  0.3676 -0.2270
 5175TIP3    H136940   6.645   4.545  11.802  0.0554 -0.3236 -2.5690
 5175TIP3    H236941   6.524   4.523  11.889  2.1282  1.6051  1.0706
 5176TIP3   OH236942   3.144   5.652   3.513  0.5645 -0.1250 -0.3330
 5176TIP3    H136943   3.238   5.635   3.512  0.4528 -1.4555  2.3804
 5176TIP3    H236944   3.105   5.565   3.522 -0.7109  0.6002  1.8695
 5177TIP3   OH236945   1.890   0.450   0.552 -0.2059 -0.6279  0.4363
 5177TIP3    H136946   1.952   0.523   0.547  1.5914 -2.0359  1.0029
 5177TIP3    H236947   1.843   0.453   0.468 -0.6787  1.5553  0.7210
 5178TIP3   OH236948   3.117   0.903  10.997  0.1571 -0.1191  0.2952
 5178TIP3    H136949   3.129   0.880  10.905  0.7567  0.8836  0.1029
 5178TIP3    H236950   3.025   0.883  11.015 -0.7615  2.1859 -1.3108
 5179TIP3   OH236951   1.419   2.583  13.948 -0.3331 -0.4612 -0.4416
 5179TIP3    H136952   1.326   2.563  13.943 -0.3144 -0.5749 -0.3528
 5179TIP3    H236953   1.441   2.570  14.040 -0.5864  1.1747 -0.1219
 5180TIP3   OH236954   1.275   6.276   4.118  0.1935  0.1488  0.1010
 5180TIP3    H136955   1.316   6.230   4.044  0.5413  2.3207 -1.1370
 5180TIP3    H236956   1.264   6.208   4.185  0.3309 -1.7987 -1.7382
 5181TIP3   OH236957   1.228   5.119  14.701 -0.1774  0.2970 -0.3162
 5181TIP3    H136958   1.201   5.147  14.614  0.8248  1.4914 -0.2742
 5181TIP3    H236959   1.146   5.107  14.749 -0.7425  3.0880 -0.4040
 5182TIP3   OH236960   0.793   5.697   2.672  0.1645 -0.1285  0.2684
 5182TIP3    H136961   0.820   5.720   2.583 -1.6077 -2.4536 -0.9839
 5182TIP3    H236962   0.841   5.616   2.692 -1.5369 -1.1895  0.2359
 5183TIP3   OH236963   5.176   2.642   2.913  0.7224  0.5557 -0.1004
 5183TIP3    H136964   5.266   2.610   2.918 -0.1426 -1.9524  1.0702
 5183TIP3    H236965   5.123   2.573   2.955 -1.9381  1.1618 -2.1612
 5184TIP3   OH236966   5.642   1.574   5.312 -0.5100  0.5535  0.2891
 5184TIP3    H136967   5.568   1.623   5.276 -1.3981 -0.6650  0.3682
 5184TIP3    H236968   5.618   1.482   5.298  0.3378  0.1073  1.6101
 5185TIP3   OH236969   0.345   2.696   2.865  0.0173 -0.1013 -0.5892
 5185TIP3    H136970   0.356   2.727   2.955  0.6648 -0.0644 -0.6777
 5185TIP3    H236971   0.296   2.766   2.822  0.0192  0.0448 -0.3574
 5186TIP3   OH236972   2.715   1.840   1.606 -0.2461  0.2019  0.1037
 5186TIP3    H136973   2.796   1.789   1.605 -0.6806 -0.5566 -1.6629
 5186TIP3    H236974   2.667   1.807   1.681  0.4264 -0.4583  0.2611
 5187TIP3   OH236975   6.651   1.508   3.813 -0.1746 -0.4397  0.7747
 5187TIP3    H136976   6.734   1.461   3.808  0.8976  1.4510 -0.2504
 5187TIP3    H236977   6.618   1.489   3.901 -0.0639 -3.4120  0.2742
 5188TIP3   OH236978   1.115   1.011   6.776  0.1830  0.4751 -0.8910
 5188TIP3    H136979   1.172   1.065   6.831  2.1570 -0.7930 -1.5894
 5188TIP3    H236980   1.167   0.934   6.756 -2.5093 -1.7818  0.0743
 5189TIP3   OH236981   0.977   1.287  15.301  0.7458  0.1764  0.4248
 5189TIP3    H136982   1.041   1.295  15.230 -0.8492  1.7602 -0.9430
 5189TIP3    H236983   0.893   1.285  15.256 -0.2115 -1.9995  2.1603
 5190TIP3   OH236984   3.858   5.436   1.327 -0.2154 -0.1430  0.3034
 5190TIP3    H136985   3.777   5.391   1.303 -0.5436  1.2994 -1.4744
 5190TIP3    H236986   3.849   5.523   1.290  2.4045 -0.1178 -0.4747
 5191TIP3   OH236987   4.590   6.192   6.255 -0.0603  0.3236  0.2155
 5191TIP3    H136988   4.523   6.234   6.308  0.8113 -1.5780  3.0344
 5191TIP3    H236989   4.558   6.103   6.242 -0.1060  0.6186 -2.3596
 5192TIP3   OH236990   4.189   3.493  16.449 -0.4761  0.2008 -0.1370
 5192TIP3    H136991   4.191   3.495  16.353 -1.6030 -0.2793 -0.1950
 5192TIP3    H236992   4.117   3.432  16.470  0.4916 -0.5906  1.0186
 5193TIP3   OH236993   2.123   6.125   3.248 -0.3331 -0.0485  0.0655
 5193TIP3    H136994   2.107   6.036   3.216  0.8239 -0.7217  1.3174
 5193TIP3    H236995   2.086   6.181   3.179 -1.2319 -1.4738 -0.6678
 5194TIP3   OH236996   1.983   1.180  11.179 -0.3457  0.4709 -0.2543
 5194TIP3    H136997   2.001   1.090  11.150  0.0234  0.7854 -1.0412
 5194TIP3    H236998   1.935   1.219  11.106  0.5106  1.2508 -0.4226
 5195TIP3   OH236999   5.374   2.575  14.841 -0.3281  0.0075  0.3001
 5195TIP3    H137000   5.288   2.601  14.806  0.0824  1.2490  0.1902
 5195TIP3    H237001   5.401   2.648  14.896  0.2706 -0.7643  1.0457
 5196TIP3   OH237002   5.558   5.857  10.985 -0.5187 -0.5363  0.1314
 5196TIP3    H137003   5.617   5.799  10.937 -0.3117 -0.5102  0.3550
 5196TIP3    H237004   5.569   5.942  10.943  0.8471 -0.1412  1.2306
 5197TIP3   OH237005   5.658   1.309   2.469  0.1872 -0.0702 -0.3731
 5197TIP3    H137006   5.678   1.334   2.379 -1.3789  1.0919 -0.4396
 5197TIP3    H237007   5.564   1.291   2.468  0.4364 -1.5782  0.7095
 5198TIP3   OH237008   5.996   5.020  13.702  0.3221  0.2858  0.5886
 5198TIP3    H137009   6.003   5.115  13.712  1.2147  0.4394 -1.1691
 5198TIP3    H237010   5.905   5.006  13.674  0.6612  0.8418 -0.9083
 5199TIP3   OH237011   4.082   6.139   4.996  0.2278  0.1483 -0.4470
 5199TIP3    H137012   4.022   6.207   5.028  0.9809 -0.2077  1.8983
 5199TIP3    H237013   4.167   6.182   4.991  0.0408  0.3721 -2.7895
 5200TIP3   OH237014   4.637   0.286   2.240 -0.2548  0.2256 -0.5610
 5200TIP3    H137015   4.660   0.229   2.314  2.2622 -0.7455 -1.9557
 5200TIP3    H237016   4.549   0.317   2.260 -0.6201 -1.9188  1.6560
 5201TIP3   OH237017   3.913   0.526  11.096 -0.3398  0.3834 -0.1074
 5201TIP3    H137018   3.980   0.593  11.086  0.8329 -0.6526  0.5023
 5201TIP3    H237019   3.860   0.533  11.017 -0.1812  1.9363 -0.1003
 5202TIP3   OH237020   4.515   3.929  15.035 -0.5625  0.0191  0.0164
 5202TIP3    H137021   4.600   3.942  14.992 -0.8011  1.4112 -0.0685
 5202TIP3    H237022   4.467   3.873  14.975  0.1744 -0.5173 -0.0920
 5203TIP3   OH237023   6.527   2.898   0.842 -0.5815  0.0950  0.1540
 5203TIP3    H137024   6.514   2.987   0.877 -2.3638 -0.4731  1.1054
 5203TIP3    H237025   6.508   2.906   0.749  2.9442  1.3822 -0.5821
 5204TIP3   OH237026   1.032   2.780   5.835  0.6012  0.2131  0.1528
 5204TIP3    H137027   1.079   2.822   5.907  0.1911  1.1793 -0.1215
 5204TIP3    H237028   1.100   2.739   5.782  0.9375 -0.1753  0.8745
 5205TIP3   OH237029   0.922   5.601   6.876  0.1137  0.0131 -0.0604
 5205TIP3    H137030   0.852   5.616   6.812 -2.4669 -1.3694  2.1823
 5205TIP3    H237031   0.923   5.681   6.929 -1.4903 -0.7817  1.2847
 5206TIP3   OH237032   4.814   0.237   4.997 -0.4655  0.1590  0.1096
 5206TIP3    H137033   4.833   0.331   4.994 -0.0662  0.2494  2.7280
 5206TIP3    H237034   4.900   0.195   4.988 -0.5831  0.0625 -0.5704
 5207TIP3   OH237035   4.864   3.041   4.947 -0.0598 -0.3780 -0.0117
 5207TIP3    H137036   4.821   2.955   4.956 -0.5806 -0.1738 -0.5450
 5207TIP3    H237037   4.801   3.103   4.984 -1.7489  0.3512 -3.6767
 5208TIP3   OH237038   6.669   5.467   0.645 -0.0295 -0.3555  0.0551
 5208TIP3    H137039   6.740   5.409   0.619 -0.7633 -0.5343 -1.6863
 5208TIP3    H237040   6.709   5.554   0.647  0.1561 -0.3842 -1.4096
 5209TIP3   OH237041   2.682   0.919  10.898 -0.2457 -0.3478  0.1908
 5209TIP3    H137042   2.731   0.990  10.858  0.1731  0.1434  1.5174
 5209TIP3    H237043   2.608   0.904  10.840  0.0604  0.6806 -0.4752
 5210TIP3   OH237044   6.466   2.218  13.275 -0.2516 -0.7173 -0.2983
 5210TIP3    H137045   6.441   2.251  13.189 -2.4492  2.0531  1.2114
 5210TIP3    H237046   6.406   2.145  13.292 -1.1102 -0.0650 -0.4321
 5211TIP3   OH237047   3.080   1.654   3.767  0.5494  0.0976 -0.0052
 5211TIP3    H137048   3.151   1.607   3.811  0.0271  0.0069  0.7631
 5211TIP3    H237049   3.054   1.722   3.830 -1.3529 -1.1017  0.5932
 5212TIP3   OH237050   6.304   2.588   5.109  0.4204 -0.3329 -1.0896
 5212TIP3    H137051   6.335   2.679   5.117 -0.8244  0.0641 -0.5930
 5212TIP3    H237052   6.324   2.564   5.019  0.5017  0.5402 -1.3158
 5213TIP3   OH237053   3.470   1.563  12.311 -0.0152 -0.5191 -0.7956
 5213TIP3    H137054   3.427   1.638  12.352  0.1147 -1.1983  0.6476
 5213TIP3    H237055   3.451   1.572  12.218 -0.3107  1.0967 -0.6015
 5214TIP3   OH237056   6.239   3.402  16.388 -0.0766  0.1080  0.4878
 5214TIP3    H137057   6.269   3.480  16.433  0.1212  0.9762 -1.0698
 5214TIP3    H237058   6.167   3.433  16.333 -0.8085 -1.0557  0.7569
 5215TIP3   OH237059   2.813   3.993  15.604 -0.1354  0.2491  0.0023
 5215TIP3    H137060   2.856   3.911  15.625  1.5638  1.3232  0.9756
 5215TIP3    H237061   2.872   4.035  15.541 -0.9794  0.7321 -0.4852
 5216TIP3   OH237062   6.682   4.299   1.430  0.0618 -0.0320 -0.3725
 5216TIP3    H137063   6.771   4.298   1.466  1.1074 -0.9573 -2.7725
 5216TIP3    H237064   6.690   4.352   1.350 -1.8169  0.7502 -0.0825
 5217TIP3   OH237065   4.079   4.476  12.648  0.7939  0.1095 -0.1283
 5217TIP3    H137066   4.052   4.484  12.557  0.3079  1.8763  0.1317
 5217TIP3    H237067   4.023   4.407  12.684 -0.5249  0.8832 -0.6390
 5218TIP3   OH237068   3.832   4.986  15.399  0.2469 -0.1288 -0.3653
 5218TIP3    H137069   3.779   4.908  15.388  0.4948 -0.4438  0.5781
 5218TIP3    H237070   3.918   4.953  15.426  0.8054  0.3956 -1.4088
 5219TIP3   OH237071   1.085   0.776  11.575  0.2735  0.3971  0.2838
 5219TIP3    H137072   0.999   0.814  11.598 -0.3270 -1.8193  2.0948
 5219TIP3    H237073   1.101   0.806  11.486 -2.4407  0.8545 -0.1547
 5220TIP3   OH237074   0.466   3.960  16.086  0.0143 -0.7314 -0.1276
 5220TIP3    H137075   0.384   4.006  16.069  0.2797 -0.4184 -0.5781
 5220TIP3    H237076   0.459   3.878  16.037  1.2261  0.6379 -2.7415
 5221TIP3   OH237077   3.769   4.876   4.265  0.3146  0.1102  0.0213
 5221TIP3    H137078   3.806   4.951   4.312 -0.9265  0.7417  0.0271
 5221TIP3    H237079   3.751   4.811   4.334  0.1845  0.3237  0.1909
 5222TIP3   OH237080   5.858   1.333   0.693  0.3011 -0.4067 -0.5477
 5222TIP3    H137081   5.887   1.334   0.784  0.8306  1.3702 -0.6912
 5222TIP3    H237082   5.936   1.311   0.643  0.7285  1.3300 -0.7199
 5223TIP3   OH237083   4.560   2.224   2.153  0.2714  0.3051  0.0799
 5223TIP3    H137084   4.566   2.296   2.091 -1.3120 -0.0488 -0.5141
 5223TIP3    H237085   4.484   2.245   2.208 -0.2397 -0.9139 -0.1294
 5224TIP3   OH237086   1.926   2.097   1.719 -0.9351  0.4550 -0.3074
 5224TIP3    H137087   1.960   2.059   1.639  0.3442 -0.9813  0.8546
 5224TIP3    H237088   1.844   2.139   1.693 -0.8385 -0.4528 -2.2451
 5225TIP3   OH237089   0.849   6.469   1.001  0.4457  0.5087 -0.5706
 5225TIP3    H137090   0.887   6.476   0.914  1.6356 -1.4630 -0.2879
 5225TIP3    H237091   0.919   6.497   1.060 -0.7676  3.0583 -0.2329
 5226TIP3   OH237092   4.542   2.338   1.393 -0.0005  0.3264  0.2996
 5226TIP3    H137093   4.577   2.377   1.313 -1.2831  1.2839  0.1648
 5226TIP3    H237094   4.598   2.263   1.410  0.4603  0.2623 -1.3430
 5227TIP3   OH237095   1.980   3.316  16.918  0.3479  0.7770 -0.3292
 5227TIP3    H137096   1.931   3.382  16.870 -0.4948  0.7022  0.4009
 5227TIP3    H237097   1.997   3.247  16.854 -0.5589  0.7785 -0.5778
 5228TIP3   OH237098   3.069   3.743  16.656  0.2750 -0.8475 -0.0617
 5228TIP3    H137099   3.113   3.681  16.713  2.5570  0.5783 -0.1725
 5228TIP3    H237100   3.044   3.692  16.579 -0.2321 -2.1432  0.9364
 5229TIP3   OH237101   4.107   1.051  15.192  0.3929  0.2317  0.4788
 5229TIP3    H137102   4.128   1.143  15.176  2.8928 -0.3257  0.1394
 5229TIP3    H237103   4.094   1.015  15.104 -0.1318  0.1569  0.5860
 5230TIP3   OH237104   0.243   6.467   5.407  0.3889 -0.3520  0.1371
 5230TIP3    H137105   0.184   6.397   5.379  1.8342 -1.3626 -0.5178
 5230TIP3    H237106   0.190   6.521   5.465 -0.8249 -1.9079  0.5570
 5231TIP3   OH237107   0.934   4.158   3.198  0.5501 -0.6633  0.3439
 5231TIP3    H137108   0.950   4.064   3.195 -0.4011 -0.8082 -1.1085
 5231TIP3    H237109   0.943   4.188   3.108  1.4311  0.7650  0.8590
 5232TIP3   OH237110   4.646   3.767   3.103 -0.1377  0.4705 -0.0645
 5232TIP3    H137111   4.647   3.677   3.137 -0.7819 -0.1936 -1.7133
 5232TIP3    H237112   4.734   3.781   3.068 -0.1166  0.3876 -0.0449
 5233TIP3   OH237113   3.415   3.082  11.346  0.7492  0.0338 -0.4756
 5233TIP3    H137114   3.407   3.013  11.412  0.0963  0.1120 -0.4655
 5233TIP3    H237115   3.428   3.036  11.264 -1.3423 -0.2085 -0.7374
 5234TIP3   OH237116   5.492   1.924  14.269 -0.2077 -0.4816  0.4500
 5234TIP3    H137117   5.538   1.870  14.333 -0.6409 -0.4160  0.8227
 5234TIP3    H237118   5.399   1.909  14.287 -0.3545 -1.2308 -0.8219
 5235TIP3   OH237119   4.389   1.929  13.203 -0.1339 -0.1259 -0.5687
 5235TIP3    H137120   4.294   1.922  13.214 -0.1975  0.4216 -0.7572
 5235TIP3    H237121   4.418   1.977  13.281 -0.1420  0.6033 -1.0095
 5236TIP3   OH237122   2.562   6.705  10.361 -0.2641 -0.3291  0.0724
 5236TIP3    H137123   2.636   6.745  10.315 -1.1182  0.3397 -0.7743
 5236TIP3    H237124   2.562   6.745  10.448 -0.1236  0.3024 -0.2111
 5237TIP3   OH237125   5.533   5.257   0.373  0.2775 -0.2581 -0.2329
 5237TIP3    H137126   5.444   5.258   0.409  0.0558 -0.4513 -0.7646
 5237TIP3    H237127   5.586   5.305   0.437  0.1757 -1.7813  1.0549
 5238TIP3   OH237128   4.374   3.994  12.355  0.1426  0.1981  0.3400
 5238TIP3    H137129   4.414   3.925  12.408  0.5813  0.8976  0.9383
 5238TIP3    H237130   4.444   4.058  12.342  0.2878 -0.3293 -1.7879
 5239TIP3   OH237131   4.981   4.636  16.343  0.1556  0.0352  0.8140
 5239TIP3    H137132   4.979   4.596  16.256  0.0117 -0.8135  1.1954
 5239TIP3    H237133   4.894   4.676  16.353  0.6406  1.3535  0.0341
 5240TIP3   OH237134   1.389   3.409  15.836  0.6065  0.2569  0.4186
 5240TIP3    H137135   1.371   3.469  15.763 -0.4551  0.5896  0.9231
 5240TIP3    H237136   1.481   3.387  15.827  0.0618 -1.3880 -2.2806
 5241TIP3   OH237137   4.685   2.313  16.181 -0.5184  0.2993 -0.3188
 5241TIP3    H137138   4.678   2.218  16.167 -0.3898  0.0187  1.2874
 5241TIP3    H237139   4.765   2.337  16.135  0.1471 -0.6275  0.3020
 5242TIP3   OH237140   6.226   2.502  16.389 -0.4978  0.2030 -0.5130
 5242TIP3    H137141   6.302   2.555  16.364 -1.0142  1.1855 -0.0492
 5242TIP3    H237142   6.263   2.429  16.438  0.0352  1.8815  1.7553
 5243TIP3   OH237143   4.416   1.007   1.179  0.1502  0.1396 -0.3859
 5243TIP3    H137144   4.437   1.037   1.090  0.2596  0.3634 -0.2869
 5243TIP3    H237145   4.493   0.956   1.206  0.1915  0.2186 -0.3543
 5244TIP3   OH237146   1.962   5.308   5.026  0.5648  0.4084 -1.2429
 5244TIP3    H137147   1.971   5.350   4.941  0.9129  0.8652 -0.9851
 5244TIP3    H237148   1.958   5.380   5.089  0.9612  0.0724 -0.8135
 5245TIP3   OH237149   3.262   3.625  17.244 -0.1377  0.0481 -0.5212
 5245TIP3    H137150   3.174   3.617  17.282  0.2649  0.5841  0.5690
 5245TIP3    H237151   3.307   3.545  17.271 -1.0391 -1.6072 -3.3549
 5246TIP3   OH237152   2.968   1.348  17.061 -1.2749  0.4146  0.0418
 5246TIP3    H137153   2.942   1.429  17.017 -0.5316 -0.8919 -3.0500
 5246TIP3    H237154   2.925   1.279  17.012  1.5486 -1.3149 -0.2441
 5247TIP3   OH237155   1.277   0.244  11.874  0.5849 -0.1476 -0.2388
 5247TIP3    H137156   1.241   0.161  11.843  0.6844 -0.0418 -0.6553
 5247TIP3    H237157   1.323   0.279  11.797 -1.9118  1.6937 -1.0359
 5248TIP3   OH237158   5.072   3.021   1.706 -0.7512  0.3155  0.1182
 5248TIP3    H137159   5.161   3.051   1.688 -1.6938  2.4997 -1.4143
 5248TIP3    H237160   5.017   3.097   1.685 -3.0444 -1.2561  0.0994
 5249TIP3   OH237161   5.958   4.434   3.965  0.0175  0.0268  0.1608
 5249TIP3    H137162   6.014   4.373   3.917 -0.8715 -1.4367  0.9193
 5249TIP3    H237163   5.943   4.506   3.903  3.9105  1.3011  0.4380
 5250TIP3   OH237164   2.468   4.273   3.084 -0.3578  1.1420  0.5947
 5250TIP3    H137165   2.466   4.182   3.115 -1.1537  1.2061  0.7508
 5250TIP3    H237166   2.543   4.311   3.130  0.0381  0.5451  0.4627
 5251TIP3   OH237167   3.921   5.303   4.620 -0.0629  0.1517 -0.6642
 5251TIP3    H137168   3.892   5.300   4.529 -2.2505  1.4123 -0.0953
 5251TIP3    H237169   3.846   5.272   4.670  1.0280 -0.3336  0.7566
 5252TIP3   OH237170   1.999   2.780  15.256  0.1662 -0.4193 -0.1228
 5252TIP3    H137171   1.959   2.825  15.330  1.8484 -0.3659  0.8100
 5252TIP3    H237172   2.025   2.850  15.197  0.6815 -0.3089  0.2275
 5253TIP3   OH237173   5.039   5.131  14.460  0.2079 -0.6770 -0.2733
 5253TIP3    H137174   5.074   5.068  14.397  0.3468 -0.2878 -0.5896
 5253TIP3    H237175   4.969   5.084  14.504  0.2466 -1.0229 -0.5732
 5254TIP3   OH237176   2.346   0.073   4.193  0.6276 -0.1438  0.0436
 5254TIP3    H137177   2.258   0.036   4.205  0.6743 -0.1971  0.2332
 5254TIP3    H237178   2.399   0.030   4.260  0.8069 -0.1398 -0.0971
 5255TIP3   OH237179   0.220   5.742   2.840  0.0943 -0.6200  0.1838
 5255TIP3    H137180   0.175   5.658   2.851 -0.4406 -0.4006 -0.3245
 5255TIP3    H237181   0.293   5.722   2.780 -0.1606 -0.6802 -0.1098
 5256TIP3   OH237182   3.212   2.128  11.258  0.1948 -0.0358 -0.0612
 5256TIP3    H137183   3.247   2.214  11.233 -0.4293  0.1578 -0.2887
 5256TIP3    H237184   3.120   2.131  11.232  0.6804 -1.6321 -2.2664
 5257TIP3   OH237185   2.346   6.348   4.481  0.0208  0.0403  0.3251
 5257TIP3    H137186   2.441   6.343   4.483  0.0961  1.2385  0.2681
 5257TIP3    H237187   2.325   6.392   4.399 -0.5972 -0.3866  0.2432
 5258TIP3   OH237188   2.292   1.162   5.220  0.5652 -0.8495 -0.6566
 5258TIP3    H137189   2.209   1.207   5.208  0.8861 -0.3248 -0.9785
 5258TIP3    H237190   2.293   1.095   5.151  0.6131 -0.5363 -0.9663
 5259TIP3   OH237191   6.472   2.852  15.448  0.4877 -0.3679 -0.0039
 5259TIP3    H137192   6.450   2.764  15.477 -0.0852 -0.7722 -1.5704
 5259TIP3    H237193   6.552   2.841  15.395 -0.5785 -0.2808 -1.7234
 5260TIP3   OH237194   5.011   0.344  14.006 -0.1255  0.3951  0.4302
 5260TIP3    H137195   4.955   0.318  14.079 -1.6463 -0.6053 -1.0105
 5260TIP3    H237196   5.067   0.413  14.041 -2.6323  1.8261  1.8302
 5261TIP3   OH237197   1.232   5.775   5.552  0.0459  0.0656 -0.0059
 5261TIP3    H137198   1.179   5.817   5.484 -2.2507 -1.5576  0.6686
 5261TIP3    H237199   1.219   5.830   5.630 -1.6323 -0.9348  0.4522
 5262TIP3   OH237200   1.323   1.012   2.128  0.0602  0.0849 -0.2838
 5262TIP3    H137201   1.384   0.941   2.146 -0.2729 -0.3521 -0.8409
 5262TIP3    H237202   1.239   0.981   2.162 -0.6416 -0.8691 -2.6921
 5263TIP3   OH237203   3.764   5.788  15.352 -0.2748 -0.1691 -0.1039
 5263TIP3    H137204   3.723   5.822  15.431  0.2722  0.9039 -0.2490
 5263TIP3    H237205   3.762   5.862  15.290  0.7819 -0.4504 -0.5096
 5264TIP3   OH237206   3.486   0.209   6.309 -0.1017 -0.0991 -0.0399
 5264TIP3    H137207   3.533   0.148   6.252  1.2409  0.3750  0.5210
 5264TIP3    H237208   3.394   0.191   6.292  0.2635 -0.2264 -2.0518
 5265TIP3   OH237209   1.483   5.205  14.375 -0.2651  0.0282 -0.1025
 5265TIP3    H137210   1.425   5.274  14.407 -1.4494 -0.8497 -0.2851
 5265TIP3    H237211   1.561   5.251  14.345  0.1660  1.0279  2.3828
 5266TIP3   OH237212   2.089   4.658  16.866 -0.1674 -0.3141  0.1071
 5266TIP3    H137213   2.151   4.629  16.933  1.8568 -0.8637 -1.9087
 5266TIP3    H237214   2.046   4.578  16.837  0.5528 -0.3987 -0.7558
 5267TIP3   OH237215   0.499   5.108  14.588 -0.1384 -0.3371  0.5984
 5267TIP3    H137216   0.535   5.195  14.574  0.8736 -0.5721  1.6525
 5267TIP3    H237217   0.496   5.098  14.683 -1.0077 -1.1473  0.4986
 5268TIP3   OH237218   4.135   6.204   4.124  0.3234 -0.0169 -0.4042
 5268TIP3    H137219   4.202   6.270   4.108 -0.6037  0.8853 -0.6159
 5268TIP3    H237220   4.092   6.233   4.205  0.3018 -0.6913 -0.1668
 5269TIP3   OH237221   5.429   2.436  10.816 -0.1267  0.1808 -0.1228
 5269TIP3    H137222   5.442   2.520  10.772 -0.3799  0.1286 -0.2997
 5269TIP3    H237223   5.512   2.420  10.862 -0.3978  0.9800  0.6887
 5270TIP3   OH237224   4.383   5.290  12.816 -0.4220  0.3334  0.0535
 5270TIP3    H137225   4.374   5.380  12.785 -0.3347 -0.0184 -1.0549
 5270TIP3    H237226   4.335   5.287  12.898 -0.2839  1.4329  0.1827
 5271TIP3   OH237227   0.501   1.465   5.435  0.4912 -0.6005  0.1789
 5271TIP3    H137228   0.506   1.560   5.449 -0.8600 -0.3928 -0.6025
 5271TIP3    H237229   0.544   1.428   5.512 -2.2136  0.5894  2.4896
 5272TIP3   OH237230   2.296   1.923  15.068 -0.3965  0.0806  0.0832
 5272TIP3    H137231   2.300   2.016  15.087  0.3999  0.3437 -1.2200
 5272TIP3    H237232   2.205   1.906  15.043 -0.8497  0.2226  1.5501
 5273TIP3   OH237233   0.605   1.775   4.814 -0.3388 -0.5703 -0.2714
 5273TIP3    H137234   0.610   1.835   4.889 -1.0724  1.3060 -1.6565
 5273TIP3    H237235   0.512   1.755   4.807 -0.3610 -0.2274 -1.0376
 5274TIP3   OH237236   5.339   3.621   1.245 -0.5224  0.4865  0.0646
 5274TIP3    H137237   5.433   3.603   1.254 -0.6659  0.1264  1.0008
 5274TIP3    H237238   5.327   3.641   1.152  0.5482  0.9367  0.0065
 5275TIP3   OH237239   2.474   1.583   0.583 -0.2955  0.6988 -0.6779
 5275TIP3    H137240   2.501   1.492   0.571  2.2236  1.4893 -1.5909
 5275TIP3    H237241   2.469   1.618   0.494 -2.5972  1.1720 -0.4373
 5276TIP3   OH237242   6.524   4.013  15.412 -0.4098  0.0057 -0.0978
 5276TIP3    H137243   6.531   3.918  15.417  1.3658  0.0518 -1.0375
 5276TIP3    H237244   6.601   4.045  15.459 -0.2780  0.9413 -0.9288
 5277TIP3   OH237245   6.370   4.447   4.238  0.0432  0.3537  0.5132
 5277TIP3    H137246   6.376   4.359   4.201  0.9895  0.5177  0.2538
 5277TIP3    H237247   6.277   4.469   4.233 -0.0293 -0.1416 -0.5688
 5278TIP3   OH237248   4.160   5.698  16.328  0.3901  0.1375  0.1302
 5278TIP3    H137249   4.142   5.754  16.252 -0.4881 -0.4284 -0.0911
 5278TIP3    H237250   4.074   5.681  16.366  0.6977 -0.6646  0.4770
 5279TIP3   OH237251   3.135   2.225  10.268  0.4577  0.6913 -0.1886
 5279TIP3    H137252   3.055   2.233  10.321 -1.1383 -2.4708 -1.8303
 5279TIP3    H237253   3.204   2.209  10.332 -1.1536 -1.5621  1.1442
 5280TIP3   OH237254   1.118   2.531  14.757 -0.4187  0.1816 -0.1705
 5280TIP3    H137255   1.092   2.439  14.760 -0.4615  0.2087  0.8379
 5280TIP3    H237256   1.190   2.538  14.820  1.0957  0.4092 -1.8294
 5281TIP3   OH237257   6.394   5.226   2.013  0.5078  0.4139 -0.4414
 5281TIP3    H137258   6.306   5.188   2.014  0.9140 -0.5822 -1.0688
 5281TIP3    H237259   6.387   5.304   2.068 -0.1637 -0.9795  1.5358
 5282TIP3   OH237260   5.782   3.508   3.153 -0.0567 -0.4884  0.6079
 5282TIP3    H137261   5.876   3.524   3.147  0.3525 -2.6023  0.7063
 5282TIP3    H237262   5.754   3.563   3.226  0.7572  1.3934 -0.4087
 5283TIP3   OH237263   4.376   3.193  16.206 -0.2209 -0.6417  0.1103
 5283TIP3    H137264   4.312   3.189  16.277 -0.5813 -1.6548 -0.2612
 5283TIP3    H237265   4.448   3.245  16.242 -0.8398 -0.2829  0.8608
 5284TIP3   OH237266   5.940   5.948   0.266  0.0670 -0.1804  0.2965
 5284TIP3    H137267   5.909   5.873   0.318  1.4014  0.8831  2.8430
 5284TIP3    H237268   5.872   6.015   0.278  0.6800  0.2902  1.3140
 5285TIP3   OH237269   3.999   1.316   4.459  0.1164  0.1559 -0.6994
 5285TIP3    H137270   3.909   1.288   4.441 -0.4329  0.0320  1.9028
 5285TIP3    H237271   4.017   1.284   4.547  1.9596  1.9756 -0.3399
 5286TIP3   OH237272   0.102   6.543  14.677 -0.4098 -0.0224  0.3304
 5286TIP3    H137273   0.156   6.520  14.601 -1.8781 -0.8760 -0.4933
 5286TIP3    H237274   0.123   6.476  14.742 -1.3815 -1.1272 -0.4567
 5287TIP3   OH237275   3.686   0.475  13.428 -0.1425 -0.2315 -0.3467
 5287TIP3    H137276   3.746   0.540  13.392 -0.7798 -0.2500 -1.4939
 5287TIP3    H237277   3.735   0.393  13.426  0.1255 -0.0713 -0.3506
 5288TIP3   OH237278   2.360   6.666   3.148 -0.1559 -0.1037 -0.3100
 5288TIP3    H137279   2.316   6.694   3.229 -2.1948  0.0945 -1.4056
 5288TIP3    H237280   2.419   6.739   3.127 -0.9130  0.6498  0.0839
 5289TIP3   OH237281   2.902   3.524   2.524  0.1578 -0.5014  0.1339
 5289TIP3    H137282   2.893   3.461   2.595 -0.9748 -1.0364 -0.4605
 5289TIP3    H237283   2.812   3.544   2.498  0.5406 -1.4706 -2.1426
 5290TIP3   OH237284   6.626   1.204  16.441 -0.0924  0.6368  0.4520
 5290TIP3    H137285   6.684   1.132  16.466 -0.7034  0.7385  2.3171
 5290TIP3    H237286   6.642   1.216  16.347  0.2499 -1.7398  0.1274
 5291TIP3   OH237287   3.691   6.732  14.303  0.2681  0.2803 -0.1702
 5291TIP3    H137288   3.750   6.785  14.356  1.0189 -0.5907 -0.1118
 5291TIP3    H237289   3.740   6.716  14.222  0.1813 -0.5891 -0.0541
 5292TIP3   OH237290   0.633   4.325  11.940  0.2504  0.1341  0.0111
 5292TIP3    H137291   0.567   4.351  11.876  0.5441  1.1790  0.1201
 5292TIP3    H237292   0.686   4.259  11.895 -0.2494  0.0240 -0.4176
 5293TIP3   OH237293   3.350   4.195  16.440 -0.2363  0.0047 -0.3121
 5293TIP3    H137294   3.285   4.207  16.370 -0.5086 -0.0882 -0.0752
 5293TIP3    H237295   3.307   4.227  16.519  0.3851  0.9033 -0.3323
 5294TIP3   OH237296   1.375   6.033   6.124  0.0906 -0.2845  0.1926
 5294TIP3    H137297   1.374   6.107   6.064  1.5958  3.3676  4.1105
 5294TIP3    H237298   1.290   6.034   6.167  0.3097 -0.4214  0.6496
 5295TIP3   OH237299   1.944   1.583   5.869  0.1529 -0.0358 -0.1919
 5295TIP3    H137300   1.878   1.651   5.877  0.0336 -0.0947 -0.6772
 5295TIP3    H237301   2.017   1.614   5.924  0.0240  0.3868 -0.2570
 5296TIP3   OH237302   2.606   2.022  14.672 -0.7672 -0.0922 -0.1231
 5296TIP3    H137303   2.559   2.069  14.741 -1.5359  0.1229 -0.7807
 5296TIP3    H237304   2.672   2.084  14.642 -1.1319  0.2160 -0.3060
 5297TIP3   OH237305   1.642   4.045   2.840 -0.8661 -0.1025  0.3933
 5297TIP3    H137306   1.672   4.049   2.931  0.5859  0.1823 -0.0764
 5297TIP3    H237307   1.711   4.089   2.790 -1.0950 -1.2521 -0.9863
 5298TIP3   OH237308   4.156   2.666   3.385 -0.0933 -0.3188  0.0162
 5298TIP3    H137309   4.108   2.749   3.377 -0.4230 -0.0236  3.4574
 5298TIP3    H237310   4.096   2.601   3.349 -0.6736  0.6981 -0.9313
 5299TIP3   OH237311   5.389   3.265  13.693 -0.0637 -0.0929  0.1079
 5299TIP3    H137312   5.340   3.206  13.636 -0.0583 -0.2407  0.2550
 5299TIP3    H237313   5.438   3.322  13.633 -2.7676  2.1342 -0.1713
 5300TIP3   OH237314   2.016   6.086  17.001  0.2313  1.0020  0.4574
 5300TIP3    H137315   1.951   6.075  16.932 -1.5552  2.1465  1.8666
 5300TIP3    H237316   1.978   6.041  17.077  1.9393  0.1477  0.8669
 5301TIP3   OH237317   0.926   2.100   3.919 -0.6001  0.3130 -0.3405
 5301TIP3    H137318   0.888   2.121   3.834  0.1842  0.9090 -0.5607
 5301TIP3    H237319   1.002   2.159   3.927  1.1551 -1.8074 -0.5548
 5302TIP3   OH237320   6.002   1.007   1.575 -0.1591  0.0013 -0.5541
 5302TIP3    H137321   5.966   1.026   1.661  0.0819  1.4308 -0.7499
 5302TIP3    H237322   5.934   0.955   1.532 -1.5119  1.6117 -0.4837
 5303TIP3   OH237323   1.349   1.990   4.459 -0.5509 -0.3633  0.0393
 5303TIP3    H137324   1.400   2.013   4.537 -0.4154  2.5501 -0.7723
 5303TIP3    H237325   1.411   1.943   4.403  1.0904  2.2011 -0.4777
 5304TIP3   OH237326   5.267   3.525   5.575  0.2228  0.1309 -0.5565
 5304TIP3    H137327   5.334   3.586   5.542  1.6232 -1.6498 -1.1794
 5304TIP3    H237328   5.270   3.535   5.670  0.1727  1.2795 -0.6658
 5305TIP3   OH237329   4.963   3.138  15.876  0.6412  0.2456 -0.3437
 5305TIP3    H137330   5.024   3.151  15.949 -1.3760 -0.6245  1.6165
 5305TIP3    H237331   4.979   3.048  15.848 -1.0309 -0.7204  1.5598
 5306TIP3   OH237332   6.637   5.233   4.312 -0.5599  0.1207 -0.3804
 5306TIP3    H137333   6.674   5.294   4.248  0.1032  0.2609  0.1279
 5306TIP3    H237334   6.695   5.158   4.310 -0.2712  0.3182  0.3822
 5307TIP3   OH237335   1.279   6.009  13.821 -0.2782  0.2553  0.6289
 5307TIP3    H137336   1.364   6.039  13.852 -0.8746  2.0073  0.6706
 5307TIP3    H237337   1.216   6.043  13.885 -1.0193 -1.1887  0.7221
 5308TIP3   OH237338   0.048   5.783  15.516  0.1371 -0.7896 -0.2718
 5308TIP3    H137339   0.134   5.784  15.558  1.2657  1.2982 -2.3553
 5308TIP3    H237340   0.046   5.702  15.466  0.0922 -1.7332  1.2050
 5309TIP3   OH237341   4.006   0.639  15.275  0.4118  0.2177  0.3140
 5309TIP3    H137342   3.965   0.601  15.353  0.9930  1.1848  1.1173
 5309TIP3    H237343   3.960   0.598  15.201 -1.5998  0.8375  1.1583
 5310TIP3   OH237344   0.689   2.208  14.667  0.0393 -0.4071  0.9589
 5310TIP3    H137345   0.645   2.124  14.682  0.8906 -1.0009  0.3052
 5310TIP3    H237346   0.666   2.232  14.578  0.9523 -0.6990  0.6263
 5311TIP3   OH237347   1.118   0.861  16.866 -0.1943  0.0048 -0.2515
 5311TIP3    H137348   1.080   0.808  16.796  0.6735  1.2936 -1.7664
 5311TIP3    H237349   1.209   0.875  16.839  0.1599  0.5832  1.1283
 5312TIP3   OH237350   5.004   0.360   0.720  0.5740 -0.3691 -0.2677
 5312TIP3    H137351   5.032   0.451   0.722 -2.3952  0.6180  1.1674
 5312TIP3    H237352   5.011   0.334   0.628  2.0356  1.0768 -0.5989
 5313TIP3   OH237353   5.965   0.195   2.736  0.4424  0.1056  0.3381
 5313TIP3    H137354   5.955   0.126   2.670  1.0217  0.3813 -0.0447
 5313TIP3    H237355   5.993   0.271   2.686  0.0979  0.5432  0.8025
 5314TIP3   OH237356   4.084   0.212  15.607 -0.8669 -0.0997 -0.0057
 5314TIP3    H137357   4.023   0.202  15.680 -1.1427  0.7012 -0.1080
 5314TIP3    H237358   4.143   0.138  15.615 -1.0289 -0.1487  0.9049
 5315TIP3   OH237359   6.315   3.462  13.462  0.5895 -0.5715 -0.2084
 5315TIP3    H137360   6.365   3.539  13.487 -0.0868 -0.3877  0.6247
 5315TIP3    H237361   6.339   3.446  13.371 -0.1081  1.3197 -0.7829
 5316TIP3   OH237362   4.380   3.402  13.547 -0.2446 -0.3416  0.1747
 5316TIP3    H137363   4.427   3.359  13.618 -1.4700 -0.7789  0.7438
 5316TIP3    H237364   4.336   3.331  13.501  0.7609 -0.0988 -1.2219
 5317TIP3   OH237365   6.150   3.184  16.223 -0.2407 -0.0690 -0.8878
 5317TIP3    H137366   6.188   3.105  16.184 -2.5240 -2.4942  1.3245
 5317TIP3    H237367   6.199   3.196  16.305 -1.5116 -0.8305  0.0295
 5318TIP3   OH237368   5.429   3.261  12.432 -0.4085 -0.2343 -0.2009
 5318TIP3    H137369   5.484   3.268  12.354  1.6442  2.4515  1.3033
 5318TIP3    H237370   5.438   3.170  12.459 -0.2507 -0.9366 -2.4269
 5319TIP3   OH237371   4.758   3.422  11.628  0.2044  0.0015 -0.1027
 5319TIP3    H137372   4.794   3.464  11.706  0.1536 -0.7114  0.3091
 5319TIP3    H237373   4.792   3.474  11.555 -1.1580  1.7610  0.4470
 5320TIP3   OH237374   2.779   3.529   5.392  0.0088 -0.4475  0.0427
 5320TIP3    H137375   2.702   3.528   5.449 -0.3445 -0.1560 -0.4247
 5320TIP3    H237376   2.761   3.463   5.326 -1.1745  1.5896 -1.7838
 5321TIP3   OH237377   5.672   4.912  15.203 -0.1117 -0.1540 -0.0519
 5321TIP3    H137378   5.745   4.875  15.253 -1.0864  0.1675  1.6601
 5321TIP3    H237379   5.669   5.004  15.230 -0.3594  0.1675 -1.1069
 5322TIP3   OH237380   2.077   2.486  16.626  0.4049 -0.2067 -0.1734
 5322TIP3    H137381   2.126   2.561  16.658  1.4014 -0.1321 -1.7830
 5322TIP3    H237382   2.020   2.522  16.557 -3.0389 -0.0240  2.5045
 5323TIP3   OH237383   6.117   1.998  16.159  0.0103 -0.2028 -0.5211
 5323TIP3    H137384   6.079   1.929  16.214  0.2927 -0.9221 -1.2015
 5323TIP3    H237385   6.170   1.950  16.095  1.0398  0.7070 -0.3728
 5324TIP3   OH237386   6.781   1.053   3.389  0.4645 -0.3291  0.4625
 5324TIP3    H137387   6.719   0.982   3.374  0.2266  0.0025 -0.1747
 5324TIP3    H237388   6.748   1.125   3.335  0.7402  0.2453  1.0455
 5325TIP3   OH237389   5.524   4.263  13.773 -0.0343  0.4106  0.4585
 5325TIP3    H137390   5.586   4.331  13.749 -0.2493  0.5036  0.1606
 5325TIP3    H237391   5.450   4.310  13.812  0.4562  0.2418  1.6597
 5326TIP3   OH237392   6.378   5.974  14.155  0.5392  0.3299 -0.2934
 5326TIP3    H137393   6.309   5.990  14.219  1.7569 -1.2784  1.5571
 5326TIP3    H237394   6.428   6.055  14.153 -0.8238  1.1848 -0.9607
 5327TIP3   OH237395   2.743   1.364   4.535 -0.1504  0.1318  0.0736
 5327TIP3    H137396   2.787   1.321   4.609 -1.3505  0.4170  0.9972
 5327TIP3    H237397   2.654   1.328   4.536  0.0234 -0.4098 -1.7210
 5328TIP3   OH237398   2.189   2.255   3.828 -0.6015  0.1101  0.1463
 5328TIP3    H137399   2.270   2.205   3.828 -1.0395 -0.6134  0.3015
 5328TIP3    H237400   2.207   2.331   3.773  0.3220  0.1943  0.5566
 5329TIP3   OH237401   0.465   2.751   1.645  0.1722  0.9244  0.4658
 5329TIP3    H137402   0.424   2.837   1.630 -0.5086  0.7403  1.1838
 5329TIP3    H237403   0.515   2.734   1.565 -2.3133  0.5229 -1.1494
 5330TIP3   OH237404   1.684   5.065  12.252  0.2705  0.6074 -0.4448
 5330TIP3    H137405   1.754   5.128  12.235  0.5954 -0.0774 -1.6942
 5330TIP3    H237406   1.706   4.989  12.199  0.7420 -1.2462  2.2318
 5331TIP3   OH237407   3.335   1.245  12.137 -0.0878 -0.0591 -0.2098
 5331TIP3    H137408   3.351   1.160  12.179  0.7310 -0.2614 -0.9010
 5331TIP3    H237409   3.421   1.277  12.113 -0.3185  1.3447  0.7080
 5332TIP3   OH237410   4.068   5.056  16.188 -0.0265  0.1137  0.3614
 5332TIP3    H137411   4.005   5.126  16.204 -0.8470 -0.7357  0.9531
 5332TIP3    H237412   4.094   5.067  16.096 -2.0409 -0.3053 -0.3064
 5333TIP3   OH237413   3.299   5.883  11.546 -0.2221  0.5932  0.2800
 5333TIP3    H137414   3.304   5.908  11.454 -1.5420  2.2786  0.6309
 5333TIP3    H237415   3.390   5.881  11.576  0.2612 -0.4446 -1.1407
 5334TIP3   OH237416   5.525   4.253   1.152 -0.2638  0.0852 -0.0234
 5334TIP3    H137417   5.461   4.234   1.220 -2.3165  1.1340 -1.5553
 5334TIP3    H237418   5.569   4.169   1.136 -2.4882 -1.1429 -0.1095
 5335TIP3   OH237419   3.111   2.511   3.055 -0.0061  0.1435  0.1867
 5335TIP3    H137420   3.020   2.508   3.024  0.5572 -2.5105 -1.5485
 5335TIP3    H237421   3.107   2.558   3.138 -2.2904  3.9969 -1.7774
 5336TIP3   OH237422   5.299   2.701   1.161  0.0383  0.4276  0.1482
 5336TIP3    H137423   5.315   2.782   1.113 -0.8546  0.7025  0.2906
 5336TIP3    H237424   5.348   2.712   1.243  4.3996 -1.4378 -1.9103
 5337TIP3   OH237425   3.526   3.588  12.310 -0.4339 -0.2601 -0.1520
 5337TIP3    H137426   3.469   3.539  12.369  2.8208 -2.8998  1.1394
 5337TIP3    H237427   3.545   3.670  12.356 -1.8287 -0.0689  0.1197
 5338TIP3   OH237428   4.171   1.991   3.928  0.2063  0.1407 -0.4230
 5338TIP3    H137429   4.198   1.989   4.020 -0.2774  2.1647 -0.1983
 5338TIP3    H237430   4.215   1.915   3.889  4.1032  1.6783  0.4839
 5339TIP3   OH237431   2.808   6.241  11.572  0.0659 -0.0445 -1.1336
 5339TIP3    H137432   2.763   6.317  11.536 -0.3041 -0.5436 -1.7225
 5339TIP3    H237433   2.859   6.277  11.646 -1.0016  0.5798 -0.6802
 5340TIP3   OH237434   2.452   6.753  14.090  0.6925 -0.4720  0.6180
 5340TIP3    H137435   2.525   6.748  14.152 -0.0662  1.3333  1.7558
 5340TIP3    H237436   2.376   6.725  14.140  0.1742  0.3546  0.3182
 5341TIP3   OH237437   6.161   4.076  15.933  0.0924 -0.5138  0.0985
 5341TIP3    H137438   6.073   4.058  15.965  0.0632  2.2588  1.9447
 5341TIP3    H237439   6.217   4.058  16.008  0.8827 -0.4741 -0.4720
 5342TIP3   OH237440   1.638   2.219   3.727  0.1329 -0.3100  0.5462
 5342TIP3    H137441   1.555   2.246   3.765  0.9434  1.4521  1.1712
 5342TIP3    H237442   1.696   2.205   3.802  0.9614  0.4737  0.0824
 5343TIP3   OH237443   3.403   6.320   5.791  0.0060  0.0546  0.0854
 5343TIP3    H137444   3.311   6.333   5.768  0.3107  1.1883 -0.5554
 5343TIP3    H237445   3.401   6.247   5.854 -1.2876 -0.1460 -0.1442
 5344TIP3   OH237446   4.062   0.732  10.688  0.0368 -0.5802 -0.2265
 5344TIP3    H137447   4.104   0.817  10.700 -0.2163 -0.2120 -1.7721
 5344TIP3    H237448   4.075   0.687  10.772 -0.4583  1.2339  0.8890
 5345TIP3   OH237449   3.955   2.895  10.943  0.6711  0.8079  0.0304
 5345TIP3    H137450   4.034   2.947  10.959 -0.2150  1.3040  3.5297
 5345TIP3    H237451   3.886   2.960  10.932  0.4326  0.3502 -1.3662
 5346TIP3   OH237452   0.507   2.826  13.682  0.1564 -0.1821  0.1167
 5346TIP3    H137453   0.456   2.783  13.613 -1.1481 -0.6279  1.3050
 5346TIP3    H237454   0.562   2.756  13.718 -0.5670 -0.4127  0.7864
 5347TIP3   OH237455   6.180   3.034   1.017  0.1252  0.4210 -0.6163
 5347TIP3    H137456   6.096   3.078   1.023  0.5614  1.8642 -3.3525
 5347TIP3    H237457   6.175   2.981   0.938  1.5045 -0.1290 -0.3774
 5348TIP3   OH237458   2.292   1.560   2.071  0.4409  0.2256 -0.5239
 5348TIP3    H137459   2.239   1.535   1.995  1.9249 -0.7172 -1.3063
 5348TIP3    H237460   2.281   1.488   2.133  1.8156 -0.6613 -1.2538
 5349TIP3   OH237461   1.167   6.032  15.460 -0.6162 -0.2821 -0.0629
 5349TIP3    H137462   1.083   5.997  15.488 -0.9421  0.9349  0.5618
 5349TIP3    H237463   1.167   6.123  15.490  0.5622  0.0033 -0.8189
 5350TIP3   OH237464   5.943   3.250  12.665  0.5525  0.3028  0.0702
 5350TIP3    H137465   5.850   3.252  12.646  0.6605 -0.3069 -0.5619
 5350TIP3    H237466   5.952   3.294  12.750 -0.4526 -0.6888  0.7150
 5351TIP3   OH237467   6.073   0.093  14.167 -0.1248  0.7229 -0.1688
 5351TIP3    H137468   6.031   0.027  14.111  1.3229  1.1554 -1.8646
 5351TIP3    H237469   6.066   0.058  14.255  0.9072 -1.9385 -1.0390
 5352TIP3   OH237470   0.865   1.965  11.987  0.0936 -0.4656 -0.0577
 5352TIP3    H137471   0.846   1.920  11.905 -0.4275 -0.0176 -0.1886
 5352TIP3    H237472   0.939   1.917  12.025 -1.8054 -2.8427  0.9081
 5353TIP3   OH237473   5.913   1.640   5.263  0.0654 -0.0697  0.1909
 5353TIP3    H137474   5.893   1.729   5.234 -1.1304 -0.5555 -0.6126
 5353TIP3    H237475   5.853   1.624   5.336 -0.9995 -0.7754 -0.7871
 5354TIP3   OH237476   4.993   3.037  14.428 -0.3053  0.1490  0.2911
 5354TIP3    H137477   5.040   3.046  14.511  0.6756 -0.4789 -0.1783
 5354TIP3    H237478   4.951   2.951  14.433  1.6583 -0.9290 -0.7653
 5355TIP3   OH237479   4.828   5.167  15.862 -0.2328  0.1612 -0.1368
 5355TIP3    H137480   4.854   5.161  15.770  2.4058  0.3770  0.5189
 5355TIP3    H237481   4.797   5.080  15.884  1.3629 -0.5819 -0.6683
 5356TIP3   OH237482   2.050   0.364  12.816 -0.3716  0.4540  0.5593
 5356TIP3    H137483   2.075   0.404  12.900  3.1066 -0.1070 -0.0341
 5356TIP3    H237484   2.088   0.276  12.820  1.8985  1.1441 -2.3473
 5357TIP3   OH237485   6.601   2.652  10.904 -0.6628 -0.1189 -0.4468
 5357TIP3    H137486   6.696   2.661  10.911 -0.4725 -2.0642  0.0918
 5357TIP3    H237487   6.576   2.604  10.983 -2.0494  0.0199 -0.7739
 5358TIP3   OH237488   2.816   6.133   1.466  0.1932 -0.5590  0.3917
 5358TIP3    H137489   2.902   6.145   1.426  0.9389 -1.0567  1.7965
 5358TIP3    H237490   2.817   6.043   1.499 -0.1774  0.0041  2.0070
 5359TIP3   OH237491   5.018   3.170  15.577 -0.2536  0.5277 -0.5663
 5359TIP3    H137492   4.943   3.112  15.560  0.2578 -0.7305  1.1677
 5359TIP3    H237493   4.979   3.250  15.613 -0.8363  0.3162 -0.7125
 5360TIP3   OH237494   1.276   4.977   1.809  1.2749  0.3263 -0.4172
 5360TIP3    H137495   1.223   5.011   1.736  0.3080 -0.6381 -0.1925
 5360TIP3    H237496   1.219   4.988   1.885  2.0726  0.8287  0.1114
 5361TIP3   OH237497   1.131   1.317  15.075 -0.0383  0.0903 -0.1560
 5361TIP3    H137498   1.213   1.364  15.080 -0.7742  1.2944  1.1048
 5361TIP3    H237499   1.096   1.338  14.988  0.5171  0.3506 -0.3178
 5362TIP3   OH237500   2.043   1.522  11.075  0.3738  0.2944  0.1875
 5362TIP3    H137501   1.960   1.486  11.042  2.3318 -2.4695 -2.2371
 5362TIP3    H237502   2.051   1.487  11.164 -0.0185 -1.3408 -0.3977
 5363TIP3   OH237503   4.653   3.109  14.587  0.2240 -0.1022 -0.5093
 5363TIP3    H137504   4.704   3.030  14.571  1.5215  0.4330  0.8312
 5363TIP3    H237505   4.716   3.172  14.622 -0.7958  1.5082 -1.4497
 5364TIP3   OH237506   4.998   0.620   0.389 -0.0533 -0.0160 -0.0169
 5364TIP3    H137507   5.076   0.664   0.422 -0.4361 -0.0140  0.9306
 5364TIP3    H237508   4.976   0.666   0.308  1.3321 -0.4881 -0.6917
 5365TIP3   OH237509   1.184   5.457   3.822  0.1639 -0.3692  0.2651
 5365TIP3    H137510   1.157   5.533   3.873 -3.0081 -0.5670 -0.8683
 5365TIP3    H237511   1.256   5.488   3.768 -0.2257  1.4902  0.7474
 5366TIP3   OH237512   6.769   3.834  11.684 -0.2886 -0.2688  0.0305
 5366TIP3    H137513   6.724   3.897  11.741  1.1459  1.2766 -0.4783
 5366TIP3    H237514   6.737   3.749  11.713 -1.7726  0.6383  1.2072
 5367TIP3   OH237515   4.789   0.079   0.705 -0.3208  0.1772 -0.1343
 5367TIP3    H137516   4.796   0.169   0.737  3.1879  0.0798 -0.2460
 5367TIP3    H237517   4.877   0.044   0.714 -1.2403 -2.7921 -1.5474
 5368TIP3   OH237518   4.061   2.293  11.888  0.1182  0.8386 -0.1908
 5368TIP3    H137519   4.003   2.245  11.828  1.7799 -2.1123  0.4190
 5368TIP3    H237520   4.149   2.278  11.853  1.0930 -0.5218  2.5839
 5369TIP3   OH237521   2.018   4.736   0.709 -0.2252 -0.2064  0.3751
 5369TIP3    H137522   2.056   4.751   0.796  0.4435 -0.6009  0.1553
 5369TIP3    H237523   2.085   4.688   0.661 -0.6111 -0.0412 -0.3487
 5370TIP3   OH237524   4.913   5.787   3.198 -0.0580  0.2633  0.1790
 5370TIP3    H137525   4.839   5.745   3.155  0.9976 -0.5009 -0.9568
 5370TIP3    H237526   4.937   5.727   3.269 -0.0115  0.1044  0.0293
 5371TIP3   OH237527   1.000   6.126  14.138  0.0748 -0.3980 -0.5023
 5371TIP3    H137528   1.066   6.178  14.093 -0.9076  0.4358 -1.0229
 5371TIP3    H237529   0.950   6.085  14.068 -0.0179 -0.9647 -0.1118
 5372TIP3   OH237530   3.836   0.174  14.353  0.0813  0.3368 -0.6614
 5372TIP3    H137531   3.900   0.143  14.289  0.6716  0.8798 -0.3388
 5372TIP3    H237532   3.794   0.249  14.310 -0.3364 -0.0067 -0.8654
 5373TIP3   OH237533   5.630   1.273  15.703  0.0739 -0.3251  0.6381
 5373TIP3    H137534   5.549   1.304  15.744 -0.0550  1.4125 -0.8573
 5373TIP3    H237535   5.614   1.279  15.609  1.9029 -0.0261  0.3052
 5374TIP3   OH237536   4.445   5.129  10.873  0.4577  0.1368 -0.1249
 5374TIP3    H137537   4.467   5.222  10.871 -0.0891  0.2627 -1.5583
 5374TIP3    H237538   4.418   5.109  10.783 -1.9494 -0.7715  0.7195
 5375TIP3   OH237539   1.081   1.158  15.540  0.0814 -0.3482  0.4424
 5375TIP3    H137540   1.044   1.197  15.460 -0.3861 -1.4248  0.1197
 5375TIP3    H237541   1.007   1.153  15.601  0.7101  1.6793  1.4525
 5376TIP3   OH237542   2.135   1.597  13.709 -0.7456 -0.2890 -0.2235
 5376TIP3    H137543   2.057   1.545  13.729 -0.2808 -1.5794 -1.6169
 5376TIP3    H237544   2.208   1.540  13.730 -0.2198 -0.1501 -1.5556
 5377TIP3   OH237545   2.603   6.652   5.188  0.3700 -0.6544 -0.3606
 5377TIP3    H137546   2.618   6.667   5.281  0.1648  0.8108 -0.5465
 5377TIP3    H237547   2.688   6.669   5.147  0.1498 -0.0296 -0.5696
 5378TIP3   OH237548   1.179   4.213  15.304  0.0754  0.3096 -0.0852
 5378TIP3    H137549   1.165   4.163  15.224 -0.8274 -2.1179  1.4728
 5378TIP3    H237550   1.272   4.201  15.324 -0.4548 -2.3689  1.1744
 5379TIP3   OH237551   0.248   6.712   2.406  0.5654 -0.1821  0.2041
 5379TIP3    H137552   0.319   6.663   2.364 -0.5585 -1.4121 -0.3391
 5379TIP3    H237553   0.290   6.792   2.437  2.4341 -1.3462  0.8918
 5380TIP3   OH237554   3.801   3.603  15.545 -0.5061 -0.2064  0.1062
 5380TIP3    H137555   3.793   3.509  15.562 -0.3563 -0.1813  0.3221
 5380TIP3    H237556   3.893   3.623  15.563 -0.8443  0.2434  1.4004
 5381TIP3   OH237557   1.240   1.265   5.469  0.2176 -0.2436  0.2983
 5381TIP3    H137558   1.306   1.245   5.536  1.3274 -1.5109 -1.0833
 5381TIP3    H237559   1.157   1.266   5.517  1.0441 -0.4043  1.8070
 5382TIP3   OH237560   5.851   5.133  12.814  0.0518 -0.5498 -0.1413
 5382TIP3    H137561   5.772   5.167  12.773  0.6616 -0.4617 -1.2718
 5382TIP3    H237562   5.898   5.088  12.744  1.7894  0.7808  0.0894
 5383TIP3   OH237563   6.748   4.589  15.045  0.4263  0.6814  0.3247
 5383TIP3    H137564   6.730   4.504  15.083  0.3101  0.9047  0.7766
 5383TIP3    H237565   6.795   4.570  14.964  1.7039  0.2259  1.1438
 5384TIP3   OH237566   1.169   6.784  14.305 -0.0069  0.1762  0.1804
 5384TIP3    H137567   1.242   6.827  14.262 -0.1370  1.2518  0.9956
 5384TIP3    H237568   1.107   6.854  14.324 -0.6962 -0.5240  0.6125
 5385TIP3   OH237569   2.674   3.763  16.428  0.1819 -0.2200 -0.2780
 5385TIP3    H137570   2.717   3.845  16.453 -0.6624  0.1968 -0.1586
 5385TIP3    H237571   2.660   3.717  16.512 -3.7508  1.7161  0.3556
 5386TIP3   OH237572   5.737   0.497   2.832 -0.4973  0.9641 -0.5381
 5386TIP3    H137573   5.783   0.499   2.748  1.1634 -1.3061  0.2436
 5386TIP3    H237574   5.801   0.529   2.895 -1.1919  1.1243  0.0996
 5387TIP3   OH237575   5.266   4.048   1.500  0.4338  0.1033 -0.1750
 5387TIP3    H137576   5.303   4.077   1.583  2.5702 -0.8467 -0.7347
 5387TIP3    H237577   5.183   4.008   1.524  1.4734 -1.0827  1.6769
 5388TIP3   OH237578   2.575   2.236  13.438  0.0836 -0.4161 -0.3441
 5388TIP3    H137579   2.568   2.321  13.394 -1.7281 -0.5203 -0.3142
 5388TIP3    H237580   2.627   2.182  13.378  0.1743  0.3240 -0.9505
 5389TIP3   OH237581   5.571   2.437  13.239  0.2054  0.4579  0.3320
 5389TIP3    H137582   5.573   2.416  13.332 -0.7331  2.2562  0.8188
 5389TIP3    H237583   5.662   2.440  13.212  0.4579 -0.9740  0.9510
 5390TIP3   OH237584   1.811   3.242  15.366 -0.2295 -0.1199  0.0291
 5390TIP3    H137585   1.752   3.173  15.337  1.0326 -0.6893 -1.3070
 5390TIP3    H237586   1.755   3.303  15.414 -1.6310 -1.3305  0.0083
 5391TIP3   OH237587   5.712   1.296  14.115  0.6442  0.0222 -0.3847
 5391TIP3    H137588   5.756   1.268  14.196  2.1512 -0.7670 -1.4151
 5391TIP3    H237589   5.783   1.330  14.061  0.1350 -1.8949 -2.3801
 5392TIP3   OH237590   0.342   2.833   1.894 -0.4534 -0.1141  0.0676
 5392TIP3    H137591   0.247   2.843   1.896 -0.3638  1.1062 -0.6406
 5392TIP3    H237592   0.359   2.793   1.808 -0.3939 -1.4437  0.6736
 5393TIP3   OH237593   0.797   5.850   4.368  0.2755  0.3624  0.2583
 5393TIP3    H137594   0.751   5.918   4.319 -0.6296 -1.5177 -1.6298
 5393TIP3    H237595   0.728   5.796   4.406  0.8715 -1.2490 -0.8275
 5394TIP3   OH237596   1.200   6.459   6.971 -0.1698 -0.2270  0.2052
 5394TIP3    H137597   1.287   6.498   6.964  0.1040 -0.7808  0.4305
 5394TIP3    H237598   1.143   6.518   6.923  0.2549  0.3805  0.4302
 5395TIP3   OH237599   0.753   0.670   4.865  0.3020  0.6538 -0.0169
 5395TIP3    H137600   0.784   0.645   4.778 -1.7606 -0.2485 -0.5505
 5395TIP3    H237601   0.820   0.636   4.925  0.3767 -1.2413 -1.0995
 5396TIP3   OH237602   5.963   3.896   2.075 -0.0325  0.5076  0.6263
 5396TIP3    H137603   5.919   3.875   2.157  3.0458 -0.7877  2.0741
 5396TIP3    H237604   6.011   3.977   2.092  0.2770  0.4779 -0.0469
 5397TIP3   OH237605   4.929   6.582  14.300 -0.1368  0.0743 -0.0184
 5397TIP3    H137606   5.002   6.576  14.361 -1.0021  1.1550  1.1796
 5397TIP3    H237607   4.961   6.541  14.220  1.0192 -1.4260  1.1545
 5398TIP3   OH237608   6.054   3.591   0.048 -0.0475  0.0740 -0.2878
 5398TIP3    H137609   6.047   3.496   0.039 -1.3519  0.0446  0.7109
 5398TIP3    H237610   5.977   3.616   0.100  1.1511  1.4720  0.9040
 5399TIP3   OH237611   5.587   1.514  15.491  0.2784 -0.7735  0.0672
 5399TIP3    H137612   5.521   1.479  15.430  0.8944 -1.3396 -0.2852
 5399TIP3    H237613   5.665   1.461  15.475  1.0058  0.2552  0.0690
 5400TIP3   OH237614   0.367   5.540   4.000  0.6679  0.8870 -0.6145
 5400TIP3    H137615   0.347   5.461   4.051 -1.3791  1.8054  0.1244
 5400TIP3    H237616   0.376   5.509   3.910 -0.4392 -0.1738 -0.3834
 5401TIP3   OH237617   2.410   3.055   0.493  0.2960  0.5733 -0.0532
 5401TIP3    H137618   2.434   3.063   0.401  1.5274  0.6197  0.2530
 5401TIP3    H237619   2.463   3.122   0.537  0.6107 -0.2429  0.8319
 5402TIP3   OH237620   4.027   4.193  11.837  0.3799 -0.2463 -0.3087
 5402TIP3    H137621   3.960   4.125  11.832  1.2570 -1.1940  0.4433
 5402TIP3    H237622   3.994   4.263  11.780 -0.1456 -1.6207 -1.7598
 5403TIP3   OH237623   3.430   6.734  13.513 -0.2223 -0.8670 -0.0812
 5403TIP3    H137624   3.375   6.810  13.491  0.8458  0.0048  0.1591
 5403TIP3    H237625   3.519   6.769  13.514  0.2678 -2.0833  0.2904
 5404TIP3   OH237626   2.614   3.528   4.269 -0.4687  0.3934 -0.4916
 5404TIP3    H137627   2.659   3.608   4.241  1.3473 -0.0603  0.8937
 5404TIP3    H237628   2.669   3.457   4.235 -0.1696 -0.1847  1.1198
 5405TIP3   OH237629   3.021   5.091   5.927 -0.1051 -0.4056  0.2294
 5405TIP3    H137630   3.102   5.139   5.944 -0.4601  0.6527 -0.9051
 5405TIP3    H237631   3.048   5.000   5.917  0.9151 -0.1009  0.0826
 5406TIP3   OH237632   0.035   0.526   2.392  0.0762  0.3870 -0.2455
 5406TIP3    H137633   0.012   0.618   2.408  0.1903  0.3243  0.3033
 5406TIP3    H237634  -0.045   0.487   2.359 -0.0008  0.6587 -0.3888
 5407TIP3   OH237635   6.606   2.764   5.624  0.4875  0.8876  0.5029
 5407TIP3    H137636   6.582   2.780   5.715  2.5359  1.1857  1.0444
 5407TIP3    H237637   6.665   2.689   5.627 -1.0594 -0.4607 -0.8600
 5408TIP3   OH237638   3.830   6.554  10.769 -0.0222  0.0447  0.5115
 5408TIP3    H137639   3.846   6.614  10.696  0.6878 -0.2217  0.4375
 5408TIP3    H237640   3.847   6.607  10.848  0.3330  0.0182  0.4537
 5409TIP3   OH237641   1.501   5.195  15.935  0.3030  0.4507  0.6799
 5409TIP3    H137642   1.564   5.267  15.933 -0.6481  1.3037  0.3184
 5409TIP3    H237643   1.481   5.177  15.843 -1.4475  1.5583  0.7951
 5410TIP3   OH237644   1.028   6.124   2.666  0.2462  0.4916  0.3244
 5410TIP3    H137645   1.078   6.122   2.747  1.0000 -0.2715 -0.1556
 5410TIP3    H237646   1.032   6.216   2.638  1.9875  0.3253 -0.0694
 5411TIP3   OH237647   5.769   6.031   6.253  0.2808 -0.2789  0.5704
 5411TIP3    H137648   5.697   5.986   6.297  0.4132  1.1207  2.3141
 5411TIP3    H237649   5.818   5.961   6.210 -1.7668 -1.3308 -0.2282
 5412TIP3   OH237650   4.634   1.622  13.578 -0.6142 -0.4928 -0.4751
 5412TIP3    H137651   4.710   1.564  13.583 -1.0243 -0.9700  0.8192
 5412TIP3    H237652   4.614   1.627  13.485 -0.2417 -2.0496 -0.6796
 5413TIP3   OH237653   0.828   3.857  15.815 -0.0210 -0.4261  0.0546
 5413TIP3    H137654   0.911   3.862  15.861  0.4304  2.1384 -0.8567
 5413TIP3    H237655   0.847   3.890  15.727 -1.7006 -1.2430 -0.6775
 5414TIP3   OH237656   6.788   2.651   4.020 -0.3131  0.6538  0.4574
 5414TIP3    H137657   6.747   2.737   4.012 -0.8101  0.6472  2.5235
 5414TIP3    H237658   6.731   2.593   3.969 -0.7188  1.3102  0.1482
 5415TIP3   OH237659   6.205   4.553  14.177  0.2009  0.9570  0.5343
 5415TIP3    H137660   6.162   4.476  14.213 -2.5560  2.3321  0.4343
 5415TIP3    H237661   6.133   4.608  14.145  2.2001  2.2442 -2.1574
 5416TIP3   OH237662   4.274   6.054  11.900 -0.2301 -0.2554 -0.7653
 5416TIP3    H137663   4.276   5.965  11.935 -1.2750  0.1490  0.3991
 5416TIP3    H237664   4.332   6.051  11.824  1.1312 -1.4850  0.2558
 5417TIP3   OH237665   2.648   3.498   1.515  0.1741  0.3408 -0.0456
 5417TIP3    H137666   2.726   3.553   1.510 -0.0019  0.5454 -0.6226
 5417TIP3    H237667   2.612   3.500   1.426  0.9884 -1.9160 -0.4744
 5418TIP3   OH237668   6.441   3.538  13.905  0.2548 -0.1608  0.1406
 5418TIP3    H137669   6.499   3.607  13.935  1.0077 -0.3069 -0.9383
 5418TIP3    H237670   6.363   3.548  13.959  1.3523 -0.1133  1.7825
 5419TIP3   OH237671   2.305   3.569   3.004 -0.0216  0.4469  0.1470
 5419TIP3    H137672   2.308   3.477   3.030 -2.4972  0.3400  0.2395
 5419TIP3    H237673   2.212   3.589   2.995  0.4442  2.9669  0.1672
 5420TIP3   OH237674   1.826   0.436   0.983  0.0725  0.2247  0.5444
 5420TIP3    H137675   1.801   0.448   1.074  0.1629 -0.6669  0.6890
 5420TIP3    H237676   1.921   0.424   0.985  0.1352  0.6438  0.2829
 5421TIP3   OH237677   0.699   2.900   3.772  0.4807  0.5886  0.1596
 5421TIP3    H137678   0.794   2.908   3.770  0.4081  1.6898 -1.8155
 5421TIP3    H237679   0.667   2.973   3.718 -1.4401 -0.1800  0.1525
 5422TIP3   OH237680   6.579   5.426   3.863 -0.1701  0.2518  0.1840
 5422TIP3    H137681   6.612   5.478   3.935  1.2070 -0.1856 -0.1007
 5422TIP3    H237682   6.598   5.335   3.888 -2.1277 -0.1172  0.4780
 5423TIP3   OH237683   1.266   2.070  11.632 -0.2116 -0.4934 -0.3721
 5423TIP3    H137684   1.239   2.003  11.695 -0.5101  0.7467  0.8663
 5423TIP3    H237685   1.337   2.117  11.676 -0.4282  0.4071 -0.9628
 5424TIP3   OH237686   1.143   4.052  11.007 -0.4191 -0.0257 -0.0904
 5424TIP3    H137687   1.210   4.088  10.949 -0.3383  0.9350  0.5716
 5424TIP3    H237688   1.192   4.009  11.077 -0.5152 -1.1879 -0.7247
 5425TIP3   OH237689   4.931   0.698   2.955 -0.1245 -0.3916  0.2957
 5425TIP3    H137690   4.999   0.720   2.891 -1.3623  1.4171 -0.4621
 5425TIP3    H237691   4.953   0.751   3.031  0.3133 -1.1784  0.7298
 5426TIP3   OH237692   1.835   1.079  15.590  0.3418  0.2809 -0.0186
 5426TIP3    H137693   1.742   1.061  15.604  0.0583  2.2237  1.0215
 5426TIP3    H237694   1.841   1.102  15.498  0.3081 -2.3763 -0.7647
 5427TIP3   OH237695   1.200   4.308   2.005 -0.3031 -0.1519  0.2690
 5427TIP3    H137696   1.109   4.334   1.991 -0.9295 -3.1318 -2.3881
 5427TIP3    H237697   1.242   4.319   1.919  1.3143 -0.6916  0.9410
 5428TIP3   OH237698   1.874   1.143   1.782  0.0319 -0.5919  0.4641
 5428TIP3    H137699   1.959   1.104   1.805 -0.0564 -0.2977  1.3271
 5428TIP3    H237700   1.896   1.222   1.734  0.2268 -1.1830 -0.4331
 5429TIP3   OH237701   4.381   6.230   6.015 -0.3883 -0.1794 -0.0868
 5429TIP3    H137702   4.391   6.281   6.095 -1.6236  1.8112 -1.0997
 5429TIP3    H237703   4.418   6.145   6.035 -0.9090  0.1657  2.6640
 5430TIP3   OH237704   0.130   2.391   1.115  0.1517 -0.1081 -0.1326
 5430TIP3    H137705   0.157   2.332   1.186  0.3046 -0.9733 -0.8843
 5430TIP3    H237706   0.120   2.333   1.039  1.2656  0.9729 -1.1488
 5431TIP3   OH237707   1.088   2.139   5.411 -0.0156  0.3241  0.4125
 5431TIP3    H137708   1.148   2.207   5.442 -1.4403  1.9088 -0.1899
 5431TIP3    H237709   1.021   2.186   5.361 -0.6474 -1.6022 -0.6753
 5432TIP3   OH237710   2.512   3.928  16.988 -0.0293  0.1908 -0.1257
 5432TIP3    H137711   2.550   3.922  16.900 -1.7213 -1.7420 -0.8078
 5432TIP3    H237712   2.497   3.837  17.014  1.2027  0.6758  2.5631
 5433TIP3   OH237713   3.643   1.770  14.168  0.1356  0.2833 -0.5144
 5433TIP3    H137714   3.631   1.691  14.115 -0.2589 -0.2119  0.2953
 5433TIP3    H237715   3.715   1.816  14.125  0.8199 -0.8383 -0.6400
 5434TIP3   OH237716   1.011   2.555   1.692 -0.1884 -0.2728  0.3709
 5434TIP3    H137717   1.063   2.474   1.691 -0.7441 -0.7087  2.0516
 5434TIP3    H237718   0.934   2.534   1.641  0.1348 -0.4697 -0.0414
 5435TIP3   OH237719   2.047   4.915  16.786  0.6662  0.4990 -0.1282
 5435TIP3    H137720   2.063   4.822  16.800  0.6554  0.5487  0.2126
 5435TIP3    H237721   2.043   4.953  16.874  1.0601  0.8875 -0.2719
 5436TIP3   OH237722   2.069   5.240  17.156  0.4511 -0.5081 -0.0674
 5436TIP3    H137723   2.033   5.194  17.232 -1.3083  0.5961 -0.1580
 5436TIP3    H237724   2.085   5.329  17.188  2.1566 -0.6882 -0.3421
 5437TIP3   OH237725   2.191   4.548   0.822 -0.2177  0.1660 -0.2631
 5437TIP3    H137726   2.193   4.540   0.918 -1.8933  0.8079 -0.1266
 5437TIP3    H237727   2.276   4.583   0.798  0.0630  0.4251  1.0512
 5438TIP3   OH237728   0.432   1.714  10.711  0.0025  0.4320  0.5111
 5438TIP3    H137729   0.374   1.706  10.635  0.6839 -0.9851  0.1047
 5438TIP3    H237730   0.396   1.650  10.774  0.0728  0.8390  0.9717
 5439TIP3   OH237731   0.018   1.624   4.571 -0.1780  0.2019  0.4753
 5439TIP3    H137732   0.113   1.633   4.566  0.0043 -1.6780 -0.1095
 5439TIP3    H237733  -0.004   1.653   4.660  1.2317 -1.4358  1.4008
 5440TIP3   OH237734   1.557   0.443   3.538  0.0593  0.3149  0.4371
 5440TIP3    H137735   1.581   0.535   3.545 -2.0299  1.0258 -0.7678
 5440TIP3    H237736   1.464   0.444   3.513  0.4392 -2.0563 -1.5468
 5441TIP3   OH237737   0.017   2.873   1.248  0.1606  0.2877 -0.4521
 5441TIP3    H137738  -0.024   2.787   1.240 -0.1212  0.5283 -2.0581
 5441TIP3    H237739  -0.001   2.901   1.338  1.4474 -1.9032  0.5409
 5442TIP3   OH237740   2.646   1.047   3.338 -0.4884 -0.4924  0.1088
 5442TIP3    H137741   2.687   1.119   3.386 -0.4924 -0.7162  0.4552
 5442TIP3    H237742   2.658   0.971   3.395 -2.3297 -0.3614  0.7519
 5443TIP3   OH237743   1.202   2.874  15.139 -0.3054  0.5277  0.6382
 5443TIP3    H137744   1.158   2.797  15.175 -0.8110  0.8263  0.6582
 5443TIP3    H237745   1.239   2.917  15.216 -1.8059  1.4339  0.8813
 5444TIP3   OH237746   0.904   1.209  13.036 -1.0521  0.5041  0.1774
 5444TIP3    H137747   0.952   1.166  13.107 -0.1007 -1.8906 -1.7859
 5444TIP3    H237748   0.813   1.183  13.050 -1.3420  2.2097  1.9231
 5445TIP3   OH237749   0.422   1.264  11.344  0.5816  0.3475  0.2002
 5445TIP3    H137750   0.377   1.298  11.267  0.5254  1.4771  0.7139
 5445TIP3    H237751   0.423   1.337  11.406 -1.0178 -1.0769  2.0266
 5446TIP3   OH237752   1.277   4.390   0.281 -0.0080 -0.3192 -0.4843
 5446TIP3    H137753   1.318   4.316   0.326 -0.2001  1.5187  3.0462
 5446TIP3    H237754   1.336   4.409   0.208  1.4169 -2.2960  0.0608
 5447TIP3   OH237755   0.676   1.341   0.961  0.5365  0.0279  0.1484
 5447TIP3    H137756   0.620   1.275   1.002  1.9006 -1.2089  0.1157
 5447TIP3    H237757   0.723   1.382   1.034 -1.0594  1.7615  0.2728
 5448TIP3   OH237758   3.222   0.218  16.654 -0.6275  0.0956 -0.2687
 5448TIP3    H137759   3.157   0.151  16.631  1.1642 -2.5841  1.8312
 5448TIP3    H237760   3.179   0.271  16.722 -1.8078  0.7140 -1.4396
 5449TIP3   OH237761   0.394   2.148  16.211 -0.9619 -0.3502  0.1608
 5449TIP3    H137762   0.442   2.153  16.294 -0.1168 -0.3136 -0.3239
 5449TIP3    H237763   0.400   2.056  16.186 -1.2638 -0.3710  0.1671
 5450TIP3   OH237764   3.721   2.892   0.936 -0.4143  0.1228 -0.7082
 5450TIP3    H137765   3.811   2.878   0.907  0.1294  0.5131  0.7019
 5450TIP3    H237766   3.672   2.910   0.856  0.4393 -1.5928 -1.6646
 5451TIP3   OH237767   4.066   2.889  16.267 -0.7868  0.8223  0.0870
 5451TIP3    H137768   4.021   2.863  16.187 -1.6260  0.7200  0.5796
 5451TIP3    H237769   4.030   2.833  16.335 -0.6026  1.3925  0.6682
 5452TIP3   OH237770   0.227   6.522  11.374 -0.0678 -0.0816  0.3655
 5452TIP3    H137771   0.205   6.434  11.342 -0.5213  0.4007 -0.6982
 5452TIP3    H237772   0.267   6.565  11.298  0.3606  0.5654  0.9452
 5453TIP3   OH237773   2.898   1.854  15.127  0.1825 -0.6854 -0.6816
 5453TIP3    H137774   2.978   1.847  15.179  0.2281 -0.0703 -0.6693
 5453TIP3    H237775   2.863   1.940  15.148 -2.0637 -2.0445  1.5853
 5454TIP3   OH237776   6.085   0.030  16.022  0.0096 -0.6562  0.0608
 5454TIP3    H137777   6.094   0.075  16.106 -1.7589 -0.9953  0.4687
 5454TIP3    H237778   6.107   0.096  15.957 -2.1675  0.7522  0.6643
 5455TIP3   OH237779   2.494   4.342  13.243 -0.2817 -0.0142  0.2273
 5455TIP3    H137780   2.573   4.395  13.234 -2.1616  2.9439 -0.1932
 5455TIP3    H237781   2.477   4.309  13.155  0.6207 -0.9945  0.3927
 5456TIP3   OH237782   5.681   3.963   3.847 -0.0948 -0.1282  0.0887
 5456TIP3    H137783   5.606   3.913   3.878 -0.0621  0.3272  0.9335
 5456TIP3    H237784   5.651   4.006   3.767 -0.0295 -1.7249 -0.8341
 5457TIP3   OH237785   0.202   3.917   5.466  0.3881  0.3089 -0.7391
 5457TIP3    H137786   0.184   3.874   5.383  3.8006  0.3721 -1.6653
 5457TIP3    H237787   0.163   4.004   5.457 -0.3527 -0.1159 -1.7752
 5458TIP3   OH237788   6.258   4.474   1.851  0.4867 -0.0814  0.1505
 5458TIP3    H137789   6.292   4.464   1.939 -1.5067  0.0703  0.9999
 5458TIP3    H237790   6.293   4.400   1.802  2.0530  0.1330  0.9042
 5459TIP3   OH237791   3.066   6.011   1.711  0.5226 -0.5390  0.2469
 5459TIP3    H137792   3.042   5.964   1.791 -3.3887 -1.8834 -1.4532
 5459TIP3    H237793   3.028   6.098   1.723 -2.8131 -1.6627 -1.1520
 5460TIP3   OH237794   2.908   4.076   0.713 -0.3059 -0.0985 -0.6630
 5460TIP3    H137795   2.851   4.152   0.725 -0.0380  0.3745 -2.1103
 5460TIP3    H237796   2.921   4.041   0.801  0.4463  2.1794  0.2060
 5461TIP3   OH237797   4.781   1.810   2.530 -0.4259 -0.1139  0.2997
 5461TIP3    H137798   4.762   1.718   2.548 -1.3930  0.0907  0.3522
 5461TIP3    H237799   4.763   1.856   2.612  3.0790 -0.2329  1.3157
 5462TIP3   OH237800   3.728   6.508   5.072  0.2203  0.1164 -0.3367
 5462TIP3    H137801   3.634   6.493   5.078  0.2453  0.2802  0.5779
 5462TIP3    H237802   3.766   6.453   5.140  0.6508  1.2035  0.3309
 5463TIP3   OH237803   4.256   5.092   2.970  0.2067 -0.2093  0.6991
 5463TIP3    H137804   4.193   5.028   3.003  0.5613 -1.7209 -1.3621
 5463TIP3    H237805   4.209   5.140   2.902  0.9392 -0.6263 -0.1195
 5464TIP3   OH237806   3.875   1.068  15.307 -0.7971  0.6961  0.8360
 5464TIP3    H137807   3.959   1.039  15.272 -1.2258 -0.2813  0.5874
 5464TIP3    H237808   3.889   1.160  15.331  0.3615  0.5203  0.8763
 5465TIP3   OH237809   6.003   3.877   4.463  0.3448  0.0961 -0.4611
 5465TIP3    H137810   6.052   3.819   4.522 -0.0355  0.6533  0.4178
 5465TIP3    H237811   5.947   3.929   4.521 -2.0840 -1.2244 -1.4548
 5466TIP3   OH237812   0.548   3.044  12.651 -0.4594  0.4754  0.1511
 5466TIP3    H137813   0.481   3.068  12.588 -1.2421  1.2874  1.2646
 5466TIP3    H237814   0.619   3.008  12.598 -1.9051 -0.7935 -1.0251
 5467TIP3   OH237815   6.691   5.016  16.206 -0.4818 -0.1552 -0.0092
 5467TIP3    H137816   6.660   5.104  16.183 -0.6543 -0.6476 -1.8175
 5467TIP3    H237817   6.614   4.961  16.197 -0.3135 -0.5518  0.8709
 5468TIP3   OH237818   1.759   2.064  14.779 -0.4111 -0.1973 -0.7589
 5468TIP3    H137819   1.836   2.095  14.827 -0.7608  0.9631 -0.9125
 5468TIP3    H237820   1.690   2.061  14.844 -0.6428  0.4078 -0.9715
 5469TIP3   OH237821   4.194   0.139  14.290 -0.2598 -0.2370  0.4708
 5469TIP3    H137822   4.289   0.143  14.295 -0.2565  1.2827 -0.2226
 5469TIP3    H237823   4.171   0.056  14.332  1.4684 -1.3702 -0.6916
 5470TIP3   OH237824   2.225   4.493  15.980 -0.3838  1.0873  0.4161
 5470TIP3    H137825   2.317   4.517  15.992  0.8327 -1.9435 -1.5755
 5470TIP3    H237826   2.202   4.442  16.057  1.5050 -2.7418 -1.2915
 5471TIP3   OH237827   1.575   0.098   3.265  0.4654  0.0570  0.1239
 5471TIP3    H137828   1.531   0.176   3.231 -0.2009 -0.7172 -0.8462
 5471TIP3    H237829   1.515   0.064   3.331  0.6837  0.2733  0.4359
 5472TIP3   OH237830   0.314   2.113   1.495 -0.1738  0.0850 -0.2590
 5472TIP3    H137831   0.407   2.096   1.510 -0.2105 -0.5125 -0.6766
 5472TIP3    H237832   0.281   2.033   1.454 -1.2371 -0.3744  1.3736
 5473TIP3   OH237833   5.272   0.582   0.319 -0.5880 -0.7936  0.6656
 5473TIP3    H137834   5.364   0.575   0.295 -0.6688  2.4013 -1.0935
 5473TIP3    H237835   5.227   0.523   0.258  0.0703 -0.2204 -0.3995
 5474TIP3   OH237836   2.712   3.900   0.610 -0.1100  0.0925  0.2394
 5474TIP3    H137837   2.632   3.949   0.627  1.2121  2.1795  0.8627
 5474TIP3    H237838   2.771   3.924   0.682  1.7469  0.1927 -1.2107
 5475TIP3   OH237839   0.996   6.482   1.482  0.3957  0.1811 -0.2075
 5475TIP3    H137840   1.038   6.521   1.405 -0.3419  1.3517 -0.0376
 5475TIP3    H237841   1.032   6.394   1.486  0.2126 -0.0150 -2.0773
 5476TIP3   OH237842   5.316   2.407  13.968  0.4613  0.5401 -0.0754
 5476TIP3    H137843   5.318   2.396  13.873  1.2329  0.1544 -0.0286
 5476TIP3    H237844   5.319   2.318  14.003 -2.2742  0.5360  0.3338
 5477TIP3   OH237845   0.736   2.770  10.932  0.2438 -0.0235 -0.0746
 5477TIP3    H137846   0.830   2.757  10.945 -0.1334 -0.3336  3.1107
 5477TIP3    H237847   0.717   2.724  10.850  2.6229 -1.1936 -0.0673
 5478TIP3   OH237848   3.750   4.814  13.741 -0.7424 -0.3422  0.5127
 5478TIP3    H137849   3.701   4.860  13.809  0.7186  1.7584  0.2352
 5478TIP3    H237850   3.835   4.795  13.780 -0.4325 -0.4895 -0.2190
 5479TIP3   OH237851   5.881   6.679  14.396 -0.2902  0.5777 -0.0283
 5479TIP3    H137852   5.954   6.640  14.348  0.3438  1.7895 -0.0652
 5479TIP3    H237853   5.815   6.609  14.399  0.3103 -0.0655 -1.2111
 5480TIP3   OH237854   2.469   0.791   0.887  0.0131 -0.1249 -0.1690
 5480TIP3    H137855   2.437   0.863   0.941  0.8643  0.5708 -0.5621
 5480TIP3    H237856   2.563   0.786   0.906 -0.1722 -1.6546  0.4337
 5481TIP3   OH237857   6.197   6.168  11.016  0.5497  0.3696  0.2178
 5481TIP3    H137858   6.186   6.253  10.973  0.7997  0.4246  0.2595
 5481TIP3    H237859   6.209   6.106  10.944 -3.0027 -0.2067 -0.0294
 5482TIP3   OH237860   0.043   1.397  13.111  0.0293  0.1975 -0.5248
 5482TIP3    H137861   0.122   1.372  13.064 -0.0852  0.8082 -1.0517
 5482TIP3    H237862   0.075   1.432  13.195  0.2026 -1.3912  0.1028
 5483TIP3   OH237863   5.765   0.619   1.142 -0.5677 -0.2942  0.0605
 5483TIP3    H137864   5.713   0.694   1.172 -0.1642  0.5651 -1.3091
 5483TIP3    H237865   5.840   0.658   1.098  0.0968 -1.5204  0.0846
 5484TIP3   OH237866   6.251   5.291   2.485  0.0128 -0.3797  0.6615
 5484TIP3    H137867   6.246   5.217   2.424  1.0652  0.4390 -0.4571
 5484TIP3    H237868   6.211   5.257   2.566  0.1153 -2.0381  0.0664
 5485TIP3   OH237869   2.875   6.585   1.197 -0.3049 -0.2125 -0.0544
 5485TIP3    H137870   2.795   6.602   1.146  0.8981 -0.2938 -2.0694
 5485TIP3    H237871   2.894   6.492   1.180 -0.1396 -0.3776  0.9821
 5486TIP3   OH237872   4.785   6.434  13.583  0.1405  0.1445 -0.1171
 5486TIP3    H137873   4.835   6.439  13.501 -0.1686  0.6515 -0.2786
 5486TIP3    H237874   4.776   6.525  13.611  0.9445 -0.0752  0.9172
 5487TIP3   OH237875   6.772   0.164  12.661  0.2805 -0.3799 -0.3782
 5487TIP3    H137876   6.725   0.162  12.745 -1.2897  1.0680 -1.1603
 5487TIP3    H237877   6.704   0.147  12.596  1.1117  0.4220 -1.4864
 5488TIP3   OH237878   0.626   0.810   0.291  0.1288  0.5065 -0.0642
 5488TIP3    H137879   0.711   0.832   0.253 -0.1483  0.9638 -0.4379
 5488TIP3    H237880   0.620   0.865   0.369 -0.1704  1.0938 -0.4925
 5489TIP3   OH237881   0.662   3.892  14.918  0.5687  0.7201 -0.4452
 5489TIP3    H137882   0.699   3.807  14.942 -0.0819  0.4831 -0.2397
 5489TIP3    H237883   0.621   3.923  14.999 -2.9774 -0.7717 -1.4778
 5490TIP3   OH237884   0.166   0.730  16.027 -0.0965  0.2185  0.1558
 5490TIP3    H137885   0.103   0.682  15.973  0.3890  1.8245 -1.9626
 5490TIP3    H237886   0.241   0.672  16.034  0.1043  0.2216 -1.5517
 5491TIP3   OH237887   3.902   3.061   4.012 -0.2783  0.0136 -0.0264
 5491TIP3    H137888   3.895   2.997   4.083  2.0082  0.3169  0.5494
 5491TIP3    H237889   3.914   3.145   4.057 -1.5153  0.6256 -0.7888
 5492TIP3   OH237890   0.407   3.484   0.727 -0.1287  0.2758  0.3183
 5492TIP3    H137891   0.320   3.523   0.738 -0.9568 -1.3464 -0.2722
 5492TIP3    H237892   0.411   3.415   0.793  0.4561 -0.0965 -0.1017
 5493TIP3   OH237893   4.979   4.148  17.136  0.1381 -0.5144  0.2997
 5493TIP3    H137894   4.952   4.184  17.220  0.2677  0.5066 -0.0814
 5493TIP3    H237895   4.917   4.184  17.073 -0.4644 -1.9266  0.0471
 5494TIP3   OH237896   1.071   2.818   4.334  0.0387 -0.0300  0.1282
 5494TIP3    H137897   1.061   2.786   4.245  0.2029 -1.2504  0.5257
 5494TIP3    H237898   1.142   2.764   4.371  0.1508  0.6341  0.9099
 5495TIP3   OH237899   1.106   6.735   1.943 -0.0367  0.0049 -0.1582
 5495TIP3    H137900   1.187   6.783   1.925  0.2620 -0.0977  0.8609
 5495TIP3    H237901   1.056   6.742   1.862  0.7226  0.6061 -0.5908
 5496TIP3   OH237902   5.571   3.971  13.369  0.2350  0.2596 -0.6561
 5496TIP3    H137903   5.561   3.925  13.452 -1.0880  1.4275 -0.1288
 5496TIP3    H237904   5.516   3.922  13.307 -0.4906  0.6125 -0.3033
 5497TIP3   OH237905   4.908   1.557  14.817  0.1721 -0.1377  0.0615
 5497TIP3    H137906   4.955   1.522  14.893 -0.1957  1.8183  1.2454
 5497TIP3    H237907   4.830   1.502  14.811 -0.1460  0.1038  1.5710
 5498TIP3   OH237908   3.725   1.804   2.196  0.2384 -0.0573 -0.2178
 5498TIP3    H137909   3.691   1.829   2.111 -2.4410  1.3854  1.1381
 5498TIP3    H237910   3.813   1.843   2.199  0.3108  0.0230 -2.1841
 5499TIP3   OH237911   5.080   5.880  12.624 -0.1372 -0.1731 -0.1173
 5499TIP3    H137912   5.117   5.938  12.690 -0.1234 -0.6241  0.2686
 5499TIP3    H237913   5.156   5.843  12.579 -0.1501  0.4746 -0.6885
 5500TIP3   OH237914   2.045   1.006  12.180  0.2890 -0.0766  0.7207
 5500TIP3    H137915   2.083   1.049  12.103 -0.0752 -1.6282 -0.3864
 5500TIP3    H237916   1.954   1.034  12.181  0.5488  0.8017  1.2593
 5501TIP3   OH237917   0.480   0.413  14.846  0.2575  0.1028 -0.4233
 5501TIP3    H137918   0.463   0.492  14.794 -0.9406  0.0028 -0.2206
 5501TIP3    H237919   0.534   0.443  14.919  1.1089  0.4353 -1.1777
 5502TIP3   OH237920   4.516   3.103  13.984 -0.2918 -0.1535  0.2239
 5502TIP3    H137921   4.520   3.186  14.031 -0.8014 -0.6284  1.1448
 5502TIP3    H237922   4.587   3.051  14.020  1.9076  0.8346 -2.3764
 5503TIP3   OH237923   1.765   1.779   5.876  0.0281 -0.1951  0.1485
 5503TIP3    H137924   1.687   1.764   5.823  0.1543 -0.5063  0.0535
 5503TIP3    H237925   1.790   1.869   5.856 -0.4744  0.0099  0.3980
 5504TIP3   OH237926   6.338   6.689  16.269 -0.2438  0.3317 -0.1956
 5504TIP3    H137927   6.423   6.645  16.270  0.3637  1.4603 -0.3591
 5504TIP3    H237928   6.287   6.640  16.205  0.4614 -0.0529 -0.4809
 5505TIP3   OH237929   1.417   1.167  14.291  0.3968 -0.3855  0.2382
 5505TIP3    H137930   1.480   1.190  14.359  1.8538  0.6322 -1.3752
 5505TIP3    H237931   1.336   1.149  14.339  1.3849  0.1582  2.2347
 5506TIP3   OH237932   4.250   3.834  16.402  0.7614  0.7227  0.2918
 5506TIP3    H137933   4.175   3.796  16.357  0.9120  0.6999  0.0558
 5506TIP3    H237934   4.263   3.778  16.478 -0.6433  1.8137  1.4028
 5507TIP3   OH237935   0.790   4.692  11.094  0.0029 -0.4346 -0.6807
 5507TIP3    H137936   0.710   4.658  11.054 -0.0056 -0.7550 -0.3998
 5507TIP3    H237937   0.764   4.775  11.133 -0.1095 -0.3687 -0.8932
 5508TIP3   OH237938   2.826   2.801  11.369  0.4855  0.5510 -0.1374
 5508TIP3    H137939   2.772   2.847  11.433  1.9884 -0.1238  1.7011
 5508TIP3    H237940   2.794   2.710  11.373 -1.7472  1.0557 -2.9716
 5509TIP3   OH237941   3.993   3.629  13.994  0.4486  0.1010 -0.2886
 5509TIP3    H137942   3.903   3.625  13.961  0.4283 -1.3162 -0.1418
 5509TIP3    H237943   3.983   3.641  14.089  0.4055  0.0395 -0.2848
 5510TIP3   OH237944   5.188   5.065   4.510 -0.1943  0.1700  0.0600
 5510TIP3    H137945   5.201   5.120   4.588  0.0912 -0.2161  0.2892
 5510TIP3    H237946   5.103   5.092   4.476 -1.4046 -1.2240  1.8142
 5511TIP3   OH237947   2.815   2.463  13.912 -0.3075  0.0089 -0.3854
 5511TIP3    H137948   2.819   2.370  13.934 -0.9586 -0.0595 -0.5511
 5511TIP3    H237949   2.884   2.474  13.846  0.1972 -0.2207  0.0951
 5512TIP3   OH237950   2.884   2.795  13.621  0.0249  0.2352  0.7562
 5512TIP3    H137951   2.921   2.773  13.535  2.5067 -1.2745  2.0801
 5512TIP3    H237952   2.914   2.885  13.637  0.5516  0.1131  0.5018
 5513TIP3   OH237953   3.026   1.309  16.283 -0.3744 -0.9088 -0.7180
 5513TIP3    H137954   3.108   1.311  16.333 -0.0104  0.5897 -1.2970
 5513TIP3    H237955   2.994   1.220  16.292  0.5237 -1.1107  0.8174
 5514TIP3   OH237956   2.008   0.503   3.655  0.3080  0.5541 -0.2579
 5514TIP3    H137957   2.031   0.476   3.744 -2.5276  2.2471  1.1299
 5514TIP3    H237958   2.012   0.598   3.657 -1.6641  0.7149 -1.3371
 5515TIP3   OH237959   2.607   2.419   2.774 -0.4393 -0.0007 -0.0586
 5515TIP3    H137960   2.576   2.396   2.861  0.7936  2.0026  0.9792
 5515TIP3    H237961   2.546   2.487   2.744  0.2608  0.6916  0.0678
 5516TIP3   OH237962   3.402   2.288  11.631  0.4256  0.1661 -0.0481
 5516TIP3    H137963   3.409   2.359  11.568 -1.2594  0.1310 -0.3436
 5516TIP3    H237964   3.358   2.217  11.583 -1.5371  0.3862  1.2653
 5517TIP3   OH237965   4.424   3.246   1.852  0.2084  0.0438 -0.3991
 5517TIP3    H137966   4.384   3.258   1.938 -1.3686  1.5073 -1.2681
 5517TIP3    H237967   4.504   3.195   1.869 -0.8865 -1.1080  1.6962
 5518TIP3   OH237968   2.572   3.843   3.352 -0.1482 -0.1644  0.3287
 5518TIP3    H137969   2.507   3.776   3.328  0.2620 -0.4266 -0.0645
 5518TIP3    H237970   2.527   3.897   3.417 -0.9757  0.0212 -0.3680
 5519TIP3   OH237971   5.824   4.385   1.222 -0.4957  0.0870  0.3644
 5519TIP3    H137972   5.741   4.338   1.213 -0.3000 -0.0924 -0.6245
 5519TIP3    H237973   5.890   4.323   1.191  0.0538  0.1254  1.4071
 5520TIP3   OH237974   5.180   0.109   2.703  0.4619 -0.4678 -0.3614
 5520TIP3    H137975   5.166   0.147   2.790 -1.4015 -0.5668 -0.5716
 5520TIP3    H237976   5.192   0.185   2.646 -1.0800 -0.2363 -0.4269
 5521TIP3   OH237977   4.766   5.417   0.976 -0.0757 -0.2803 -0.0514
 5521TIP3    H137978   4.728   5.329   0.982 -0.6330  0.0280  1.3974
 5521TIP3    H237979   4.693   5.475   0.997  0.3139  0.5356 -0.8972
 5522TIP3   OH237980   2.720   1.824  12.076 -0.4553 -0.0453  0.1532
 5522TIP3    H137981   2.661   1.899  12.083  1.4721  1.9554 -2.7025
 5522TIP3    H237982   2.711   1.795  11.985  1.0126 -1.3779  0.3926
 5523TIP3   OH237983   0.425   5.567  16.423  0.4538  0.0773  0.1161
 5523TIP3    H137984   0.488   5.639  16.431  0.1841  0.2180  1.0533
 5523TIP3    H237985   0.474   5.489  16.449  0.0620  0.2908  1.5970
 5524TIP3   OH237986   6.683   0.544  13.087  0.4573 -0.4837 -0.1429
 5524TIP3    H137987   6.597   0.505  13.101  0.0118  0.8487  1.0299
 5524TIP3    H237988   6.743   0.469  13.084 -0.7120 -1.4263 -0.9221
 5525TIP3   OH237989   1.299   5.516   4.479  0.0063  0.1867  0.2550
 5525TIP3    H137990   1.263   5.543   4.394  0.2409  0.9193  0.3805
 5525TIP3    H237991   1.225   5.478   4.526  0.1340 -1.3719 -0.7318
 5526TIP3   OH237992   6.110   1.116  15.268  0.6814  0.3418 -0.1521
 5526TIP3    H137993   6.134   1.114  15.361  0.1306 -0.1505 -0.0144
 5526TIP3    H237994   6.048   1.188  15.261  0.2873  0.0236 -0.0202
 5527TIP3   OH237995   4.732   0.538   0.827  0.2667 -0.5521  0.3314
 5527TIP3    H137996   4.812   0.515   0.779 -0.2586 -0.2465 -0.7326
 5527TIP3    H237997   4.727   0.633   0.819 -2.2473 -0.7961 -3.1189
 5528TIP3   OH237998   5.945   4.524  13.435 -0.3535 -0.2925  0.1531
 5528TIP3    H137999   5.959   4.568  13.351 -0.2115 -3.0785 -1.4070
 5528TIP3    H238000   5.988   4.439  13.425  0.7686 -0.2843  3.5505
 5529TIP3   OH238001   3.953   5.068  14.659  0.6231  0.2714  0.7079
 5529TIP3    H138002   3.974   5.061  14.752  0.4126  0.6850  0.7896
 5529TIP3    H238003   3.994   5.150  14.631  2.3232 -0.7753 -0.0233
 5530TIP3   OH238004   6.365   1.921  10.353  0.6621 -0.3375  0.0698
 5530TIP3    H138005   6.287   1.866  10.344  0.2143  0.0313  1.4484
 5530TIP3    H238006   6.331   2.010  10.360  1.4258  0.4211 -3.6312
 5531TIP3   OH238007   3.152   5.919  17.139  0.2136 -0.2470 -0.5628
 5531TIP3    H138008   3.067   5.894  17.103  0.4686 -1.8109 -0.1672
 5531TIP3    H238009   3.211   5.848  17.113  0.8395 -0.4487  1.2421
 5532TIP3   OH238010   0.537   0.883  11.737 -0.0070  0.0424  0.0428
 5532TIP3    H138011   0.521   0.954  11.799 -0.4456  0.4907 -0.5739
 5532TIP3    H238012   0.525   0.923  11.650 -0.7844 -0.9081 -0.3035
 5533TIP3   OH238013   1.963   6.355   1.058 -0.6723  0.8493  0.3043
 5533TIP3    H138014   1.894   6.342   0.993  0.8684  2.4930 -1.7839
 5533TIP3    H238015   2.008   6.271   1.064 -0.6401  0.7594 -1.0299
 5534TIP3   OH238016   6.177   3.825  12.589  0.0371  0.0579 -0.1977
 5534TIP3    H138017   6.215   3.744  12.556 -0.8965 -0.7264  0.5594
 5534TIP3    H238018   6.119   3.855  12.519  0.0700 -0.1650 -0.3216
 5535TIP3   OH238019   4.886   6.395   0.555 -0.2007  0.3260 -0.0372
 5535TIP3    H138020   4.894   6.465   0.620 -0.0362  0.8921 -0.6574
 5535TIP3    H238021   4.976   6.367   0.538 -0.2513  0.1096  0.0496
 5536TIP3   OH238022   5.199   3.594  16.135  0.2632 -0.1883  0.0473
 5536TIP3    H138023   5.205   3.677  16.087  2.6556  0.8238  1.8451
 5536TIP3    H238024   5.134   3.611  16.203  0.4881  0.0955  0.1936
 5537TIP3   OH238025   4.307   6.789  10.806 -0.0150 -0.1869  0.9249
 5537TIP3    H138026   4.309   6.884  10.823  0.9273  0.1036 -0.6579
 5537TIP3    H238027   4.225   6.776  10.758  0.1127 -0.0841  0.6768
 5538TIP3   OH238028   0.425   1.345   1.884 -0.5322  0.2575  0.0735
 5538TIP3    H138029   0.342   1.347   1.931 -0.6880  0.9911 -0.2040
 5538TIP3    H238030   0.478   1.280   1.930 -0.8109  0.6845  1.0235
 5539TIP3   OH238031   5.461   2.259   2.510  0.1936 -0.1319 -0.2844
 5539TIP3    H138032   5.420   2.291   2.590  2.1229 -1.4247  1.3437
 5539TIP3    H238033   5.427   2.170   2.500 -0.9767  0.4354 -1.6579
 5540TIP3   OH238034   3.932   3.076   6.332  0.0456  0.1367 -0.0399
 5540TIP3    H138035   4.023   3.098   6.349 -0.7490  2.2356  2.1051
 5540TIP3    H238036   3.913   3.002   6.390 -0.0406  0.8910  0.9306
 5541TIP3   OH238037   4.955   6.231   0.303 -0.2867  0.4009  0.5907
 5541TIP3    H138038   4.989   6.210   0.390  0.7033 -0.1581  0.0914
 5541TIP3    H238039   4.877   6.284   0.320  0.9095  1.9129  1.8092
 5542TIP3   OH238040   0.503   2.234   5.388 -0.7374 -0.4660 -0.3070
 5542TIP3    H138041   0.454   2.157   5.357 -0.4793 -1.1074  0.8298
 5542TIP3    H238042   0.448   2.271   5.457 -0.0126 -0.7314  0.4348
 5543TIP3   OH238043   5.163   1.176   3.776 -0.1891  0.3991 -0.3040
 5543TIP3    H138044   5.193   1.259   3.739 -0.0799 -0.4333 -2.2419
 5543TIP3    H238045   5.103   1.141   3.710  0.0420 -1.2142  0.2987
 5544TIP3   OH238046   5.960   1.772   4.536  0.6914 -0.2962  0.0367
 5544TIP3    H138047   5.875   1.732   4.552  0.8240 -0.4246  0.4470
 5544TIP3    H238048   5.959   1.796   4.443  0.4861 -0.9621 -0.1408
 5545TIP3   OH238049   0.474   2.715   0.346  0.6895  0.1509 -0.4838
 5545TIP3    H138050   0.448   2.631   0.308 -1.1164  0.6697 -0.4855
 5545TIP3    H238051   0.526   2.692   0.422  1.4237 -0.9501 -1.2883
 5546TIP3   OH238052   4.385   5.099  14.170 -0.2841  0.3758 -0.0952
 5546TIP3    H138053   4.449   5.133  14.107  0.9644 -0.0518  0.8938
 5546TIP3    H238054   4.407   5.006  14.177 -0.4350  0.4053  0.9121
 5547TIP3   OH238055   0.164   5.382   4.158 -0.9610  0.5534  0.1420
 5547TIP3    H138056   0.163   5.385   4.254 -2.1318  0.7934  0.1389
 5547TIP3    H238057   0.158   5.289   4.137  0.3885  0.4153  0.2863
 5548TIP3   OH238058   3.740   6.067  14.251 -0.1020  0.1082  0.0677
 5548TIP3    H138059   3.717   6.085  14.342 -3.1189 -1.5411 -0.2400
 5548TIP3    H238060   3.834   6.049  14.252 -0.5791 -3.3085  3.5136
 5549TIP3   OH238061   3.069   2.161  12.919 -0.4437 -0.3787 -0.6668
 5549TIP3    H138062   3.071   2.195  12.830  0.9072  2.2010  0.2234
 5549TIP3    H238063   3.151   2.113  12.929  1.4839  2.7664  0.2319
 5550TIP3   OH238064   0.358   5.852  12.004  0.1616 -0.2712  0.0665
 5550TIP3    H138065   0.377   5.800  12.082  0.1423 -0.4431 -0.0436
 5550TIP3    H238066   0.429   5.917  12.000  1.5178 -1.7394 -1.0816
 5551TIP3   OH238067   1.335   0.238   0.082 -0.2014  0.1200  0.1326
 5551TIP3    H138068   1.339   0.314   0.140  1.4811  0.3311 -0.2059
 5551TIP3    H238069   1.271   0.180   0.122 -0.5054  1.1151  1.1293
 5552TIP3   OH238070   2.165   1.080  13.589  0.3000 -0.1381  0.0992
 5552TIP3    H138071   2.206   1.071  13.503 -0.4972  1.3479 -0.4646
 5552TIP3    H238072   2.157   1.174  13.602 -0.1491 -0.3491  1.5443
 5553TIP3   OH238073   4.431   0.801  13.056 -0.1318  0.2474  0.0232
 5553TIP3    H138074   4.488   0.745  13.002  1.3342  1.5535  0.1545
 5553TIP3    H238075   4.443   0.889  13.020 -0.0150  0.9664  1.7318
 5554TIP3   OH238076   4.887   2.134  12.810 -0.0914  0.5177  0.8147
 5554TIP3    H138077   4.869   2.193  12.737  2.0319 -0.4544 -0.5978
 5554TIP3    H238078   4.818   2.068  12.806 -0.1387  0.6203 -0.1840
 5555TIP3   OH238079   6.273   6.211  15.408  0.0917  0.2383  0.1205
 5555TIP3    H138080   6.261   6.304  15.386  3.0208  1.0024  1.2314
 5555TIP3    H238081   6.291   6.169  15.325 -0.3664  0.8593 -0.2989
 5556TIP3   OH238082   2.674   6.309   6.072 -0.4106  0.1400 -0.4901
 5556TIP3    H138083   2.691   6.402   6.084 -0.6827  0.0733  0.4780
 5556TIP3    H238084   2.603   6.305   6.007 -0.8238  0.6310 -0.0742
 5557TIP3   OH238085   3.873   3.152   4.732 -0.6399  0.2727  0.1164
 5557TIP3    H138086   3.930   3.109   4.795  0.6348  0.6063 -0.7598
 5557TIP3    H238087   3.887   3.245   4.746 -0.4371  0.3519 -0.5558
 5558TIP3   OH238088   4.789   3.820  11.241 -0.1613 -0.3933  0.1756
 5558TIP3    H138089   4.706   3.777  11.262  0.2634 -1.5264 -0.3984
 5558TIP3    H238090   4.850   3.748  11.223  0.7971  0.4340  0.0052
 5559TIP3   OH238091   0.076   6.556   6.419  0.3708 -0.2800 -0.1607
 5559TIP3    H138092   0.035   6.490   6.475 -1.1907  1.6884  1.1520
 5559TIP3    H238093   0.007   6.620   6.403  1.9404  1.3050 -0.9671
 5560TIP3   OH238094   6.554   6.593  13.175  0.2259  0.3389  0.1419
 5560TIP3    H138095   6.617   6.605  13.104  0.6692  1.7385  0.7411
 5560TIP3    H238096   6.471   6.580  13.131  0.6331  0.3196 -0.6405
 5561TIP3   OH238097   5.288   2.663   3.413  0.3390  0.1617 -0.3222
 5561TIP3    H138098   5.289   2.615   3.496  0.3008 -0.1349 -0.4934
 5561TIP3    H238099   5.255   2.600   3.349  0.3053  0.4101 -0.5519
 5562TIP3   OH238100   5.494   2.958   1.868 -0.6307  0.2773  0.0425
 5562TIP3    H138101   5.523   2.981   1.956 -0.1788 -0.7374  0.1704
 5562TIP3    H238102   5.574   2.955   1.815 -0.7526 -0.3348 -0.1160
 5563TIP3   OH238103   6.608   1.740  10.328 -0.6002  0.1884  0.7813
 5563TIP3    H138104   6.638   1.696  10.249  1.0626  3.6072 -0.7061
 5563TIP3    H238105   6.524   1.779  10.303 -0.8919 -0.1269  1.2661
 5564TIP3   OH238106   6.131   5.843  15.042 -0.3683 -0.2681 -0.0009
 5564TIP3    H138107   6.205   5.790  15.014  1.7598  2.6009 -0.1678
 5564TIP3    H238108   6.070   5.840  14.968  0.5033 -0.9883 -0.7130
 5565TIP3   OH238109   2.388   4.756   6.574  0.1896  0.3402 -0.2691
 5565TIP3    H138110   2.308   4.798   6.543 -0.1147 -0.8848 -1.2052
 5565TIP3    H238111   2.457   4.820   6.554 -0.6517  1.9883  1.7634
 5566TIP3   OH238112   3.726   5.576  14.624  0.5326  0.1965  0.6019
 5566TIP3    H138113   3.670   5.549  14.551  0.2267  0.9390  0.5500
 5566TIP3    H238114   3.687   5.658  14.654  1.0024  0.1927  1.2249
 5567TIP3   OH238115   2.345   6.455   5.468  0.0461 -0.1730  0.0242
 5567TIP3    H138116   2.322   6.524   5.405 -0.6509  0.8450  1.3278
 5567TIP3    H238117   2.437   6.437   5.452  0.4169  1.5332  0.0509
 5568TIP3   OH238118   4.394   0.772  17.112  0.3574 -0.0157 -1.0211
 5568TIP3    H138119   4.364   0.856  17.078  1.2845  0.5671 -0.4517
 5568TIP3    H238120   4.316   0.731  17.148  0.1256  1.2349 -0.0412
 5569TIP3   OH238121   5.095   2.246   2.360 -1.0088 -0.1501  0.5071
 5569TIP3    H138122   5.105   2.258   2.265 -0.5403  0.9992  0.6901
 5569TIP3    H238123   5.137   2.162   2.378  2.0168  1.1964  0.1978
 5570TIP3   OH238124   4.999   2.223  15.725 -0.4634 -0.0260  0.0359
 5570TIP3    H138125   5.005   2.316  15.704  0.2923 -0.0437  0.1148
 5570TIP3    H238126   4.950   2.185  15.653  1.1973  0.0797 -1.2167
 5571TIP3   OH238127   1.675   5.303   3.924  0.1218 -0.1808 -0.0557
 5571TIP3    H138128   1.619   5.377   3.946  2.0672  1.5068 -0.5053
 5571TIP3    H238129   1.690   5.259   4.008 -1.6103 -0.5058  0.1067
 5572TIP3   OH238130   2.187   1.768   4.953  0.1164  0.1411  0.5437
 5572TIP3    H138131   2.207   1.675   4.956  1.2410  0.3818  2.7206
 5572TIP3    H238132   2.267   1.809   4.920 -0.1151  0.4022  0.2953
 5573TIP3   OH238133   5.601   6.764   3.846  0.2579 -0.4252 -0.3576
 5573TIP3    H138134   5.592   6.678   3.888 -2.1530  0.0665  0.2886
 5573TIP3    H238135   5.511   6.794   3.834  0.9754  2.8850  1.2943
 5574TIP3   OH238136   3.664   3.971  16.879 -0.7036  0.7777 -0.1841
 5574TIP3    H138137   3.582   3.998  16.921 -1.1561  3.2966 -2.3905
 5574TIP3    H238138   3.708   3.918  16.945 -2.4080  2.4382  2.5134
 5575TIP3   OH238139   0.625   1.827   3.004 -0.4654 -0.0420 -0.1402
 5575TIP3    H138140   0.617   1.886   3.080 -1.8249  1.1020 -1.1115
 5575TIP3    H238141   0.606   1.740   3.039 -1.4152  0.5119  0.7869
 5576TIP3   OH238142   5.422   0.276   0.464  0.2777 -0.1943  0.2000
 5576TIP3    H138143   5.476   0.232   0.399  0.6602 -0.9595  1.0215
 5576TIP3    H238144   5.477   0.347   0.496  0.3556 -0.2540  0.1991
 5577TIP3   OH238145   5.024   0.974  12.103 -0.0385 -0.1800 -0.0729
 5577TIP3    H138146   5.020   0.974  12.198 -0.4516 -0.5074 -0.0886
 5577TIP3    H238147   4.946   0.925  12.075 -0.8133  1.2900 -0.6098
 5578TIP3   OH238148   2.233   3.412  15.363  0.1917  0.3199 -0.5981
 5578TIP3    H138149   2.214   3.395  15.271  0.7976 -1.1218 -0.4843
 5578TIP3    H238150   2.207   3.503  15.376  0.8307  0.7963 -2.3841
 5579TIP3   OH238151   0.701   1.840  15.158  0.8056 -0.1724 -0.8007
 5579TIP3    H138152   0.641   1.912  15.138  0.3266 -0.2416  0.2952
 5579TIP3    H238153   0.746   1.868  15.237  1.5637 -0.5261 -1.1000
 5580TIP3   OH238154   4.903   0.619  14.581  0.0461 -0.8703  0.5045
 5580TIP3    H138155   4.991   0.653  14.596 -0.8732  2.6094 -0.9885
 5580TIP3    H238156   4.898   0.604  14.487 -1.5812  1.4052  0.1238
 5581TIP3   OH238157   0.342   5.093   4.208  0.0930 -0.2850  0.3488
 5581TIP3    H138158   0.275   5.106   4.141  0.6002 -0.9485 -0.3196
 5581TIP3    H238159   0.402   5.029   4.168  1.8229  1.2451  0.3905
 5582TIP3   OH238160   5.930   3.672  11.824  0.0699  0.2736 -0.3067
 5582TIP3    H138161   5.921   3.755  11.871  1.0191  0.1871  0.0466
 5582TIP3    H238162   5.971   3.612  11.887  1.0501  0.0558 -1.1141
 5583TIP3   OH238163   5.497   5.829  13.598 -0.0517 -0.7554  0.6367
 5583TIP3    H138164   5.501   5.768  13.525 -1.5613 -0.5244  0.3203
 5583TIP3    H238165   5.564   5.799  13.659 -0.0256 -2.0573 -0.0148
 5584TIP3   OH238166   3.213   6.109  11.812 -0.2339  0.2805 -0.4861
 5584TIP3    H138167   3.141   6.122  11.873  1.0092  1.2483  0.8389
 5584TIP3    H238168   3.178   6.049  11.746 -1.8607 -0.1889  0.7450
 5585TIP3   OH238169   6.047   4.210   5.216 -0.5307  0.4349  0.2351
 5585TIP3    H138170   6.041   4.124   5.259 -3.0286  0.7603  0.6864
 5585TIP3    H238171   5.983   4.205   5.145  0.0275  1.6087 -0.3729
 5586TIP3   OH238172   5.650   3.859   4.822  0.1450 -0.2588 -0.1829
 5586TIP3    H138173   5.636   3.888   4.912  0.4584  0.4953 -0.3752
 5586TIP3    H238174   5.569   3.813   4.799 -0.4077  0.5573  0.0875
 5587TIP3   OH238175   5.857   0.485   0.420 -0.7930  0.4963 -0.5141
 5587TIP3    H138176   5.767   0.461   0.445 -0.5194  0.0017  0.0216
 5587TIP3    H238177   5.890   0.533   0.496 -1.0179  1.7782 -1.2074
 5588TIP3   OH238178   5.319   1.125  15.493 -0.4620  0.5227 -0.2431
 5588TIP3    H138179   5.288   1.035  15.482  0.5188  0.1095  0.2260
 5588TIP3    H238180   5.245   1.171  15.533 -0.8004 -0.1968 -0.0249
 5589TIP3   OH238181   6.231   3.834   4.218  0.0595  0.3288  0.3827
 5589TIP3    H138182   6.180   3.754   4.208  0.5407  0.1828 -0.9986
 5589TIP3    H238183   6.231   3.850   4.313  1.1062 -2.0470  0.8523
 5590TIP3   OH238184   6.041   5.868   6.374  0.1340 -0.1276  0.1300
 5590TIP3    H138185   5.971   5.908   6.426 -0.5005  1.7638 -2.0054
 5590TIP3    H238186   6.119   5.874   6.429 -0.9885 -0.6342  1.8526
 5591TIP3   OH238187   3.573   4.279  14.308  0.1733 -0.9822 -0.0689
 5591TIP3    H138188   3.604   4.304  14.395  1.9606  0.8141 -1.1455
 5591TIP3    H238189   3.478   4.285  14.314  0.3316  1.0947  1.2279
 5592TIP3   OH238190   1.674   3.979  14.909 -0.6275  0.0579  0.3515
 5592TIP3    H138191   1.749   4.038  14.899 -1.1998  0.5507 -1.3011
 5592TIP3    H238192   1.602   4.037  14.937 -0.5817 -0.2987  1.2471
 5593TIP3   OH238193   1.732   3.142   5.185  0.3155  0.0713  0.4898
 5593TIP3    H138194   1.640   3.118   5.183  0.1469  0.7315 -0.4637
 5593TIP3    H238195   1.764   3.120   5.097  1.0916 -0.2267  0.8368
 5594TIP3   OH238196   3.018   1.010  16.704  0.0399  0.0910  0.1963
 5594TIP3    H138197   2.944   1.061  16.671  1.6699  1.2901 -1.9172
 5594TIP3    H238198   3.095   1.064  16.683  1.5073 -0.6716  3.1061
 5595TIP3   OH238199   1.937   0.721  14.393 -0.1769  0.0522  0.0954
 5595TIP3    H138200   1.894   0.774  14.460  1.1106 -1.3287  2.1427
 5595TIP3    H238201   1.980   0.784  14.335 -1.8856  1.3159  0.1307
 5596TIP3   OH238202   3.101   0.764  14.902 -0.3037  0.3008  0.5294
 5596TIP3    H138203   3.006   0.753  14.912  0.0069 -0.7937  3.0443
 5596TIP3    H238204   3.137   0.741  14.988  2.3257 -0.0827 -0.5820
 5597TIP3   OH238205   1.730   1.868   4.082  0.5329 -0.5788  0.3030
 5597TIP3    H138206   1.765   1.912   4.005 -0.0404 -1.5164 -0.5151
 5597TIP3    H238207   1.771   1.781   4.081 -1.3583 -1.5182 -0.3895
 5598TIP3   OH238208   3.416   4.849   0.340  0.1974 -0.2339  0.2808
 5598TIP3    H138209   3.374   4.918   0.289  2.2522 -1.0426 -2.7329
 5598TIP3    H238210   3.497   4.889   0.371 -0.2534 -0.2815  1.6153
 5599TIP3   OH238211   3.938   0.906  10.940  0.0189  0.5555 -0.5106
 5599TIP3    H138212   3.996   0.831  10.924  1.0408  1.1318  0.3017
 5599TIP3    H238213   3.987   0.961  11.001 -0.3788  2.2712 -1.6617
 5600TIP3   OH238214   5.493   6.249  16.547  0.3994  0.0653  0.0583
 5600TIP3    H138215   5.504   6.314  16.477 -0.5571  0.9921  0.7338
 5600TIP3    H238216   5.528   6.168  16.511  2.6406  1.1748 -0.4353
 5601TIP3   OH238217   4.950   5.760  11.434  0.1178  0.4781 -0.2516
 5601TIP3    H138218   4.930   5.852  11.416 -0.8617  0.3528  0.0971
 5601TIP3    H238219   5.038   5.747  11.400 -0.7612  0.8219 -2.8625
 5602TIP3   OH238220   3.157   6.431  14.710 -0.3182 -0.1673  0.3991
 5602TIP3    H138221   3.227   6.451  14.773  0.8780 -0.7968 -0.6846
 5602TIP3    H238222   3.096   6.376  14.759 -0.0158  0.3292  1.3517
 5603TIP3   OH238223   5.392   0.614   4.307 -0.0560 -0.1682  0.2475
 5603TIP3    H138224   5.469   0.656   4.268  0.5447 -0.1351  1.4437
 5603TIP3    H238225   5.323   0.679   4.298  0.5678  0.6247  1.0034
 5604TIP3   OH238226   0.215   5.160  12.205 -0.3059 -0.2709 -0.3425
 5604TIP3    H138227   0.174   5.239  12.241  1.0571  0.0283  0.6315
 5604TIP3    H238228   0.275   5.194  12.139  2.0905 -0.1970  1.7311
 5605TIP3   OH238229   6.634   0.790  13.206 -0.2176 -0.6548 -0.4040
 5605TIP3    H138230   6.657   0.709  13.160 -2.2033 -0.3626 -2.0636
 5605TIP3    H238231   6.539   0.797  13.197 -0.2783  1.0756  1.0609
 5606TIP3   OH238232   2.108   1.154   1.437  0.1333 -0.1775 -0.0233
 5606TIP3    H138233   2.094   1.223   1.372 -0.7456 -0.5352 -0.2401
 5606TIP3    H238234   2.203   1.146   1.444  0.2438  0.5616 -0.5159
 5607TIP3   OH238235   4.007   5.809  17.089 -0.1400  0.5759  0.1440
 5607TIP3    H138236   4.066   5.884  17.085 -0.7297  1.0531  0.2681
 5607TIP3    H238237   3.925   5.844  17.122  0.2183 -0.5297  2.4008
 5608TIP3   OH238238   1.452   4.766  11.502  0.4607  0.1260 -0.0251
 5608TIP3    H138239   1.392   4.841  11.494  0.2843  0.0627  0.6311
 5608TIP3    H238240   1.418   4.716  11.576  1.5404  0.2846  0.5879
 5609TIP3   OH238241   3.923   3.329   2.709 -0.5977  0.1583  0.1188
 5609TIP3    H138242   3.880   3.405   2.750  1.2445  0.8071  0.9590
 5609TIP3    H238243   3.873   3.254   2.740 -2.2595  0.9719 -0.4440
 5610TIP3   OH238244   6.705   3.862  16.252  0.5165 -0.7662 -0.2252
 5610TIP3    H138245   6.725   3.905  16.168 -2.5266  0.8435 -0.2749
 5610TIP3    H238246   6.647   3.790  16.228  1.3021 -1.6119  0.3635
 5611TIP3   OH238247   4.960   3.462   3.159  0.1892  0.3182  0.2525
 5611TIP3    H138248   4.886   3.481   3.216  0.5845  0.5821  0.6856
 5611TIP3    H238249   4.941   3.511   3.078  0.1266  0.7831  0.5443
 5612TIP3   OH238250   0.074   4.931  12.183 -0.0754 -0.4637 -0.9532
 5612TIP3    H138251   0.091   4.894  12.270 -3.4150 -1.5737 -0.6516
 5612TIP3    H238252   0.119   5.016  12.184  0.0069 -0.4408  1.8415
 5613TIP3   OH238253   3.095   5.219   0.634 -0.4601  0.3891  0.4010
 5613TIP3    H138254   3.178   5.225   0.586 -1.8283  0.0791 -2.1477
 5613TIP3    H238255   3.117   5.248   0.723  3.0379 -2.6862  0.7510
 5614TIP3   OH238256   1.566   6.419  15.667  0.2116 -0.3531  0.2979
 5614TIP3    H138257   1.656   6.390  15.655  0.1214  0.2117 -2.6787
 5614TIP3    H238258   1.573   6.513  15.683  0.1801 -0.3627  0.3669
 5615TIP3   OH238259   1.994   5.324  11.564 -0.2014 -0.1180 -0.3306
 5615TIP3    H138260   1.962   5.271  11.638  0.5215 -0.2027 -0.0655
 5615TIP3    H238261   2.073   5.367  11.598 -1.3178  1.9750 -0.1891
 5616TIP3   OH238262   2.450   1.897  11.043 -0.1991  0.2792 -0.2492
 5616TIP3    H138263   2.470   1.971  10.986  0.4764 -0.4790 -1.0166
 5616TIP3    H238264   2.532   1.849  11.049 -0.5797 -0.3028  0.4095
 5617TIP3   OH238265   0.682   5.469   3.105 -0.0923  0.4174 -0.3543
 5617TIP3    H138266   0.651   5.470   3.195  0.7485  1.4759 -0.0572
 5617TIP3    H238267   0.634   5.397   3.064  0.6788 -1.1444  1.3407
 5618TIP3   OH238268   4.994   3.875  17.006 -0.3132  0.4265  0.2893
 5618TIP3    H138269   4.942   3.918  17.073 -2.7083 -1.2005 -0.3930
 5618TIP3    H238270   4.944   3.887  16.925  1.1933  0.1632 -0.7374
 5619TIP3   OH238271   1.488   1.471  12.684 -0.4672  0.0157 -0.2154
 5619TIP3    H138272   1.453   1.540  12.740  0.3903 -1.6325  2.5567
 5619TIP3    H238273   1.438   1.393  12.708 -0.0433 -0.7674 -1.7701
 5620TIP3   OH238274   3.837   4.689   0.683 -0.1998  0.1745  0.4899
 5620TIP3    H138275   3.890   4.765   0.660 -0.4158 -0.2075 -1.5108
 5620TIP3    H238276   3.756   4.726   0.717  0.3604  0.7899  1.2014
 5621TIP3   OH238277   2.744   0.210   3.437 -0.5185 -0.6819  0.6934
 5621TIP3    H138278   2.688   0.285   3.458  0.4138  0.3326 -0.3285
 5621TIP3    H238279   2.832   0.248   3.427 -0.0214 -1.9204  0.2349
 5622TIP3   OH238280   6.106   4.472  12.652  0.0054 -0.1815  0.5781
 5622TIP3    H138281   6.077   4.562  12.634 -0.4946 -0.2062  1.2247
 5622TIP3    H238282   6.102   4.428  12.567 -0.5722  0.1802  0.4127
 5623TIP3   OH238283   1.429   6.175  17.005  0.5616 -0.3563  0.0448
 5623TIP3    H138284   1.466   6.257  16.971  0.0883 -0.3849 -0.5619
 5623TIP3    H238285   1.444   6.180  17.099 -2.1173  1.8736  0.4907
 5624TIP3   OH238286   0.829   1.441  11.767  0.5799 -0.8984  0.2859
 5624TIP3    H138287   0.770   1.511  11.794  0.5601 -0.6086 -0.4683
 5624TIP3    H238288   0.899   1.442  11.831  0.0036 -0.9346  0.9280
 5625TIP3   OH238289   4.339   0.127   2.794  0.0410  0.2112  1.1508
 5625TIP3    H138290   4.267   0.067   2.815  0.6028 -0.1015  2.2613
 5625TIP3    H238291   4.361   0.107   2.703 -2.1662  1.2716  0.3095
 5626TIP3   OH238292   0.142   4.896  16.120 -0.0308  0.6782 -0.4730
 5626TIP3    H138293   0.073   4.945  16.163  0.5970  0.5177  0.7642
 5626TIP3    H238294   0.116   4.804  16.128 -0.0882  0.6644 -0.7772
 5627TIP3   OH238295   1.325   6.757  17.071  0.3512 -0.1792  0.1240
 5627TIP3    H138296   1.410   6.754  17.114  0.9265  1.2265 -0.8421
 5627TIP3    H238297   1.337   6.818  16.998 -1.7739  0.9866  0.6449
 5628TIP3   OH238298   3.030   4.220  14.893 -0.0733  0.2546  0.3203
 5628TIP3    H138299   3.013   4.198  14.801 -2.3325 -1.4088  1.0628
 5628TIP3    H238300   3.085   4.149  14.925 -0.8566 -0.1921  0.7072
 5629TIP3   OH238301   3.041   1.485   0.591  0.1466  0.6419 -0.6052
 5629TIP3    H138302   3.016   1.454   0.504 -0.9266  0.7742 -0.3646
 5629TIP3    H238303   3.113   1.545   0.575  1.2288 -0.7414 -1.2253
 5630TIP3   OH238304   2.572   0.655   3.162  0.0143 -0.3759 -0.4509
 5630TIP3    H138305   2.582   0.563   3.137  1.6789 -0.8028  1.4904
 5630TIP3    H238306   2.640   0.669   3.227 -1.6297  1.6326  0.9687
 5631TIP3   OH238307   5.930   0.368   3.947  0.5500  0.4878  0.0284
 5631TIP3    H138308   5.950   0.457   3.976  0.8315  0.4785 -0.1362
 5631TIP3    H238309   5.859   0.378   3.884  0.0315  0.5218  0.6060
 5632TIP3   OH238310   1.701   5.747   2.673 -0.4286  0.3604  0.2931
 5632TIP3    H138311   1.646   5.823   2.688  0.5660  0.8980  1.3283
 5632TIP3    H238312   1.787   5.783   2.649 -0.1886 -0.4429 -0.1088
 5633TIP3   OH238313   3.737   2.407  14.394 -0.2341 -0.0757 -0.0797
 5633TIP3    H138314   3.814   2.461  14.410 -1.0301  0.5333  2.1424
 5633TIP3    H238315   3.727   2.355  14.474 -0.4111 -2.4114 -1.5325
 5634TIP3   OH238316   0.252   0.384   1.471 -0.3164 -0.3170 -0.2728
 5634TIP3    H138317   0.321   0.376   1.406 -0.9105 -0.9387 -0.8386
 5634TIP3    H238318   0.207   0.300   1.470 -1.3289  0.2009 -0.2035
 5635TIP3   OH238319   3.230   1.779   1.714 -0.3289  0.1570 -0.1267
 5635TIP3    H138320   3.157   1.718   1.724  0.5681 -0.9999 -0.4256
 5635TIP3    H238321   3.298   1.746   1.773  0.5580  0.2355 -1.0696
 5636TIP3   OH238322   5.945   0.087   4.308 -0.2335  0.0371 -0.4833
 5636TIP3    H138323   5.909   0.003   4.279  0.1178  0.9797 -4.1119
 5636TIP3    H238324   5.877   0.151   4.286  0.3763  0.9559  0.2354
 5637TIP3   OH238325   3.967   4.859  14.472  0.3980 -0.0456 -0.4173
 5637TIP3    H138326   3.989   4.923  14.539  0.8498 -0.5684 -0.0564
 5637TIP3    H238327   3.906   4.799  14.515  1.4954 -0.9909 -0.1286
 5638TIP3   OH238328   2.044   4.893  12.164  0.2650 -0.0412 -0.1059
 5638TIP3    H138329   1.953   4.865  12.159 -0.0287  1.0122 -1.2879
 5638TIP3    H238330   2.087   4.851  12.089  0.7328 -0.4419  0.3768
 5639TIP3   OH238331   3.318   5.737   4.484 -0.6099  0.2568  0.1882
 5639TIP3    H138332   3.351   5.822   4.454  0.0039  0.2361  0.7941
 5639TIP3    H238333   3.396   5.683   4.495 -0.9346 -0.1494  0.5572
 5640TIP3   OH238334   0.717   1.636  16.107 -0.5251  0.0696  0.1171
 5640TIP3    H138335   0.631   1.597  16.093 -0.9221  1.1784 -0.5831
 5640TIP3    H238336   0.725   1.704  16.041  1.1688 -0.4476 -0.2846
 5641TIP3   OH238337   4.969   0.322  16.783  0.5456 -0.2040  0.5682
 5641TIP3    H138338   4.913   0.398  16.772  0.1717 -0.2810  1.7727
 5641TIP3    H238339   5.053   0.357  16.812  1.8733  0.0906 -3.1418
 5642TIP3   OH238340   4.004   4.498  17.185 -0.2528  0.1277 -0.0960
 5642TIP3    H138341   3.951   4.510  17.265  1.2185  1.5676  0.7189
 5642TIP3    H238342   4.086   4.460  17.216  0.1483  0.2472 -0.9846
 5643TIP3   OH238343   1.117   3.751  12.440  0.0608  0.2553 -0.4199
 5643TIP3    H138344   1.116   3.658  12.420 -1.4782  0.3577 -0.9657
 5643TIP3    H238345   1.094   3.755  12.533  1.1371  0.0565 -0.1363
 5644TIP3   OH238346   6.409   5.155   4.181  0.0039 -0.5023  0.3555
 5644TIP3    H138347   6.470   5.179   4.250 -1.4664  1.1305  1.1550
 5644TIP3    H238348   6.394   5.237   4.133 -1.3982 -0.8968  0.0755
 5645TIP3   OH238349   5.352   1.942   2.932  0.2690 -0.4680  0.6762
 5645TIP3    H138350   5.331   1.904   3.018 -0.3479 -2.0454 -0.1467
 5645TIP3    H238351   5.314   2.030   2.936  0.7278 -0.2967  2.2113
 5646TIP3   OH238352   3.156   2.865  16.462 -0.1203  0.4851  0.1406
 5646TIP3    H138353   3.209   2.808  16.406 -1.0179  2.0934 -2.5417
 5646TIP3    H238354   3.215   2.892  16.532  1.4902 -0.6207 -0.7369
 5647TIP3   OH238355   6.764   0.781  14.502  0.4346 -0.4346 -0.4321
 5647TIP3    H138356   6.815   0.814  14.427  1.2558 -1.0965 -0.1755
 5647TIP3    H238357   6.713   0.857  14.531  0.8921  0.1083 -1.0189
 5648TIP3   OH238358   2.294   5.211  16.790  0.1525  0.0136  0.0605
 5648TIP3    H138359   2.294   5.136  16.850 -0.6270 -0.9023 -1.0246
 5648TIP3    H238360   2.207   5.208  16.749  0.5460  0.8082 -0.8624
 5649TIP3   OH238361   4.676   5.693   0.728 -0.4173 -0.4384  0.1808
 5649TIP3    H138362   4.591   5.736   0.741 -0.3820 -1.0003  3.0530
 5649TIP3    H238363   4.732   5.730   0.796  1.8940  0.3748 -2.0498
 5650TIP3   OH238364   2.336   0.699   2.718  0.7600 -0.5128  0.1152
 5650TIP3    H138365   2.263   0.760   2.705 -0.1710 -1.9980 -2.7376
 5650TIP3    H238366   2.413   0.755   2.725 -0.2218  1.0637 -0.8429
 5651TIP3   OH238367   1.601   2.686   2.370  0.0998 -0.0242  0.0332
 5651TIP3    H138368   1.557   2.763   2.405  0.9102  1.1780 -1.4699
 5651TIP3    H238369   1.531   2.623   2.356 -0.3987 -0.1350  2.6099
 5652TIP3   OH238370   4.732   1.093  12.472  0.2764 -0.4641  0.4332
 5652TIP3    H138371   4.783   1.071  12.550  2.6720 -0.8123 -1.1394
 5652TIP3    H238372   4.728   1.189  12.471  0.3054 -0.4584  0.9287
 5653TIP3   OH238373   5.082   2.209  14.748 -0.2619  0.2320  0.3683
 5653TIP3    H138374   5.169   2.184  14.718 -0.5779  0.3102 -0.6280
 5653TIP3    H238375   5.095   2.231  14.841  1.1903  2.1297 -0.2033
 5654TIP3   OH238376   6.288   2.984  11.815  0.1621  0.2953 -0.9680
 5654TIP3    H138377   6.235   2.944  11.746  2.4148 -0.8698 -2.1571
 5654TIP3    H238378   6.292   3.077  11.793 -1.9775  0.5622 -0.3811
 5655TIP3   OH238379   3.222   2.114   2.918 -0.0328  0.4458  0.5603
 5655TIP3    H138380   3.259   2.200   2.939 -1.2132  0.9032  0.8388
 5655TIP3    H238381   3.127   2.127   2.923 -0.3043 -0.2922 -1.6368
 5656TIP3   OH238382   2.659   4.458  14.025  0.1339 -0.3704 -0.2566
 5656TIP3    H138383   2.736   4.513  14.036  0.3269 -0.7414  0.2839
 5656TIP3    H238384   2.585   4.517  14.035  0.3368  0.1436 -1.5736
 5657TIP3   OH238385   4.619   3.409   2.327 -0.0500  0.1990  0.3894
 5657TIP3    H138386   4.561   3.433   2.255 -0.6317 -0.6460  0.5627
 5657TIP3    H238387   4.693   3.366   2.285  0.5819  1.4611  0.1500
 5658TIP3   OH238388   2.776   4.411  11.598  0.7145  0.1294 -0.9317
 5658TIP3    H138389   2.799   4.318  11.604 -1.9715 -0.5071  1.3374
 5658TIP3    H238390   2.727   4.417  11.515  1.2986 -0.3592 -1.3253
 5659TIP3   OH238391   5.168   4.818   0.283 -0.4154 -0.1314 -0.6539
 5659TIP3    H138392   5.168   4.787   0.374  0.2135 -0.9002 -0.9058
 5659TIP3    H238393   5.102   4.763   0.240 -1.0552  0.5505 -0.5722
 5660TIP3   OH238394   1.174   2.523   3.592  0.7263 -0.2746  0.1910
 5660TIP3    H138395   1.095   2.504   3.541  0.3705  1.2256  0.1340
 5660TIP3    H238396   1.148   2.594   3.651  1.9754  0.0948  0.3292
 5661TIP3   OH238397   2.454   2.542  12.551  0.1455  0.1115 -0.2452
 5661TIP3    H138398   2.469   2.452  12.521  0.8074  0.0363  0.2722
 5661TIP3    H238399   2.411   2.532  12.636  0.5685  0.2773 -0.0103
 5662TIP3   OH238400   1.365   2.829   2.497  0.1388  0.1423 -0.0602
 5662TIP3    H138401   1.328   2.820   2.585  2.0754  1.9277  1.0340
 5662TIP3    H238402   1.294   2.866   2.445 -1.0017 -0.8233  0.7485
 5663TIP3   OH238403   1.861   1.186  14.499  0.6903  0.5562  0.0871
 5663TIP3    H138404   1.789   1.208  14.439 -0.2096 -0.8929  0.6107
 5663TIP3    H238405   1.939   1.220  14.454 -0.0463  0.2256 -1.5386
 5664TIP3   OH238406   0.270   5.941  11.696 -0.1107 -0.3048 -0.3929
 5664TIP3    H138407   0.361   5.953  11.720  0.1174 -1.1465 -0.8048
 5664TIP3    H238408   0.258   5.997  11.619 -0.0316  0.0439 -0.1528
 5665TIP3   OH238409   0.749   4.410  15.539 -0.1473  0.4353 -0.2136
 5665TIP3    H138410   0.804   4.364  15.476  0.6127  0.7819  0.1897
 5665TIP3    H238411   0.746   4.354  15.616 -1.9249 -0.4866 -0.8916
 5666TIP3   OH238412   0.648   5.954   5.928 -0.4936 -0.0225 -0.4914
 5666TIP3    H138413   0.615   5.877   5.973 -0.6565  0.1034 -0.3953
 5666TIP3    H238414   0.609   6.028   5.974  2.6724  0.3371  2.0194
 5667TIP3   OH238415   0.800   2.822   2.836  0.3255  0.1945  0.0416
 5667TIP3    H138416   0.838   2.858   2.756 -2.0523  1.8687 -0.4259
 5667TIP3    H238417   0.789   2.897   2.894 -2.4928 -0.0798  0.0006
 5668TIP3   OH238418   0.022   4.122  12.812 -0.4870 -0.1000  0.2877
 5668TIP3    H138419  -0.065   4.087  12.834  1.1216 -4.5745  0.4699
 5668TIP3    H238420   0.061   4.055  12.756  2.7883  1.8972 -0.0606
 5669TIP3   OH238421   5.936   6.126  12.204 -0.0677 -0.1198  0.1251
 5669TIP3    H138422   6.003   6.084  12.258 -1.1173 -0.7004  1.0235
 5669TIP3    H238423   5.873   6.056  12.185  0.4494 -0.0310 -2.1990
 5670TIP3   OH238424   4.317   1.000  14.311  0.2954 -0.1238 -0.1135
 5670TIP3    H138425   4.243   1.024  14.366  0.2299 -1.3335  0.3596
 5670TIP3    H238426   4.310   1.056  14.234  0.6785  1.9728  1.3096
 5671TIP3   OH238427   2.901   3.288  12.347  0.7387  0.0085 -0.2930
 5671TIP3    H138428   2.995   3.280  12.329  0.9962  2.3916 -0.2610
 5671TIP3    H238429   2.859   3.236  12.277  2.0356 -1.5188 -0.0051
 5672TIP3   OH238430   4.712   0.692   2.095  0.6410 -0.0948 -0.4226
 5672TIP3    H138431   4.737   0.632   2.166  1.3439  0.2429 -0.3721
 5672TIP3    H238432   4.617   0.701   2.103  0.6338 -0.5731  0.0690
 5673TIP3   OH238433   1.306   0.258   4.032  0.0705  0.0601 -0.0846
 5673TIP3    H138434   1.347   0.283   3.950 -2.6770 -1.6979 -2.1565
 5673TIP3    H238435   1.294   0.163   4.025 -2.2272  0.1660  1.3158
 5674TIP3   OH238436   0.578   6.312   4.248 -0.2187  0.6147 -0.1966
 5674TIP3    H138437   0.489   6.290   4.223  0.1472 -0.0776 -0.9234
 5674TIP3    H238438   0.588   6.404   4.222 -0.7033  0.6845 -0.1447
 5675TIP3   OH238439   0.685   1.418  16.392 -0.1004 -0.1737 -0.2872
 5675TIP3    H138440   0.604   1.404  16.344 -0.2759 -0.2763  0.0388
 5675TIP3    H238441   0.671   1.377  16.477  0.7692 -1.3507 -0.6867
 5676TIP3   OH238442   0.876   3.136   1.526  0.3683 -0.4331 -0.1994
 5676TIP3    H138443   0.956   3.110   1.572  1.2715  1.5420 -0.5645
 5676TIP3    H238444   0.901   3.137   1.434  0.7356  2.5753 -0.1648
 5677TIP3   OH238445   1.635   5.865  15.751  0.5173  0.0951  0.3336
 5677TIP3    H138446   1.551   5.891  15.712  0.2480  0.8979  1.4028
 5677TIP3    H238447   1.626   5.770  15.764 -0.4530  0.2493  0.9280
 5678TIP3   OH238448   2.862   1.377   5.238  0.0800  0.3020  0.3593
 5678TIP3    H138449   2.804   1.418   5.173 -1.3960  0.4039  1.6673
 5678TIP3    H238450   2.829   1.287   5.246  0.2724  0.2750  0.9149
 5679TIP3   OH238451   0.437   3.211  13.133  0.0022  0.6551  1.5048
 5679TIP3    H138452   0.500   3.200  13.061 -0.7393  2.2386  0.5617
 5679TIP3    H238453   0.476   3.163  13.206  1.3741  0.0072  0.4117
 5680TIP3   OH238454   2.920   3.155  17.035 -0.1364 -0.6455  0.0720
 5680TIP3    H138455   2.833   3.190  17.054 -0.0751 -0.9313  0.9335
 5680TIP3    H238456   2.974   3.185  17.108  0.5938 -0.1245 -0.6691
 5681TIP3   OH238457   4.076   3.728  13.760 -0.1883 -0.0655 -1.0326
 5681TIP3    H138458   4.084   3.679  13.842 -2.0560  0.4522 -0.5124
 5681TIP3    H238459   4.166   3.755  13.740  0.3650 -0.5688  0.6145
 5682TIP3   OH238460   6.508   5.149   1.771  0.1203 -0.0843 -0.1430
 5682TIP3    H138461   6.436   5.133   1.710 -0.1515 -0.3532  0.2408
 5682TIP3    H238462   6.467   5.146   1.858  0.7715 -1.3103  0.1446
 5683TIP3   OH238463   4.761   6.023  13.014 -0.1576 -0.4368  0.4034
 5683TIP3    H138464   4.704   6.013  12.938  1.7864 -0.5883 -1.0960
 5683TIP3    H238465   4.830   6.083  12.985 -0.6207  1.4263  2.8188
 5684TIP3   OH238466   5.046   1.605  15.287 -0.1360 -0.7439 -1.1049
 5684TIP3    H138467   5.023   1.596  15.195  0.9261  0.2281 -1.4972
 5684TIP3    H238468   5.140   1.624  15.287 -0.1668 -0.4604  0.1621
 5685TIP3   OH238469   2.759   2.515   0.856 -0.3457  0.4007 -0.1697
 5685TIP3    H138470   2.853   2.536   0.851 -0.5671  1.1154 -1.8949
 5685TIP3    H238471   2.716   2.585   0.807 -1.7675 -0.1129  0.3027
 5686TIP3   OH238472   2.890   5.109  14.356 -0.1342  0.0968 -0.3056
 5686TIP3    H138473   2.922   5.199  14.351  1.7022 -0.2630  2.7404
 5686TIP3    H238474   2.868   5.096  14.448 -3.3983 -1.6865 -1.1796
 5687TIP3   OH238475   3.708   2.985  14.303  0.1949 -0.2619 -0.1056
 5687TIP3    H138476   3.658   3.066  14.292  0.0946 -0.4650 -1.2069
 5687TIP3    H238477   3.799   3.011  14.288  0.2544 -0.2022  0.3422
 5688TIP3   OH238478   1.106   5.599   1.179  0.0782  0.6430  0.4506
 5688TIP3    H138479   1.049   5.582   1.254  0.2194 -0.8180  0.2577
 5688TIP3    H238480   1.191   5.562   1.204 -0.0492 -0.4758 -0.6695
 5689TIP3   OH238481   6.602   2.589   0.740  0.2192  0.0358 -0.3562
 5689TIP3    H138482   6.646   2.514   0.700 -0.8271 -0.0481 -1.4014
 5689TIP3    H238483   6.615   2.661   0.679  2.7396  1.2632  1.4589
 5690TIP3   OH238484   1.586   4.216   4.152  0.2636  0.1655  0.0175
 5690TIP3    H138485   1.607   4.218   4.059  2.2054 -0.8725  0.3858
 5690TIP3    H238486   1.649   4.275   4.192 -1.6217  1.9312  0.5618
 5691TIP3   OH238487   1.803   0.937   0.741  0.1935  0.2811  0.2646
 5691TIP3    H138488   1.708   0.941   0.738  0.2169  0.5455 -0.2269
 5691TIP3    H238489   1.824   0.922   0.833 -0.3558 -0.6282  0.2530
 5692TIP3   OH238490   4.010   1.570  11.785  0.1314  0.1023  0.6410
 5692TIP3    H138491   4.003   1.625  11.863  0.9195  0.0769  0.7311
 5692TIP3    H238492   4.101   1.540  11.784 -0.2870 -1.2141  0.6009
 5693TIP3   OH238493   4.966   3.823   0.747  0.3004  0.1109  0.0094
 5693TIP3    H138494   5.012   3.742   0.726  0.1549  0.5649 -2.3819
 5693TIP3    H238495   4.873   3.802   0.736  0.3200  0.9764 -2.5568
 5694TIP3   OH238496   2.283   5.202   6.146  0.7627 -0.0749 -0.3211
 5694TIP3    H138497   2.251   5.134   6.205  0.6515  1.1019  1.0082
 5694TIP3    H238498   2.228   5.194   6.068 -0.8076 -0.0025  0.7498
 5695TIP3   OH238499   1.113   3.895  13.840 -0.0817  0.1425  0.5242
 5695TIP3    H138500   1.172   3.913  13.912 -1.6976  1.0247  1.7096
 5695TIP3    H238501   1.025   3.899  13.879 -1.0059  0.4370 -1.4351
 5696TIP3   OH238502   3.228   5.588   5.783 -0.3452  0.6065  0.0080
 5696TIP3    H138503   3.182   5.505   5.766  0.2595  0.2632  0.0178
 5696TIP3    H238504   3.182   5.652   5.729  0.7559 -0.2300 -2.0243
 5697TIP3   OH238505   4.503   5.591  15.423 -0.2135 -0.3506  0.3179
 5697TIP3    H138506   4.480   5.522  15.360  1.3584 -0.2458 -0.4324
 5697TIP3    H238507   4.581   5.632  15.385 -0.9148  1.6527  0.8988
 5698TIP3   OH238508   5.135   3.962   0.589  0.3840  0.2395  0.3757
 5698TIP3    H138509   5.222   3.923   0.597  0.8283  1.3269  1.1058
 5698TIP3    H238510   5.083   3.917   0.656  1.0325  1.2054  1.5758
 5699TIP3   OH238511   4.605   5.477  11.546 -0.1837 -0.1515 -0.7427
 5699TIP3    H138512   4.598   5.403  11.485  0.9763 -1.2486  0.4082
 5699TIP3    H238513   4.514   5.502  11.564 -0.5556 -0.1250 -2.5055
 5700TIP3   OH238514   4.442   4.990  13.783  0.6771  0.3198  0.1375
 5700TIP3    H138515   4.359   5.037  13.779 -0.0650 -1.0140 -1.1115
 5700TIP3    H238516   4.487   5.027  13.859 -1.0638  1.0397  0.8612
 5701TIP3   OH238517   3.555   5.542  16.661 -0.0308  0.2531 -0.0825
 5701TIP3    H138518   3.644   5.507  16.655 -0.0197  0.5049 -2.1892
 5701TIP3    H238519   3.498   5.468  16.641 -0.1415  0.6647 -1.3991
 5702TIP3   OH238520   0.691   0.959   1.359  0.1340  0.2359 -0.3004
 5702TIP3    H138521   0.700   1.041   1.408 -1.2411  0.4009 -0.2892
 5702TIP3    H238522   0.597   0.940   1.362  0.5030 -1.6954  0.2634
 5703TIP3   OH238523   5.687   2.502  12.683  0.1429 -0.4908 -0.0611
 5703TIP3    H138524   5.618   2.466  12.739 -0.4055 -1.0750 -1.0735
 5703TIP3    H238525   5.640   2.551  12.616  0.7963  0.3552  0.0836
 5704TIP3   OH238526   2.586   4.470   0.489  0.2509  0.3691 -0.2739
 5704TIP3    H138527   2.574   4.376   0.479  0.2449  0.4495 -1.0663
 5704TIP3    H238528   2.680   4.483   0.486  0.3877  0.1835  1.8677
 5705TIP3   OH238529   3.967   0.311   1.104  0.0666 -0.4875 -0.1512
 5705TIP3    H138530   3.891   0.289   1.050  0.0646 -1.2096  0.1345
 5705TIP3    H238531   4.035   0.251   1.075  0.3167 -0.3166  0.0763
 5706TIP3   OH238532   0.424   3.937   4.865  0.1164 -0.6917 -0.2874
 5706TIP3    H138533   0.399   4.029   4.864  0.0225 -0.7140 -0.1057
 5706TIP3    H238534   0.445   3.916   4.774  0.1304 -0.4934 -0.3288
 5707TIP3   OH238535   3.785   1.262  12.289  0.2296 -0.4140 -0.0837
 5707TIP3    H138536   3.880   1.250  12.284  0.4667  1.4272 -0.9944
 5707TIP3    H238537   3.769   1.346  12.245 -1.6920 -0.0821  1.1179
 5708TIP3   OH238538   2.683   2.604  14.682  0.6057  0.1075  0.3707
 5708TIP3    H138539   2.667   2.590  14.588  0.7461  2.5287 -0.0723
 5708TIP3    H238540   2.772   2.640  14.685  0.7828 -0.4021  1.5024
 5709TIP3   OH238541   4.499   6.075  11.760 -0.3093  0.3513  0.4203
 5709TIP3    H138542   4.580   6.116  11.729  0.2131 -0.2925  0.9014
 5709TIP3    H238543   4.509   6.070  11.855 -0.9484  0.3346  0.4918
 5710TIP3   OH238544   0.089   5.580  15.366  0.1342  0.1829 -0.4630
 5710TIP3    H138545   0.014   5.546  15.316  0.7073 -0.5350 -0.8536
 5710TIP3    H238546   0.158   5.592  15.300  1.0254 -1.1455  0.2050
 5711TIP3   OH238547   4.047   0.725   1.977 -0.4159 -0.1600  0.0935
 5711TIP3    H138548   4.047   0.791   1.907  0.2091 -0.0396  0.2067
 5711TIP3    H238549   4.022   0.644   1.932 -0.0396 -0.0801 -0.2672
 5712TIP3   OH238550   0.150   3.503  11.751  0.5703 -0.1637  0.1572
 5712TIP3    H138551   0.235   3.463  11.770 -0.3013 -1.6198  1.2468
 5712TIP3    H238552   0.127   3.550  11.831 -0.0723 -0.6137  0.2532
 5713TIP3   OH238553   4.377   0.966   4.955 -0.0897  0.6965  0.0051
 5713TIP3    H138554   4.440   0.989   4.887 -0.9803  0.7219 -0.8294
 5713TIP3    H238555   4.383   0.871   4.963 -0.5543  0.6045 -0.6866
 5714TIP3   OH238556   5.064   0.110   0.814 -0.2317 -0.2493 -0.3111
 5714TIP3    H138557   5.045   0.204   0.816  0.1885 -0.1325 -1.4077
 5714TIP3    H238558   5.158   0.105   0.795 -0.2212 -0.8942 -0.0986
 5715TIP3   OH238559   6.153   3.421  10.511  0.2135  0.3568 -0.7539
 5715TIP3    H138560   6.130   3.507  10.475  1.0264  0.9372  0.0765
 5715TIP3    H238561   6.200   3.378  10.440 -0.6137  0.3882 -1.3482
 5716TIP3   OH238562   1.027   1.477  13.078 -0.3636  0.2772  0.2652
 5716TIP3    H138563   1.016   1.464  13.172  0.6156  1.0902  0.5143
 5716TIP3    H238564   0.971   1.411  13.038  0.6249 -1.3370  1.4185
 5717TIP3   OH238565   1.555   4.923   0.030 -0.2977  0.4025  0.0126
 5717TIP3    H138566   1.580   4.858   0.095 -0.2615  0.6644  0.2595
 5717TIP3    H238567   1.465   4.898   0.006 -0.1949  0.1113 -0.0817
 5718TIP3   OH238568   1.705   6.361  14.047 -0.2987  0.1049 -0.4375
 5718TIP3    H138569   1.701   6.349  13.952  0.9769  1.7077 -0.7400
 5718TIP3    H238570   1.638   6.426  14.066 -0.2229  0.1444 -0.3047
 5719TIP3   OH238571   1.154   5.334   2.577 -0.0130  0.1526  0.2586
 5719TIP3    H138572   1.178   5.263   2.636  1.4883  1.1586  0.9159
 5719TIP3    H238573   1.227   5.338   2.514 -0.2511  0.8669  0.0212
 5720TIP3   OH238574   2.572   3.794  13.750 -0.6168 -0.1107 -0.6805
 5720TIP3    H138575   2.587   3.856  13.679  2.4655  0.6542  0.4907
 5720TIP3    H238576   2.589   3.708  13.710  1.9093  0.3691 -0.7689
 5721TIP3   OH238577   1.769   4.999   2.474 -0.2012  0.0614 -0.6255
 5721TIP3    H138578   1.753   5.076   2.529 -0.5619 -0.1142 -0.4895
 5721TIP3    H238579   1.704   4.935   2.501  1.0251 -0.8543  0.3003
 5722TIP3   OH238580   2.490   4.902  12.551 -0.1230 -0.2046  0.2286
 5722TIP3    H138581   2.474   4.991  12.580 -0.6145 -0.4309  0.6667
 5722TIP3    H238582   2.421   4.884  12.487 -0.3956 -0.4750  0.5931
 5723TIP3   OH238583   5.718   0.933  10.795  0.1030  0.2164  0.6346
 5723TIP3    H138584   5.685   0.885  10.871  0.3618  0.7568  1.0991
 5723TIP3    H238585   5.708   0.873  10.722  1.4609 -0.9981  1.3841
 5724TIP3   OH238586   1.286   6.647  12.810  0.1900  0.5022  0.2283
 5724TIP3    H138587   1.237   6.668  12.731  1.6216 -0.0432 -0.8344
 5724TIP3    H238588   1.299   6.732  12.853  1.5540  1.1828 -1.4282
 5725TIP3   OH238589   6.160   1.565   5.460  0.2608  0.5780  0.2142
 5725TIP3    H138590   6.114   1.608   5.388 -0.6093 -0.4488  0.1294
 5725TIP3    H238591   6.158   1.629   5.531  0.9357  1.5175 -0.5922
 5726TIP3   OH238592   5.978   0.809  13.899  0.5385 -0.6897  0.0261
 5726TIP3    H138593   5.973   0.724  13.942  1.2180 -0.3710  0.7631
 5726TIP3    H238594   6.068   0.816  13.868  0.3086 -0.5145 -0.6337
 5727TIP3   OH238595   0.617   3.709  10.776 -0.1553  0.0929 -0.5760
 5727TIP3    H138596   0.570   3.716  10.693 -0.8146 -0.3576 -0.2473
 5727TIP3    H238597   0.578   3.776  10.832 -2.2076 -1.8770  0.5267
 5728TIP3   OH238598   4.737   3.997   2.684  0.5187  0.2417 -0.3549
 5728TIP3    H138599   4.752   4.034   2.772  0.5752 -0.0837 -0.2251
 5728TIP3    H238600   4.798   4.044   2.628  1.2444 -0.2752 -0.0273
 5729TIP3   OH238601   0.061   5.214   3.732  0.2770  0.0649 -0.1996
 5729TIP3    H138602   0.149   5.184   3.755  1.5338  1.4719 -2.7728
 5729TIP3    H238603   0.007   5.135   3.736  1.9863 -1.1688 -0.1847
 5730TIP3   OH238604   6.088   1.199  14.446 -0.3901 -0.0729 -0.1234
 5730TIP3    H138605   6.116   1.161  14.362 -1.4242 -0.1364 -0.4501
 5730TIP3    H238606   6.138   1.150  14.511 -1.2624 -1.6239 -0.5721
 5731TIP3   OH238607   6.610   3.192  13.374 -0.7277 -0.0319 -0.2442
 5731TIP3    H138608   6.576   3.223  13.290 -0.2848 -0.7073 -0.6892
 5731TIP3    H238609   6.645   3.105  13.354 -0.1848  0.0006  0.5397
 5732TIP3   OH238610   0.074   0.052   2.700  0.3374  0.6522 -0.4138
 5732TIP3    H138611   0.063   0.057   2.605  0.1388  1.0437 -0.3720
 5732TIP3    H238612   0.069   0.143   2.730 -0.0272  0.4955  0.0172
 5733TIP3   OH238613   5.066   1.062   1.947  0.0886 -0.0825 -0.1967
 5733TIP3    H138614   5.000   1.014   1.996  0.8178 -0.0281  0.8756
 5733TIP3    H238615   5.068   1.148   1.988  1.2473 -0.2824  0.1931
 5734TIP3   OH238616   0.842   4.333   5.668  0.0068 -0.8598  0.3609
 5734TIP3    H138617   0.815   4.285   5.590  0.6284 -2.1428  0.9002
 5734TIP3    H238618   0.831   4.425   5.644  0.6255 -1.1898 -1.4188
 5735TIP3   OH238619   4.940   0.519  16.142 -0.0047 -0.1091  0.1621
 5735TIP3    H138620   4.977   0.434  16.166  0.5777  0.2907  0.7351
 5735TIP3    H238621   4.990   0.545  16.065  1.1091  0.5315  1.0659
 5736TIP3   OH238622   0.422   5.650  15.319 -0.0013 -0.7328  0.0857
 5736TIP3    H138623   0.457   5.737  15.339  3.1764 -1.5763 -1.1947
 5736TIP3    H238624   0.383   5.621  15.401  1.0100  0.9734  1.2542
 5737TIP3   OH238625   5.424   0.898  14.220  0.4664 -0.4974  1.0376
 5737TIP3    H138626   5.496   0.843  14.189  1.4709  1.5469 -0.5056
 5737TIP3    H238627   5.448   0.918  14.311  1.0402 -1.0916  1.0289
 5738TIP3   OH238628   3.501   4.277  13.152 -0.4408  0.3536  1.0115
 5738TIP3    H138629   3.442   4.337  13.107 -0.1719 -0.3019 -0.2824
 5738TIP3    H238630   3.448   4.238  13.222 -1.7473 -0.6140 -0.4407
 5739TIP3   OH238631   1.868   2.872   4.643  0.3505 -0.0676  0.1602
 5739TIP3    H138632   1.947   2.861   4.696 -0.2428  4.0359  2.3274
 5739TIP3    H238633   1.803   2.908   4.704 -2.6384 -1.3359 -1.9919
 5740TIP3   OH238634   2.159   0.054  10.898  0.8525  0.0438 -0.2318
 5740TIP3    H138635   2.204   0.046  10.982  1.9676  0.1391 -0.8066
 5740TIP3    H238636   2.228   0.049  10.833 -0.0479 -0.4499 -1.1744
 5741TIP3   OH238637   6.253   4.995   1.860  0.3705 -0.4816 -0.2001
 5741TIP3    H138638   6.177   4.942   1.885  0.9215 -1.6921 -0.9673
 5741TIP3    H238639   6.267   4.973   1.768  2.2259 -1.0328  0.1817
 5742TIP3   OH238640   0.464   5.336   4.184  0.6481 -0.1337  0.1349
 5742TIP3    H138641   0.430   5.392   4.254  0.7661  0.3467 -0.1859
 5742TIP3    H238642   0.427   5.250   4.202  0.0533  0.1626  0.3503
 5743TIP3   OH238643   1.160   5.784   6.229 -0.4260 -0.2718  0.5875
 5743TIP3    H138644   1.177   5.846   6.300  0.7062 -0.9359  0.9165
 5743TIP3    H238645   1.068   5.798   6.207  0.0603  2.3073 -0.1144
 5744TIP3   OH238646   6.614   1.501  13.054  0.1040 -0.4497  0.0552
 5744TIP3    H138647   6.647   1.590  13.069 -0.5313 -0.1178 -0.4538
 5744TIP3    H238648   6.689   1.444  13.072  0.5767  0.2019  0.1806
 5745TIP3   OH238649   0.282   6.240   0.183 -0.3373  0.3803  0.4597
 5745TIP3    H138650   0.345   6.170   0.167  0.1507  0.7256  0.8314
 5745TIP3    H238651   0.232   6.210   0.259 -1.5196 -0.4885 -0.6154
 5746TIP3   OH238652   4.152   2.837  17.170 -0.3952  0.7506 -0.1831
 5746TIP3    H138653   4.072   2.869  17.211 -0.2344  0.4575  0.3828
 5746TIP3    H238654   4.158   2.885  17.088 -0.9419  1.0619 -0.0500
 5747TIP3   OH238655   3.076   5.003   2.747 -0.1053  0.6036  0.2368
 5747TIP3    H138656   3.114   5.024   2.661 -1.7853  0.7450 -0.4954
 5747TIP3    H238657   3.151   4.972   2.798  0.7656 -0.5506 -1.6198
 5748TIP3   OH238658   2.811   2.508  11.401 -0.2673  0.4411  0.6324
 5748TIP3    H138659   2.842   2.432  11.352  0.4386 -0.6742  2.6662
 5748TIP3    H238660   2.786   2.473  11.487 -1.5993  2.2596  1.0553
 5749TIP3   OH238661   0.560   0.823  13.479 -0.0030 -0.2107  0.4404
 5749TIP3    H138662   0.493   0.773  13.432 -0.3791  2.2782 -1.8654
 5749TIP3    H238663   0.523   0.911  13.488  1.6106  0.3612  2.1897
 5750TIP3   OH238664   2.300   2.571  14.881 -0.2365  0.2693 -0.5450
 5750TIP3    H138665   2.311   2.612  14.967  0.2146 -1.2272  0.1465
 5750TIP3    H238666   2.359   2.621  14.823  2.0424 -0.7380  0.7467
 5751TIP3   OH238667   1.619   1.412   3.283  0.0261 -0.3257 -0.2219
 5751TIP3    H138668   1.711   1.397   3.305 -0.3204 -1.9270  0.2898
 5751TIP3    H238669   1.621   1.483   3.219  1.4840  0.7610  0.9564
 5752TIP3   OH238670   3.840   4.403   5.474 -0.6543 -0.2067 -0.4614
 5752TIP3    H138671   3.770   4.338   5.474 -0.2272 -0.6725 -0.3614
 5752TIP3    H238672   3.874   4.402   5.564  1.4362 -2.1508 -1.1613
 5753TIP3   OH238673   1.747   0.676  12.581  0.3528 -0.1676 -0.2222
 5753TIP3    H138674   1.709   0.603  12.531  1.2943 -1.2225  0.5385
 5753TIP3    H238675   1.766   0.743  12.515  0.1761 -0.9284 -1.0656
 5754TIP3   OH238676   3.727   4.241  16.794  0.2729 -0.0713 -0.1841
 5754TIP3    H138677   3.722   4.146  16.810  1.5940 -0.3499 -1.2389
 5754TIP3    H238678   3.671   4.255  16.718  0.4438 -0.0879 -0.3147
 5755TIP3   OH238679   6.266   1.657   2.753  0.3550  0.4274  0.2056
 5755TIP3    H138680   6.283   1.578   2.805  0.0063 -0.5152 -1.0658
 5755TIP3    H238681   6.316   1.726   2.798  3.0805 -1.0927 -0.2508
 5756TIP3   OH238682   6.790   2.937  13.651  0.0950  0.0053 -0.4430
 5756TIP3    H138683   6.758   3.020  13.616 -2.2411 -0.8211 -0.4096
 5756TIP3    H238684   6.712   2.891  13.680  1.5938 -0.8240  2.7230
 5757TIP3   OH238685   0.971   3.715   5.784 -0.4090  0.2994 -0.0102
 5757TIP3    H138686   1.064   3.714   5.808 -0.2671 -1.0460 -0.4882
 5757TIP3    H238687   0.928   3.761   5.856  0.5855  0.6319  0.3935
 5758TIP3   OH238688   3.411   3.016  17.112  0.0687  0.0470 -0.5810
 5758TIP3    H138689   3.375   2.963  17.183 -0.3244  1.9857  0.7654
 5758TIP3    H238690   3.361   2.990  17.034 -2.1737  0.4873  0.6299
 5759TIP3   OH238691   6.434   5.325  16.810  0.1416  0.1387  0.1130
 5759TIP3    H138692   6.453   5.271  16.887 -1.1283 -3.5342 -1.9441
 5759TIP3    H238693   6.340   5.342  16.816 -0.1821 -1.0684 -1.0695
 5760TIP3   OH238694   3.691   2.966   1.218  0.0694 -0.0921 -0.0094
 5760TIP3    H138695   3.637   2.912   1.160 -1.0730 -1.0395  1.8123
 5760TIP3    H238696   3.647   2.960   1.303  0.0775  3.4735  0.3833
 5761TIP3   OH238697   3.111   4.407   1.849 -0.4563  0.2070 -0.5499
 5761TIP3    H138698   3.132   4.458   1.928 -1.3944 -0.2344  0.0071
 5761TIP3    H238699   3.174   4.438   1.784 -0.7527  1.8142 -0.1316
 5762TIP3   OH238700   3.199   4.255   5.968  0.8897  0.6423  0.5094
 5762TIP3    H138701   3.156   4.329   5.926  1.2612  0.2898 -0.5245
 5762TIP3    H238702   3.128   4.196   5.994  0.6798  0.5958 -0.1552
 5763TIP3   OH238703   6.122   6.159  13.344  0.0795  0.0957 -0.2071
 5763TIP3    H138704   6.106   6.078  13.392  1.9657 -0.2296 -0.0159
 5763TIP3    H238705   6.174   6.212  13.405 -0.1578  0.9843 -0.7556
 5764TIP3   OH238706   3.454   1.893   2.869 -0.0520 -0.0264  0.0465
 5764TIP3    H138707   3.544   1.923   2.860 -0.2197 -0.0428 -1.9574
 5764TIP3    H238708   3.439   1.835   2.794 -1.6998 -0.1057  0.3798
 5765TIP3   OH238709   1.080   6.615  16.827  0.1907 -0.1154 -1.2085
 5765TIP3    H138710   1.083   6.519  16.838  0.2010  0.0903  1.4251
 5765TIP3    H238711   1.011   6.643  16.887 -1.2152  1.4312 -3.4220
 5766TIP3   OH238712   2.220   0.902   1.152  0.1076  0.0682 -0.1141
 5766TIP3    H138713   2.196   0.910   1.244  0.3553  0.7261 -0.1037
 5766TIP3    H238714   2.189   0.815   1.127 -1.0052  0.3392  0.2689
 5767TIP3   OH238715   6.252   1.257  11.609  0.1982 -0.3842  0.1911
 5767TIP3    H138716   6.273   1.331  11.667 -0.0593  0.1631 -0.4059
 5767TIP3    H238717   6.323   1.256  11.545 -0.2400 -0.1284 -0.3014
 5768TIP3   OH238718   1.486   1.945   2.897  0.3752 -0.4729  0.0618
 5768TIP3    H138719   1.452   2.026   2.934 -0.3924 -1.6901  2.2050
 5768TIP3    H238720   1.412   1.907   2.850 -0.3283 -1.5622  1.9892
 5769TIP3   OH238721   5.252   3.758  17.131 -0.0639 -0.0205 -0.0730
 5769TIP3    H138722   5.337   3.797  17.153 -0.6309  1.2185  0.0099
 5769TIP3    H238723   5.199   3.831  17.100 -1.3401 -0.6271  0.5782
 5770TIP3   OH238724   2.842   4.619  16.665  0.0410 -0.4431  0.5401
 5770TIP3    H138725   2.900   4.685  16.703 -0.3497  0.9941 -1.1797
 5770TIP3    H238726   2.902   4.554  16.627  0.4435 -0.7922  1.7427
 5771TIP3   OH238727   1.337   5.767  14.199 -0.7111  0.5767 -0.6168
 5771TIP3    H138728   1.306   5.857  14.198 -2.7581 -0.0182  1.0530
 5771TIP3    H238729   1.367   5.752  14.289  0.4413 -0.1578 -1.1005
 5772TIP3   OH238730   0.012   1.270   0.933  0.6892 -0.7196 -0.1080
 5772TIP3    H138731   0.093   1.311   0.900  0.2126  0.1372 -0.2317
 5772TIP3    H238732   0.040   1.183   0.962  1.3593 -1.0712 -1.6783
 5773TIP3   OH238733   6.297   1.187   4.903 -0.6442 -0.0865 -0.1641
 5773TIP3    H138734   6.353   1.109   4.897 -0.1043 -0.0980  2.9806
 5773TIP3    H238735   6.211   1.153   4.929 -1.4869  0.1386 -2.4938
 5774TIP3   OH238736   0.580   1.100  10.747 -0.6182  0.1512 -0.1766
 5774TIP3    H138737   0.493   1.137  10.760 -0.9027 -1.3021  3.1343
 5774TIP3    H238738   0.629   1.169  10.702 -2.7206  2.1545  0.4167
 5775TIP3   OH238739   3.881   5.194  12.170 -0.6727 -0.5888  0.2962
 5775TIP3    H138740   3.885   5.245  12.089 -0.4393 -0.6316  0.2824
 5775TIP3    H238741   3.971   5.168  12.187 -0.8983 -1.6877 -0.1310
 5776TIP3   OH238742   0.317   6.563   2.942 -0.2434 -0.0464 -0.4358
 5776TIP3    H138743   0.280   6.556   3.030  0.3063 -0.4162 -0.2315
 5776TIP3    H238744   0.340   6.473   2.918  1.2016  0.2676 -0.2692
 5777TIP3   OH238745   0.398   1.356  14.752 -0.2707  0.2249  0.6342
 5777TIP3    H138746   0.364   1.267  14.755  1.1149 -0.3108  1.2858
 5777TIP3    H238747   0.328   1.410  14.788 -1.3301 -0.5183 -0.2645
 5778TIP3   OH238748   3.052   1.281   4.969 -0.2097 -0.1602 -0.0586
 5778TIP3    H138749   3.036   1.219   5.040 -2.1249 -0.7893 -0.9762
 5778TIP3    H238750   3.086   1.359   5.013  1.0452 -1.3875  1.2591
 5779TIP3   OH238751   3.185   2.307   3.474  0.4494 -0.7256  0.1935
 5779TIP3    H138752   3.271   2.343   3.496  0.5535 -0.9792  0.2035
 5779TIP3    H238753   3.197   2.212   3.477  0.4947 -0.7747 -1.0376
 5780TIP3   OH238754   3.205   6.553  11.714  0.1268 -0.1279  0.7762
 5780TIP3    H138755   3.174   6.605  11.640  1.6280 -0.2060  0.0451
 5780TIP3    H238756   3.129   6.545  11.772 -0.3402  2.3051  0.6057
 5781TIP3   OH238757   6.677   5.749   3.473 -0.5329  0.6864  0.0116
 5781TIP3    H138758   6.658   5.657   3.452  1.1994  0.7728 -2.3225
 5781TIP3    H238759   6.745   5.744   3.540 -0.5389  0.2816 -0.0079
 5782TIP3   OH238760   2.522   3.419   0.815  0.4333 -0.0366  0.1266
 5782TIP3    H138761   2.515   3.458   0.727  2.0319  3.5750  1.4070
 5782TIP3    H238762   2.432   3.424   0.849  0.2841  1.1994 -0.3595
 5783TIP3   OH238763   2.731   3.382  13.319 -0.1110 -0.3702  0.0416
 5783TIP3    H138764   2.678   3.387  13.398  0.0344 -1.4557  0.2200
 5783TIP3    H238765   2.770   3.295  13.321  0.9412  0.0670 -0.5626
 5784TIP3   OH238766   5.021   4.599   1.018 -0.3019 -0.1150 -0.0091
 5784TIP3    H138767   4.931   4.632   1.025 -0.2469 -0.0261  0.3238
 5784TIP3    H238768   5.052   4.595   1.109  0.1343  0.1504 -0.1402
 5785TIP3   OH238769   4.397   3.677  12.439 -0.1539 -0.1259 -0.0477
 5785TIP3    H138770   4.427   3.675  12.530  0.2585  0.4144 -0.1645
 5785TIP3    H238771   4.478   3.677  12.388 -0.3563  0.7302 -0.3853
 5786TIP3   OH238772   3.819   2.392   5.192 -0.3661  0.1302 -0.2618
 5786TIP3    H138773   3.841   2.299   5.191 -0.6459  0.0586  0.0067
 5786TIP3    H238774   3.901   2.437   5.172 -0.2760 -0.1818 -0.5909
 5787TIP3   OH238775   1.318   6.725  13.682 -0.1784  0.0452 -0.0798
 5787TIP3    H138776   1.327   6.685  13.769  2.5230  0.4910 -0.0424
 5787TIP3    H238777   1.288   6.814  13.700 -3.1729 -0.8822  0.0514
 5788TIP3   OH238778   3.591   0.484  13.843  0.2669  0.6104 -0.2076
 5788TIP3    H138779   3.564   0.574  13.826  1.4494  1.0561  0.1254
 5788TIP3    H238780   3.610   0.448  13.756  3.0255  1.7998 -0.2254
 5789TIP3   OH238781   1.354   0.714  13.315  0.5398 -0.0460 -0.2162
 5789TIP3    H138782   1.373   0.807  13.302 -0.6277  0.3554  0.8350
 5789TIP3    H238783   1.259   0.708  13.317  0.5921 -1.3127 -0.5224
 5790TIP3   OH238784   0.757   3.904   5.870  0.1411 -0.0336 -0.3493
 5790TIP3    H138785   0.772   3.869   5.958 -0.2431 -1.4578 -0.8252
 5790TIP3    H238786   0.779   3.997   5.877  2.0881 -0.5214  0.7530
 5791TIP3   OH238787   5.675   0.464   4.509  0.2512 -0.9154  0.1335
 5791TIP3    H138788   5.745   0.467   4.574 -1.2124  1.7696  1.7623
 5791TIP3    H238789   5.690   0.541   4.454 -0.8968 -0.8211 -0.0622
 5792TIP3   OH238790   0.439   6.541   2.311  0.2349  0.2538  0.8255
 5792TIP3    H138791   0.524   6.567   2.346  0.0974  0.5849  0.9156
 5792TIP3    H238792   0.456   6.521   2.219  0.5826 -0.5408  1.0501
 5793TIP3   OH238793   0.888   4.134  13.219 -0.2852 -0.2498 -0.5351
 5793TIP3    H138794   0.870   4.154  13.311 -1.2968  1.7983 -1.1229
 5793TIP3    H238795   0.870   4.040  13.211  0.0391 -0.5234  1.3745
 5794TIP3   OH238796   5.090   6.319  15.825  0.3103  0.7149  0.3718
 5794TIP3    H138797   5.122   6.242  15.777 -0.5939  0.6194 -0.0987
 5794TIP3    H238798   5.078   6.386  15.758 -1.1881  0.5132  0.4041
 5795TIP3   OH238799   4.250   1.742  14.345  0.2498 -0.6251  0.1542
 5795TIP3    H138800   4.173   1.711  14.298  0.7282  1.2494 -2.1274
 5795TIP3    H238801   4.257   1.686  14.422 -4.1707  0.0013  1.2745
 5796TIP3   OH238802   1.984   6.504  14.516 -0.6424  0.2613  0.2597
 5796TIP3    H138803   1.921   6.535  14.581 -0.9242  0.4155 -0.0862
 5796TIP3    H238804   1.937   6.436  14.468 -0.5711  0.4213 -0.0415
 5797TIP3   OH238805   2.044   3.924  14.496  0.1536 -0.6968  0.1982
 5797TIP3    H138806   2.020   3.959  14.410  0.6175  0.6142  0.5757
 5797TIP3    H238807   1.962   3.889  14.530 -0.5152  0.6530  0.0590
 5798TIP3   OH238808   4.917   4.173   5.401  0.2031  0.0094  0.0431
 5798TIP3    H138809   4.827   4.151   5.427  0.9192 -2.8077  0.4124
 5798TIP3    H238810   4.966   4.174   5.483  0.7155  0.6412 -0.2594
 5799TIP3   OH238811   4.918   2.025  14.503  0.0803  0.1463 -0.3893
 5799TIP3    H138812   4.888   2.003  14.415 -1.7018  0.9560 -0.0198
 5799TIP3    H238813   4.975   1.952  14.527 -1.9489 -1.7499 -0.9917
 5800TIP3   OH238814   3.287   5.970   5.447  0.3553 -0.6608 -0.2276
 5800TIP3    H138815   3.328   5.912   5.383  0.1315  0.6897 -1.6605
 5800TIP3    H238816   3.350   6.042   5.458 -0.5382  0.1991 -0.5984
 5801TIP3   OH238817   1.054   4.664  15.289  0.1289 -0.5588  0.6188
 5801TIP3    H138818   1.001   4.697  15.361 -1.9419 -1.5663 -0.3538
 5801TIP3    H238819   1.136   4.714  15.293 -0.6016  0.5481  2.6191
 5802TIP3   OH238820   6.267   1.624  11.288 -0.1253  0.0751 -0.3458
 5802TIP3    H138821   6.252   1.674  11.208  1.1677  0.7014 -0.2237
 5802TIP3    H238822   6.344   1.570  11.269  0.2138  0.2530  0.4853
 5803TIP3   OH238823   0.692   6.490  17.168  0.4428  0.2138 -0.0892
 5803TIP3    H138824   0.661   6.404  17.197 -0.4733  0.6419  0.2317
 5803TIP3    H238825   0.784   6.493  17.196  0.1503 -0.1889  0.9498
 5804TIP3   OH238826   6.554   0.813   3.475 -0.0975 -0.1815 -0.4973
 5804TIP3    H138827   6.589   0.777   3.394 -2.1146 -1.1092 -1.0056
 5804TIP3    H238828   6.532   0.736   3.528 -1.1570  0.3682 -0.1131
 5805TIP3   OH238829   4.229   5.588  17.138  0.5037 -0.1924 -0.2407
 5805TIP3    H138830   4.234   5.672  17.183  0.8197 -0.6511  0.5894
 5805TIP3    H238831   4.250   5.609  17.047  0.2031  0.6841 -0.1118
 5806TIP3   OH238832   5.404   0.772  13.215 -0.1907 -0.4186  0.4239
 5806TIP3    H138833   5.467   0.841  13.196  0.6401 -0.8060  1.6495
 5806TIP3    H238834   5.456   0.702  13.255 -1.3353 -0.8839  1.1444
 5807TIP3   OH238835   2.531   4.002   1.277  0.6400  0.4895 -0.6072
 5807TIP3    H138836   2.518   3.913   1.311  2.3746  0.1125 -0.8294
 5807TIP3    H238837   2.447   4.027   1.239 -0.8800  0.2245  2.3257
 5808TIP3   OH238838   5.762   4.641  16.026  0.2387  0.3030 -0.1339
 5808TIP3    H138839   5.764   4.626  15.931  0.2788  0.4533 -0.1580
 5808TIP3    H238840   5.779   4.554  16.064  0.6302  0.3142 -0.2710
 5809TIP3   OH238841   5.319   2.394  16.272 -0.0884  0.2539  1.0754
 5809TIP3    H138842   5.229   2.407  16.302 -1.5051 -2.6697 -1.3618
 5809TIP3    H238843   5.328   2.299  16.264  1.6891  0.5497 -2.8382
 5810TIP3   OH238844   1.376   2.065   5.364  0.4611 -0.2699  0.1289
 5810TIP3    H138845   1.440   2.049   5.434 -0.5689 -0.5986  1.0219
 5810TIP3    H238846   1.340   2.151   5.383  0.9323  0.0969 -0.6164
 5811TIP3   OH238847   6.201   6.103   5.755 -0.0274 -0.1999 -0.5588
 5811TIP3    H138848   6.241   6.075   5.837 -0.4948  2.5596  0.7351
 5811TIP3    H238849   6.107   6.097   5.771 -0.2040 -2.3503 -1.9864
 5812TIP3   OH238850   5.779   2.097  17.118 -0.1916  0.1743  0.3580
 5812TIP3    H138851   5.709   2.049  17.163 -0.7736  0.8731  0.2078
 5812TIP3    H238852   5.858   2.046  17.137  0.2982  2.1610  5.1972
 5813TIP3   OH238853   1.657   1.042   2.255  0.0932 -0.0454 -0.1421
 5813TIP3    H138854   1.713   1.080   2.188 -0.5102  1.9646  0.4316
 5813TIP3    H238855   1.611   0.971   2.211 -0.3212  1.2615 -1.8922
 5814TIP3   OH238856   6.173   3.346  15.313 -0.4026 -0.4252 -0.2981
 5814TIP3    H138857   6.125   3.392  15.245  1.9190  0.3678 -1.5038
 5814TIP3    H238858   6.170   3.406  15.388  2.1188  1.6599 -1.6758
 5815TIP3   OH238859   2.241   2.417   5.105  0.0367 -0.0048  0.8547
 5815TIP3    H138860   2.331   2.388   5.093  0.0926  0.8825 -1.6036
 5815TIP3    H238861   2.195   2.341   5.141  1.2631 -1.3392 -0.2752
 5816TIP3   OH238862   2.994   3.122   0.100  0.4416  0.1237  0.3802
 5816TIP3    H138863   3.075   3.076   0.121  0.6650 -0.0308 -0.7704
 5816TIP3    H238864   3.021   3.193   0.043 -0.1721  0.3950  0.4210
 5817TIP3   OH238865   1.161   0.508  12.700  0.5773 -0.3471  0.4815
 5817TIP3    H138866   1.173   0.448  12.774 -0.5646  0.5791  1.4609
 5817TIP3    H238867   1.157   0.450  12.623 -0.8173 -1.5739  1.4186
 5818TIP3   OH238868   3.233   1.148   3.180 -0.2697 -0.1468 -0.0560
 5818TIP3    H138869   3.179   1.122   3.255 -1.0364  1.6264  0.0538
 5818TIP3    H238870   3.223   1.243   3.175  1.1397 -0.0345 -1.3753
 5819TIP3   OH238871   0.050   1.601   0.939  0.0164 -0.1337 -0.2927
 5819TIP3    H138872   0.004   1.682   0.918  1.0410  0.0573 -1.9410
 5819TIP3    H238873  -0.014   1.550   0.990 -1.1602  1.0765 -0.4987
 5820TIP3   OH238874   1.396   2.378  11.769  0.0833  0.0487  0.2833
 5820TIP3    H138875   1.423   2.461  11.730 -0.8458  0.2584  0.0579
 5820TIP3    H238876   1.302   2.372  11.750 -0.0104 -0.7055  0.9216
 5821TIP3   OH238877   1.757   5.104   3.721 -0.2802 -0.8432  0.1460
 5821TIP3    H138878   1.783   5.155   3.645  0.1136 -2.1229 -0.6062
 5821TIP3    H238879   1.704   5.164   3.774 -0.3376  0.1369 -0.9962
 5822TIP3   OH238880   0.853   4.411   1.410  0.3527 -1.0479  0.6290
 5822TIP3    H138881   0.833   4.353   1.484  0.0251 -0.2565  1.1772
 5822TIP3    H238882   0.910   4.478   1.447 -1.8095  0.7993  0.8028
 5823TIP3   OH238883   5.479   1.636  13.605  0.4348 -0.2072 -0.1622
 5823TIP3    H138884   5.469   1.592  13.521 -0.7001  0.1507 -0.2313
 5823TIP3    H238885   5.415   1.707  13.603 -1.7042 -1.8845  2.0959
 5824TIP3   OH238886   4.028   1.408   3.240  0.0958  0.3301 -0.2526
 5824TIP3    H138887   4.072   1.475   3.187  1.3525 -0.6152 -0.4410
 5824TIP3    H238888   4.053   1.325   3.201  0.5674 -0.3699  1.4219
 5825TIP3   OH238889   6.149   0.280   0.339  0.3967 -0.5972 -0.0577
 5825TIP3    H138890   6.112   0.250   0.256 -2.4024 -2.6802  1.7345
 5825TIP3    H238891   6.074   0.281   0.399  2.1024  1.7766  2.2396
 5826TIP3   OH238892   5.851   6.241   4.670  0.5510 -0.3919 -0.1435
 5826TIP3    H138893   5.797   6.209   4.598  0.0462  0.3281 -0.0958
 5826TIP3    H238894   5.890   6.322   4.637 -1.6718  1.3444  1.1966
 5827TIP3   OH238895   1.526   2.205  16.009  0.5302  0.2844  0.0442
 5827TIP3    H138896   1.551   2.279  15.954 -1.8304 -0.1791 -1.7951
 5827TIP3    H238897   1.454   2.237  16.062  1.0035 -0.0661  0.9235
 5828TIP3   OH238898   1.385   6.578   5.037  0.0760 -0.1680  0.8304
 5828TIP3    H138899   1.317   6.642   5.059 -0.3054 -0.3654  0.2625
 5828TIP3    H238900   1.457   6.630   5.002  0.0435  0.0088  1.0256
 5829TIP3   OH238901   3.615   3.483   3.329 -0.0173  0.4635  0.1648
 5829TIP3    H138902   3.596   3.550   3.264  0.8542  0.4255 -0.1415
 5829TIP3    H238903   3.703   3.452   3.307  0.2221  0.3179  1.2443
 5830TIP3   OH238904   0.049   4.739  11.076  0.3766 -0.5480 -0.4271
 5830TIP3    H138905   0.135   4.718  11.039 -0.4772 -1.7858 -1.7943
 5830TIP3    H238906  -0.014   4.697  11.017 -1.1210 -1.1859  1.5037
 5831TIP3   OH238907   0.190   6.368   2.337 -0.1454 -0.5771 -0.0740
 5831TIP3    H138908   0.285   6.367   2.335 -0.1491 -1.9542 -1.7319
 5831TIP3    H238909   0.168   6.440   2.396  1.9023 -0.4826  0.6408
 5832TIP3   OH238910   6.174   0.204  12.356  0.3568 -0.1968 -0.0961
 5832TIP3    H138911   6.165   0.282  12.302  0.6970 -1.2586 -1.7710
 5832TIP3    H238912   6.108   0.214  12.425  0.3317  1.4933 -0.3359
 5833TIP3   OH238913   3.056   3.369  14.018 -0.4804  0.0992 -0.3448
 5833TIP3    H138914   3.054   3.424  14.096  1.0937  0.8928 -0.8148
 5833TIP3    H238915   3.072   3.280  14.051 -1.4062  0.1648  0.3175
 5834TIP3   OH238916   0.264   3.895   4.110 -0.3239  0.4193 -0.2743
 5834TIP3    H138917   0.311   3.835   4.168  0.0884  0.5303 -0.4848
 5834TIP3    H238918   0.322   3.905   4.035 -1.1654 -0.2574 -1.0271
 5835TIP3   OH238919   3.088   5.086  11.007  0.8863  0.5392  0.2094
 5835TIP3    H138920   3.028   5.067  11.079 -0.8114 -0.4108 -1.3638
 5835TIP3    H238921   3.149   5.013  11.007  0.0133 -0.2177 -0.1496
 5836TIP3   OH238922   1.202   0.482  15.317 -0.2082 -0.0636  0.1470
 5836TIP3    H138923   1.194   0.388  15.333 -1.3706 -0.3140 -1.5994
 5836TIP3    H238924   1.112   0.512  15.299  0.4463  0.7686 -2.1654
 5837TIP3   OH238925   0.324   6.374   0.643 -0.0683 -0.2096 -0.2814
 5837TIP3    H138926   0.415   6.402   0.653  0.1373 -0.2391 -1.8562
 5837TIP3    H238927   0.275   6.433   0.700  0.9742 -0.6195  1.1222
 5838TIP3   OH238928   3.340   6.759   2.417 -0.3713 -0.5508 -0.1692
 5838TIP3    H138929   3.379   6.823   2.357 -0.1287 -0.6502 -0.1201
 5838TIP3    H238930   3.360   6.793   2.504 -1.2175 -0.1089 -0.1420
 5839TIP3   OH238931   3.333   0.635  11.015  0.1696 -0.1453 -0.1323
 5839TIP3    H138932   3.255   0.631  11.071 -0.8412 -0.3347 -1.5014
 5839TIP3    H238933   3.383   0.708  11.050 -1.1422  0.6567  0.1574
 5840TIP3   OH238934   1.390   4.846   5.286 -0.1986  0.4475  0.1593
 5840TIP3    H138935   1.481   4.815   5.282 -0.3489  0.0878 -1.3182
 5840TIP3    H238936   1.393   4.933   5.246 -0.6614 -0.0378 -0.9745
 5841TIP3   OH238937   6.655   5.248   2.711 -0.3078 -0.1861 -0.3542
 5841TIP3    H138938   6.581   5.306   2.694  1.0348  1.5963 -0.3443
 5841TIP3    H238939   6.723   5.276   2.649  0.1032 -2.3748 -0.9990
 5842TIP3   OH238940   5.271   4.240   5.569 -0.0645  0.3254  0.3479
 5842TIP3    H138941   5.295   4.155   5.533  0.2325  0.3929  0.3826
 5842TIP3    H238942   5.178   4.249   5.550  0.3367  0.9133 -1.5817
 5843TIP3   OH238943   4.018   1.046  16.742 -0.2322 -0.0114  0.6997
 5843TIP3    H138944   3.952   1.067  16.676  1.4624  1.7329 -0.5565
 5843TIP3    H238945   4.034   0.952  16.731 -0.2514  0.1656 -1.1448
 5844TIP3   OH238946   0.091   2.156   2.220  0.3662  0.3170 -0.4030
 5844TIP3    H138947   0.085   2.081   2.160  1.4865 -1.1070  1.1528
 5844TIP3    H238948   0.181   2.187   2.210  0.9579 -0.6995  1.3111
 5845TIP3   OH238949   4.200   2.484  10.855  0.1463  0.1863 -0.0761
 5845TIP3    H138950   4.253   2.543  10.909 -0.4868 -0.1227  0.9151
 5845TIP3    H238951   4.134   2.541  10.814 -1.5706  0.0155  2.2422
 5846TIP3   OH238952   4.631   6.123   1.755 -0.3312  0.0480  0.0909
 5846TIP3    H138953   4.568   6.140   1.826 -0.0937 -1.1165  0.5990
 5846TIP3    H238954   4.607   6.037   1.722 -0.3370  0.5150 -1.1608
 5847TIP3   OH238955   5.143   3.627  16.912  0.1287 -0.2040  0.0639
 5847TIP3    H138956   5.194   3.658  16.988 -1.0946  0.1381  0.7685
 5847TIP3    H238957   5.070   3.688  16.906  0.0621 -0.3920 -1.2487
 5848TIP3   OH238958   4.339   6.476   0.141  1.2394 -0.5339 -0.0366
 5848TIP3    H138959   4.338   6.463   0.046  1.4179 -0.9213  0.0142
 5848TIP3    H238960   4.414   6.533   0.157  0.2591  0.8842 -0.2955
 5849TIP3   OH238961   5.169   5.282  15.794  0.4525 -0.1034  0.0142
 5849TIP3    H138962   5.129   5.362  15.761 -1.3378 -0.9167  0.1464
 5849TIP3    H238963   5.132   5.212  15.740  2.0454 -0.8777 -0.1582
 5850TIP3   OH238964   5.028   1.327   2.588 -0.0532 -0.0113 -0.3293
 5850TIP3    H138965   4.958   1.307   2.526  0.2249 -1.2937 -0.2602
 5850TIP3    H238966   5.091   1.378   2.537  0.2246 -1.1512 -1.1751
 5851TIP3   OH238967   5.640   1.050   3.746 -0.3419  0.4474  0.1561
 5851TIP3    H138968   5.702   1.022   3.679 -0.4062 -1.0738  0.6975
 5851TIP3    H238969   5.630   0.974   3.803 -1.7364  1.0772  0.8050
 5852TIP3   OH238970   0.132   3.747  16.912 -0.1386 -0.4658 -0.1796
 5852TIP3    H138971   0.156   3.740  17.005 -0.7989 -1.9747 -0.0988
 5852TIP3    H238972   0.215   3.767  16.868  0.0048  1.3519  0.8230
 5853TIP3   OH238973   5.696   5.786  11.542 -0.3541  0.6183 -0.4272
 5853TIP3    H138974   5.744   5.703  11.551  0.1515  0.8480 -0.9748
 5853TIP3    H238975   5.763   5.853  11.542 -0.4140  0.8058 -3.5878
 5854TIP3   OH238976   6.748   4.961  12.721  0.1755 -0.5789  0.3706
 5854TIP3    H138977   6.707   4.898  12.780 -0.4857 -0.7981 -0.3116
 5854TIP3    H238978   6.693   5.039  12.727  1.5558  0.3417  1.9888
 5855TIP3   OH238979   6.537   1.021  14.274 -0.5670 -0.2953 -0.3124
 5855TIP3    H138980   6.492   1.105  14.273  1.0424  0.5958 -1.0560
 5855TIP3    H238981   6.586   1.018  14.192  1.0317 -1.0300  0.6210
 5856TIP3   OH238982   6.459   3.278  15.243 -0.6231  0.6690  0.3807
 5856TIP3    H138983   6.523   3.295  15.311 -0.7134 -1.7104  1.1521
 5856TIP3    H238984   6.387   3.338  15.263 -0.1395  0.8636  1.6469
 5857TIP3   OH238985   3.494   0.510  16.010 -0.7139  0.2852 -0.3305
 5857TIP3    H138986   3.510   0.534  15.919 -0.3071  1.3443 -0.0022
 5857TIP3    H238987   3.406   0.541  16.029 -0.5672  0.6246 -0.1922
 5858TIP3   OH238988   1.181   6.542  12.110  1.1281  0.0110 -0.0820
 5858TIP3    H138989   1.101   6.581  12.075  1.4258 -1.2510 -2.3685
 5858TIP3    H238990   1.244   6.548  12.039  1.1639 -4.6218 -0.7979
 5859TIP3   OH238991   1.975   6.018  14.584  0.0379  0.2407 -0.0959
 5859TIP3    H138992   1.912   5.964  14.537  1.5524 -1.6319 -0.0640
 5859TIP3    H238993   1.940   6.107  14.577 -2.6720 -0.7204  0.0511
 5860TIP3   OH238994   0.152   6.123   0.368 -0.3837 -0.2965 -0.6298
 5860TIP3    H138995   0.112   6.038   0.348  1.3504 -1.3463  0.1785
 5860TIP3    H238996   0.155   6.127   0.463 -2.1574  1.5573 -0.5879
 5861TIP3   OH238997   5.824   3.601   5.303  0.1340  0.1138 -0.1870
 5861TIP3    H138998   5.831   3.636   5.392 -3.1248  1.2495 -0.2433
 5861TIP3    H238999   5.829   3.678   5.246 -2.0368 -0.0253 -0.6536
 5862TIP3   OH239000   1.325   1.490  15.070 -0.3589 -0.1596 -0.1752
 5862TIP3    H139001   1.381   1.530  15.137 -0.8764 -1.1919  0.9153
 5862TIP3    H239002   1.370   1.508  14.987 -1.3797  4.0969 -0.0355
 5863TIP3   OH239003   3.161   2.343   4.525  0.3535  0.0990 -0.2664
 5863TIP3    H139004   3.176   2.432   4.492 -0.1678 -0.2495 -1.4930
 5863TIP3    H239005   3.196   2.345   4.615 -0.6732  1.8572  0.1532
 5864TIP3   OH239006   2.955   3.921  12.009 -0.1440 -0.3014 -0.4503
 5864TIP3    H139007   2.995   3.987  11.952  1.0163  0.1297  0.8039
 5864TIP3    H239008   3.028   3.887  12.061 -0.9742 -1.5260 -0.0426
 5865TIP3   OH239009   5.353   3.776  14.205  0.5234  0.0126  0.8468
 5865TIP3    H139010   5.319   3.849  14.152 -0.6271 -0.5214  0.8191
 5865TIP3    H239011   5.433   3.750  14.160 -0.0958 -0.0097 -0.2846
 5866TIP3   OH239012   0.704   4.020  16.184 -0.7188  0.7574 -0.0040
 5866TIP3    H139013   0.625   3.985  16.143 -0.8059 -0.3969  1.0774
 5866TIP3    H239014   0.753   4.060  16.113 -0.5786 -1.6515 -1.3741
 5867TIP3   OH239015   3.230   6.439   5.440  0.4193  0.2204  0.4031
 5867TIP3    H139016   3.236   6.375   5.369 -2.2116 -0.4172  0.6584
 5867TIP3    H239017   3.316   6.436   5.482  1.3119 -0.9935 -1.3907
 5868TIP3   OH239018   4.436   5.219  13.148  0.4793 -0.1442  0.0130
 5868TIP3    H139019   4.364   5.172  13.191 -1.0297  1.6878 -0.3935
 5868TIP3    H239020   4.497   5.239  13.218 -0.3472 -0.0653  0.7306
 5869TIP3   OH239021   4.244   3.231  14.575  0.0635  0.2047 -0.6570
 5869TIP3    H139022   4.239   3.279  14.657 -0.4888  0.2324 -0.7018
 5869TIP3    H239023   4.305   3.159  14.592  1.0975  1.0496 -0.6582
 5870TIP3   OH239024   4.777   5.889  16.218  0.1213  0.3564  0.3515
 5870TIP3    H139025   4.744   5.858  16.134 -1.4790  3.9044 -0.5338
 5870TIP3    H239026   4.708   5.867  16.281 -0.0864  0.3511  0.1219
 5871TIP3   OH239027   3.993   4.242  13.288 -0.0480  0.2513 -0.4734
 5871TIP3    H139028   3.977   4.334  13.270  0.5324  0.2585 -0.9643
 5871TIP3    H239029   3.932   4.195  13.231  0.1830  0.3185 -0.7763
 5872TIP3   OH239030   5.649   6.734   2.606  0.1541 -0.4982  0.4172
 5872TIP3    H139031   5.668   6.668   2.540 -0.7301  0.9694 -1.4404
 5872TIP3    H239032   5.555   6.753   2.594  0.3252  0.8878  1.0126
 5873TIP3   OH239033   2.767   1.658  11.176 -0.3292  0.2331 -0.3914
 5873TIP3    H139034   2.795   1.575  11.139  2.4436  1.9331 -2.5253
 5873TIP3    H239035   2.744   1.712  11.100 -1.5046  1.6261  0.8841
 5874TIP3   OH239036   4.853   3.837   5.869 -0.2700  0.0770 -0.1520
 5874TIP3    H139037   4.947   3.833   5.850 -0.4030  1.8548 -1.5187
 5874TIP3    H239038   4.848   3.887   5.950 -0.0636  2.4772 -1.5189
 5875TIP3   OH239039   0.433   1.494  11.512  0.3786  0.1451 -0.7037
 5875TIP3    H139040   0.516   1.541  11.502 -0.0809  1.6679  1.7616
 5875TIP3    H239041   0.366   1.562  11.506 -0.3882 -0.2834  1.7696
 5876TIP3   OH239042   3.178   1.754   3.397  0.4326  0.0546 -0.6785
 5876TIP3    H139043   3.118   1.694   3.440 -0.5818  1.3220 -0.2455
 5876TIP3    H239044   3.263   1.710   3.399 -0.3720 -1.5817 -0.8833
 5877TIP3   OH239045   3.181   3.507  14.730 -0.5574 -0.1276 -0.5477
 5877TIP3    H139046   3.217   3.562  14.660  2.8705  1.3817  2.0783
 5877TIP3    H239047   3.139   3.569  14.790 -1.4265 -1.0953 -0.1333
 5878TIP3   OH239048   2.244   4.911  14.207 -0.7502 -0.3603  0.0980
 5878TIP3    H139049   2.243   4.971  14.134  0.0035 -1.0575 -0.5007
 5878TIP3    H239050   2.172   4.850  14.189 -0.3599 -0.7291 -0.2465
 5879TIP3   OH239051   3.663   1.975   1.686  0.1169  0.1601 -0.0413
 5879TIP3    H139052   3.623   1.907   1.633 -1.5683  0.6463  0.5647
 5879TIP3    H239053   3.669   2.051   1.627 -2.2427  0.8644  0.5562
 5880TIP3   OH239054   5.002   1.788   3.814 -0.5612  0.0585  0.4593
 5880TIP3    H139055   4.911   1.781   3.842 -0.4509  2.3742  1.6344
 5880TIP3    H239056   5.000   1.847   3.738  0.0979  2.3029  2.0526
 5881TIP3   OH239057   0.244   4.621  14.519 -0.5279 -0.4913  0.1224
 5881TIP3    H139058   0.293   4.703  14.527 -1.5300  0.0439  1.2242
 5881TIP3    H239059   0.248   4.599  14.426  2.5128 -0.9696  0.2636
 5882TIP3   OH239060   3.157   1.358   6.144 -0.0809 -0.2257  0.1390
 5882TIP3    H139061   3.214   1.325   6.213  0.6961  0.5327 -0.1222
 5882TIP3    H239062   3.128   1.444   6.175  0.0773  0.0149 -0.3611
 5883TIP3   OH239063   4.055   0.534   5.853 -0.3802  0.4327  0.4625
 5883TIP3    H139064   4.019   0.573   5.773 -4.0419  0.8904  2.1528
 5883TIP3    H239065   4.034   0.597   5.922  2.2061 -0.1934  1.9656
 5884TIP3   OH239066   5.411   1.285  16.416  0.0755 -0.3336  0.2955
 5884TIP3    H139067   5.470   1.343  16.464  0.9821 -1.1901  0.2561
 5884TIP3    H239068   5.426   1.199  16.456 -3.2640 -0.1603  2.2917
 5885TIP3   OH239069   1.709   1.208  12.057 -0.0850 -0.0368  0.2475
 5885TIP3    H139070   1.730   1.130  12.006  0.8470  1.4950 -1.8949
 5885TIP3    H239071   1.780   1.269  12.036 -2.0527  2.2596 -0.2053
 5886TIP3   OH239072   3.131   1.126  12.737 -0.1693  0.7489  0.2044
 5886TIP3    H139073   3.080   1.125  12.818  0.5407  0.9855  0.6656
 5886TIP3    H239074   3.090   1.194  12.683  0.2019  1.5624  0.9297
 5887TIP3   OH239075   4.376   6.010   2.397  0.2430  0.1830 -0.3982
 5887TIP3    H139076   4.375   5.938   2.460 -0.4037  0.4643 -0.0885
 5887TIP3    H239077   4.299   5.995   2.342 -0.1968  0.9381  0.0046
 5888TIP3   OH239078   3.182   6.133  12.206 -0.0689  0.2626  0.5360
 5888TIP3    H139079   3.262   6.157  12.252 -0.1687  0.3809  0.6501
 5888TIP3    H239080   3.204   6.053  12.159  0.1541  0.3675  0.4623
 5889TIP3   OH239081   5.778   2.732   2.593 -0.2557 -0.7320 -0.4166
 5889TIP3    H139082   5.763   2.686   2.675 -1.9502  0.8324  0.2160
 5889TIP3    H239083   5.826   2.669   2.539 -1.4108 -2.7719  0.7984
 5890TIP3   OH239084   1.755   2.406  15.505 -0.0860 -0.1947 -0.5746
 5890TIP3    H139085   1.754   2.484  15.560  1.4449 -0.3863 -0.2486
 5890TIP3    H239086   1.666   2.402  15.468 -0.7548  0.6459  0.8585
 5891TIP3   OH239087   5.111   2.241   2.081  0.9868 -0.1158 -0.4697
 5891TIP3    H139088   5.061   2.204   2.008  1.4310 -1.0426 -0.3271
 5891TIP3    H239089   5.195   2.196   2.077  1.1668  0.1242  0.3671
 5892TIP3   OH239090   2.008   0.353  16.702  0.1371  0.0226 -0.3269
 5892TIP3    H139091   1.965   0.336  16.786 -0.3480 -0.3678 -0.6465
 5892TIP3    H239092   1.972   0.286  16.643  0.9430 -0.1031 -0.6870
 5893TIP3   OH239093   5.418   4.591   1.965  0.4459 -0.2036  0.3834
 5893TIP3    H139094   5.489   4.558   1.911 -0.6316  1.6338 -2.3874
 5893TIP3    H239095   5.441   4.683   1.981 -0.6175  0.0332  0.6333
 5894TIP3   OH239096   5.237   5.771  14.487 -0.0032 -0.2351 -0.3812
 5894TIP3    H139097   5.219   5.863  14.506 -2.1097 -0.5992 -0.4240
 5894TIP3    H239098   5.311   5.774  14.426 -0.8830  1.5100 -1.4434
 5895TIP3   OH239099   4.326   1.853   5.703  0.6932  0.1295  0.5003
 5895TIP3    H139100   4.286   1.939   5.712  1.1807  0.3272  0.8235
 5895TIP3    H239101   4.255   1.796   5.673  0.3017  0.5800  0.5688
 5896TIP3   OH239102   1.304   0.792   5.182 -0.2140  0.4964 -0.0855
 5896TIP3    H139103   1.240   0.751   5.240 -1.4824 -0.6455 -2.1656
 5896TIP3    H239104   1.317   0.880   5.217 -1.6275  0.1598  1.3592
 5897TIP3   OH239105   1.798   4.039  11.100 -0.2685  0.0855 -0.2694
 5897TIP3    H139106   1.736   4.023  11.028  0.2249  0.6071 -0.8245
 5897TIP3    H239107   1.851   3.960  11.105 -0.8361 -0.2800  0.0675
 5898TIP3   OH239108   3.491   6.237  16.433 -0.7592  0.7938  0.1461
 5898TIP3    H139109   3.515   6.285  16.354  0.4508  1.2158  0.7463
 5898TIP3    H239110   3.477   6.305  16.499  1.2973  0.3661  1.0932
 5899TIP3   OH239111   2.450   6.008  13.749 -0.2982 -0.1550  0.5555
 5899TIP3    H139112   2.408   6.093  13.732  0.9608  0.3981  0.0469
 5899TIP3    H239113   2.475   5.976  13.662  1.2351  0.0306  0.9035
 5900TIP3   OH239114   4.133   3.462   6.122  0.3840 -0.1764 -0.6061
 5900TIP3    H139115   4.223   3.482   6.148  0.1598  1.0521 -0.7058
 5900TIP3    H239116   4.135   3.370   6.096  1.0653 -0.8960  1.7575
 5901TIP3   OH239117   2.178   3.223   5.264  0.6798 -0.2476 -0.2116
 5901TIP3    H139118   2.222   3.265   5.338  0.2686 -1.0082  0.4738
 5901TIP3    H239119   2.151   3.297   5.208 -0.2391  0.4593  1.0906
 5902TIP3   OH239120   5.178   6.037   1.357  0.0474  0.4662 -0.2960
 5902TIP3    H139121   5.158   5.983   1.433 -0.9845  1.2778  0.0279
 5902TIP3    H239122   5.198   6.123   1.394  0.8322  0.5375 -0.8652
 5903TIP3   OH239123   3.778   3.342   2.979  0.1185 -0.5421 -0.1237
 5903TIP3    H139124   3.779   3.420   3.034 -1.4315 -1.4006  1.2220
 5903TIP3    H239125   3.855   3.291   3.007 -0.2899 -0.6625  0.8189
 5904TIP3   OH239126   1.463   2.406  11.088 -0.3279  0.6437 -0.0516
 5904TIP3    H139127   1.495   2.332  11.035  1.1237  0.4246  1.0576
 5904TIP3    H239128   1.525   2.476  11.068 -0.1386  0.7435  0.8776
 5905TIP3   OH239129   6.291   2.367  14.690  0.1410  0.2341  0.5261
 5905TIP3    H139130   6.330   2.370  14.602  0.3898 -0.9560  0.5818
 5905TIP3    H239131   6.212   2.315  14.679 -1.2504  2.2511  0.5110
 5906TIP3   OH239132   5.340   5.159  11.747  0.2826  0.4904 -0.0083
 5906TIP3    H139133   5.390   5.142  11.667  1.4227  1.5917  0.4280
 5906TIP3    H239134   5.329   5.254  11.748 -0.2794  0.4237  0.8118
 5907TIP3   OH239135   6.496   5.406  15.743  0.3759  0.2116  0.3457
 5907TIP3    H139136   6.546   5.486  15.729 -0.5275  0.4993 -1.6582
 5907TIP3    H239137   6.562   5.337  15.748  1.0697  0.4989 -2.8494
 5908TIP3   OH239138   3.191   3.926  15.591  0.0788 -0.6219  0.0065
 5908TIP3    H139139   3.272   3.930  15.641  0.4019 -0.8435 -0.4934
 5908TIP3    H239140   3.147   3.847  15.624  0.9709 -1.5961 -1.0618
 5909TIP3   OH239141   5.989   2.984  12.568 -0.3623 -0.0866  0.2307
 5909TIP3    H139142   5.988   3.075  12.598  0.3562  0.1642 -0.4888
 5909TIP3    H239143   6.000   2.990  12.473 -0.6877 -0.9190  0.1336
 5910TIP3   OH239144   4.178   5.888  10.789 -0.5891  0.0502  0.1949
 5910TIP3    H139145   4.191   5.982  10.800 -1.2768  0.3472 -1.2944
 5910TIP3    H239146   4.246   5.861  10.727 -0.6153 -0.3663  0.3454
 5911TIP3   OH239147   5.991   0.268  12.819  0.2566 -0.4026 -0.2969
 5911TIP3    H139148   6.049   0.276  12.894 -0.3004 -2.9180  0.4893
 5911TIP3    H239149   5.912   0.317  12.844  0.2860 -0.7740  0.5513
 5912TIP3   OH239150   5.319   3.039  12.220  0.4194  0.1612 -0.4581
 5912TIP3    H139151   5.230   3.054  12.188 -0.3210 -0.0795  1.3862
 5912TIP3    H239152   5.311   3.040  12.316  2.5560  1.0730 -0.2224
 5913TIP3   OH239153   2.586   5.948   6.089  0.1212 -0.0483  0.0028
 5913TIP3    H139154   2.513   5.948   6.027 -0.9986  0.9160  1.2573
 5913TIP3    H239155   2.641   5.875   6.061 -0.5581  0.0906 -1.8435
 5914TIP3   OH239156   0.312   1.883  14.947  0.0873  0.2060  0.1874
 5914TIP3    H139157   0.305   1.954  14.883  0.4396 -0.3225 -0.4465
 5914TIP3    H239158   0.363   1.920  15.019  2.8606 -0.2448 -1.4064
 5915TIP3   OH239159   4.216   2.540  16.345 -0.1538 -0.3461 -0.6196
 5915TIP3    H139160   4.274   2.610  16.377 -0.0900  0.2081 -1.8990
 5915TIP3    H239161   4.275   2.467  16.328  0.0682 -0.0592 -1.1154
 5916TIP3   OH239162   5.784   1.892   3.318  0.7075  0.1394 -0.2547
 5916TIP3    H139163   5.765   1.982   3.344 -0.4558  0.0525 -0.7185
 5916TIP3    H239164   5.750   1.885   3.229 -0.0633 -0.9978  0.0974
 5917TIP3   OH239165   4.986   1.169   5.529  0.1812 -0.6014 -0.2815
 5917TIP3    H139166   4.898   1.165   5.492 -0.3299  0.6198  0.6985
 5917TIP3    H239167   5.014   1.078   5.535 -1.3694 -1.0806  0.1860
 5918TIP3   OH239168   5.133   1.316  11.875 -0.6955 -0.1161  0.2074
 5918TIP3    H139169   5.044   1.326  11.908 -0.8171 -0.4116 -0.0313
 5918TIP3    H239170   5.126   1.252  11.804 -0.3923  0.3033 -0.2110
 5919TIP3   OH239171   5.008   2.251  14.364 -0.3123  0.0222  0.7114
 5919TIP3    H139172   5.101   2.233  14.352  0.0039  1.4202  0.8947
 5919TIP3    H239173   4.976   2.179  14.418  1.2859  0.9209  2.9843
 5920TIP3   OH239174   0.412   2.806  16.746 -0.0734 -0.0698 -0.0950
 5920TIP3    H139175   0.425   2.807  16.651 -1.0763 -2.2877 -0.3052
 5920TIP3    H239176   0.404   2.714  16.769  1.0268  0.3352  2.3168
 5921TIP3   OH239177   6.636   0.251   1.566 -0.2751  0.0074  0.8562
 5921TIP3    H139178   6.581   0.174   1.552  0.1022  0.1370 -1.8503
 5921TIP3    H239179   6.726   0.218   1.556 -0.0856  0.6765  0.3091
 5922TIP3   OH239180   6.403   2.700  15.802  0.0488 -0.1147 -0.6074
 5922TIP3    H139181   6.452   2.782  15.794  0.6092 -0.5213 -1.6341
 5922TIP3    H239182   6.366   2.685  15.715 -0.6559 -0.5876 -0.2400
 5923TIP3   OH239183   5.158   3.383   1.196 -0.0775  0.5994 -0.3539
 5923TIP3    H139184   5.214   3.320   1.241  0.2190  1.0643 -0.0673
 5923TIP3    H239185   5.211   3.463   1.190 -0.6207  0.9695 -0.2895
 5924TIP3   OH239186   5.057   4.472  17.147 -0.0505 -0.1928 -0.0283
 5924TIP3    H139187   4.983   4.526  17.173 -0.4987 -0.0359 -1.5139
 5924TIP3    H239188   5.055   4.396  17.205 -0.8376  0.2357  0.5107
 5925TIP3   OH239189   3.888   0.733  17.039  0.2705  0.3010 -0.1236
 5925TIP3    H139190   3.845   0.680  17.106  1.6378 -0.3628  0.2726
 5925TIP3    H239191   3.892   0.677  16.962 -0.8587  0.8884 -0.6313
 5926TIP3   OH239192   5.041   1.778   2.432 -0.5802 -0.0944 -0.2297
 5926TIP3    H139193   5.045   1.798   2.338  1.2097  2.0015  0.2053
 5926TIP3    H239194   4.949   1.789   2.455 -1.1967 -1.4442 -1.8619
 5927TIP3   OH239195   4.542   4.224  15.510  0.4515  0.2773  0.4066
 5927TIP3    H139196   4.490   4.292  15.467 -0.8826 -0.7492  0.3097
 5927TIP3    H239197   4.552   4.155  15.444  1.7779  0.3561  0.4998
 5928TIP3   OH239198   1.341   3.124  12.779 -0.1696  0.0449 -0.2493
 5928TIP3    H139199   1.370   3.045  12.731 -0.0904  0.2560 -0.5507
 5928TIP3    H239200   1.276   3.091  12.842 -0.8963 -0.1158 -1.0695
 5929TIP3   OH239201   3.420   6.324  14.017  0.4368  0.4101  0.0962
 5929TIP3    H139202   3.454   6.266  14.085  0.0075 -0.6299 -0.5618
 5929TIP3    H239203   3.328   6.336  14.040  0.6055  1.1214  0.4231
 5930TIP3   OH239204   0.910   0.834  13.757  0.0880 -0.9900  0.4562
 5930TIP3    H139205   0.825   0.878  13.763 -0.3699 -1.7485 -0.2714
 5930TIP3    H239206   0.894   0.759  13.700  2.0391  0.7791 -2.6507
 5931TIP3   OH239207   4.446   6.130  16.414 -0.0049  0.5554  0.4685
 5931TIP3    H139208   4.525   6.158  16.367 -0.0477 -0.1744 -0.0573
 5931TIP3    H239209   4.406   6.065  16.356 -0.2280 -0.1348  1.3740
 5932TIP3   OH239210   5.655   2.317  11.347 -0.3549  0.2984 -0.3548
 5932TIP3    H139211   5.735   2.332  11.296  0.0821 -1.4596 -0.2404
 5932TIP3    H239212   5.686   2.279  11.429 -1.3538 -1.2730 -0.6837
 5933TIP3   OH239213   6.264   6.475   6.401  0.2634 -0.0925  0.1417
 5933TIP3    H139214   6.214   6.446   6.324 -0.5560  1.3660  0.0969
 5933TIP3    H239215   6.245   6.409   6.468  1.6703 -1.8642 -1.1078
 5934TIP3   OH239216   3.988   5.723  13.636 -0.5420 -0.1766 -0.7349
 5934TIP3    H139217   3.899   5.690  13.626 -0.4855 -2.2321  3.5469
 5934TIP3    H239218   3.990   5.765  13.722  2.9132 -1.6707  0.1140
 5935TIP3   OH239219   6.303   3.718   0.866  0.8012 -0.2170 -0.0831
 5935TIP3    H139220   6.377   3.720   0.928  1.0659 -0.9706 -0.3577
 5935TIP3    H239221   6.315   3.637   0.818 -1.0047 -1.0860  0.8249
 5936TIP3   OH239222   0.201   3.019  11.228  0.2365 -0.0797 -0.0905
 5936TIP3    H139223   0.140   3.003  11.299 -0.2064 -0.6316 -0.5911
 5936TIP3    H239224   0.281   2.974  11.255  1.1105  2.2206  1.4653
 5937TIP3   OH239225   6.354   4.792  12.860  0.2155 -0.2186 -0.0587
 5937TIP3    H139226   6.330   4.873  12.904  1.4409 -0.2553  0.7320
 5937TIP3    H239227   6.375   4.819  12.770  0.6766  0.3597  0.2161
 5938TIP3   OH239228   3.083   1.567  13.522 -0.1811  0.2885 -0.1003
 5938TIP3    H139229   3.009   1.620  13.492  1.7158  5.0830  2.5491
 5938TIP3    H239230   3.063   1.547  13.614  1.2604  0.6156  0.3012
 5939TIP3   OH239231   3.757   2.581  16.073  0.0757 -0.5234  0.1675
 5939TIP3    H139232   3.759   2.677  16.069  0.2046 -0.5586 -2.0393
 5939TIP3    H239233   3.846   2.557  16.097  0.6302 -0.0876 -1.3196
 5940TIP3   OH239234   1.462   5.824   0.557 -0.8207  0.2931 -0.8396
 5940TIP3    H139235   1.510   5.753   0.516 -0.1836  1.6773 -2.6129
 5940TIP3    H239236   1.468   5.806   0.651  3.2736  0.3647 -0.8967
 5941TIP3   OH239237   1.060   6.389  13.335  0.3002 -0.1046  0.1108
 5941TIP3    H139238   1.070   6.479  13.367  0.0872  0.0361 -0.2097
 5941TIP3    H239239   1.069   6.397  13.240 -0.2119 -0.3510  0.0402
 5942TIP3   OH239240   0.174   6.449   4.769  0.6428 -0.3775 -0.2808
 5942TIP3    H139241   0.102   6.494   4.811  0.7116 -0.7639  0.2596
 5942TIP3    H239242   0.137   6.413   4.688  0.0948 -1.0265  0.2513
 5943TIP3   OH239243   3.698   0.082   5.635 -0.1954  0.1374 -0.3897
 5943TIP3    H139244   3.772   0.022   5.620 -0.2309  0.1949 -0.8045
 5943TIP3    H239245   3.671   0.109   5.547 -1.9445 -1.3654 -0.3714
 5944TIP3   OH239246   1.238   1.783   6.018  0.0198  0.3515 -0.0145
 5944TIP3    H139247   1.259   1.812   5.929 -2.0111  1.5239 -0.1714
 5944TIP3    H239248   1.176   1.711   6.007  1.4895 -1.0536  0.4673
 5945TIP3   OH239249   4.159   2.603   3.992 -0.0395  0.1153  0.1347
 5945TIP3    H139250   4.122   2.525   3.951  0.3817 -0.0483  0.0594
 5945TIP3    H239251   4.135   2.595   4.085 -1.7238  0.9159 -0.1954
 5946TIP3   OH239252   6.472   5.176  12.006 -0.1207 -0.5904  0.1535
 5946TIP3    H139253   6.402   5.136  12.058 -0.2411 -0.4686  0.0836
 5946TIP3    H239254   6.516   5.236  12.067 -1.1490  0.6207 -0.2681
 5947TIP3   OH239255   1.386   6.736  16.106 -0.5831  0.1560  0.2426
 5947TIP3    H139256   1.334   6.672  16.056 -0.5800  1.7310 -1.9222
 5947TIP3    H239257   1.335   6.752  16.185 -1.7462 -0.7476 -0.2910
 5948TIP3   OH239258   6.167   4.437   2.843  0.4407 -0.0141  0.5233
 5948TIP3    H139259   6.169   4.446   2.938  0.7222  0.2313  0.4969
 5948TIP3    H239260   6.172   4.527   2.810 -2.1353  0.1413  0.2963
 5949TIP3   OH239261   1.791   0.381   4.812  0.1486 -0.1081 -0.0983
 5949TIP3    H139262   1.780   0.350   4.901  0.2082 -0.8683 -0.3478
 5949TIP3    H239263   1.878   0.419   4.810  0.2101 -0.2369  0.1314
 5950TIP3   OH239264   6.385   0.759  16.764  0.3387  0.2074  0.0808
 5950TIP3    H139265   6.462   0.783  16.713 -0.2468 -2.0947 -2.0582
 5950TIP3    H239266   6.315   0.752  16.700 -0.9891 -0.5596  1.5537
 5951TIP3   OH239267   3.084   4.027   3.660 -0.0509 -0.3689  0.2238
 5951TIP3    H139268   2.993   3.996   3.660 -0.5849  1.0665 -0.7500
 5951TIP3    H239269   3.108   4.034   3.752 -2.1500  2.4926  0.6744
 5952TIP3   OH239270   4.805   3.914   4.584  0.4250 -0.4785 -0.3092
 5952TIP3    H139271   4.822   3.990   4.640  0.7817 -1.3876  0.8636
 5952TIP3    H239272   4.892   3.887   4.555  0.2751 -0.2844 -0.9535
 5953TIP3   OH239273   2.090   2.363  11.446 -0.7018 -0.3311  0.0212
 5953TIP3    H139274   2.052   2.397  11.364 -2.3092 -1.0794  0.3975
 5953TIP3    H239275   2.030   2.393  11.514 -0.8442 -1.8611  0.6172
 5954TIP3   OH239276   5.455   5.721   3.665 -0.2446  0.9142  0.2178
 5954TIP3    H139277   5.477   5.802   3.710 -0.0770  1.1876 -0.3432
 5954TIP3    H239278   5.402   5.672   3.728  2.6863 -0.2014  1.9807
 5955TIP3   OH239279   1.819   4.271  11.734  0.1372  0.1040 -0.0904
 5955TIP3    H139280   1.795   4.314  11.652  1.7274 -2.3730 -2.0156
 5955TIP3    H239281   1.885   4.206  11.708  1.5429 -0.0462  3.3487
 5956TIP3   OH239282   6.544   5.054  14.037 -0.6583  0.0313 -0.3758
 5956TIP3    H139283   6.635   5.034  14.013 -0.8440  0.5567 -1.5686
 5956TIP3    H239284   6.507   4.969  14.059  0.0530 -0.2235 -0.1139
 5957TIP3   OH239285   2.391   3.496  14.906 -0.6471 -0.1765 -0.3877
 5957TIP3    H139286   2.306   3.540  14.912 -0.5942 -0.0604 -0.4800
 5957TIP3    H239287   2.374   3.420  14.851 -0.5735  0.1492 -0.8738
 5958TIP3   OH239288   1.445   4.922   3.241 -0.1106 -0.2126 -0.2240
 5958TIP3    H139289   1.493   4.842   3.222 -1.4374 -1.6577  2.0787
 5958TIP3    H239290   1.469   4.944   3.331  1.0759  2.6977 -1.1290
 5959TIP3   OH239291   0.649   2.447  11.919  0.3608  0.2226  0.2601
 5959TIP3    H139292   0.614   2.531  11.949 -0.6222 -0.1577  0.1992
 5959TIP3    H239293   0.574   2.402  11.880  0.7789 -0.8749  0.6921
 5960TIP3   OH239294   5.847   1.727  14.528  0.5865 -0.2555 -0.4426
 5960TIP3    H139295   5.901   1.695  14.456 -0.5966  0.0412 -1.5004
 5960TIP3    H239296   5.807   1.807  14.494 -0.4988 -0.4614  0.3089
 5961TIP3   OH239297   5.023   0.584  15.302 -0.4369 -0.0323 -0.3705
 5961TIP3    H139298   4.979   0.641  15.239 -0.2957  1.5931  0.9432
 5961TIP3    H239299   5.065   0.517  15.248 -0.9619  0.8477 -1.9398
 5962TIP3   OH239300   6.037   6.540  16.001  0.4164 -0.2343  0.6943
 5962TIP3    H139301   6.066   6.630  15.987  2.5630 -0.8778  0.6610
 5962TIP3    H239302   5.969   6.525  15.935 -0.2465  1.4553  0.9580
 5963TIP3   OH239303   5.439   6.660  12.646 -0.5029 -0.1957 -0.0632
 5963TIP3    H139304   5.504   6.689  12.581 -0.4799  0.5554  0.2797
 5963TIP3    H239305   5.424   6.568  12.626  0.4267 -0.2943 -0.3633
 5964TIP3   OH239306   1.172   4.246   3.333  0.1442 -0.1928 -0.4491
 5964TIP3    H139307   1.113   4.205   3.269 -0.1455  0.6332 -0.7227
 5964TIP3    H239308   1.260   4.229   3.299  0.0968 -1.6748  0.1068
 5965TIP3   OH239309   1.855   5.980   3.270 -0.2160 -0.3319 -0.7510
 5965TIP3    H139310   1.929   5.934   3.233  0.4932  1.1893 -1.2932
 5965TIP3    H239311   1.818   6.030   3.198  0.0191  1.1785  0.1215
 5966TIP3   OH239312   3.283   1.872  15.880 -0.7574  0.1415 -0.3128
 5966TIP3    H139313   3.313   1.787  15.847 -0.2330  0.5964 -1.0403
 5966TIP3    H239314   3.354   1.903  15.936  1.7499  2.5639 -4.2979
 5967TIP3   OH239315   4.502   2.567   2.383 -0.0301  0.6403 -0.3686
 5967TIP3    H139316   4.570   2.572   2.316  1.2309  0.7955  0.8783
 5967TIP3    H239317   4.539   2.509   2.451  0.2616  3.1934  1.8294
 5968TIP3   OH239318   3.607   0.473   1.445 -0.0061  0.1526  0.1056
 5968TIP3    H139319   3.607   0.537   1.515 -2.1793 -0.8514  1.1065
 5968TIP3    H239320   3.696   0.437   1.446  0.4139  1.1532  1.4023
 5969TIP3   OH239321   3.319   4.256   4.096  0.7606 -0.4276  0.6866
 5969TIP3    H139322   3.310   4.327   4.159  0.2503  0.7440 -0.6297
 5969TIP3    H239323   3.388   4.286   4.036 -0.9065  0.0087 -1.1432
 5970TIP3   OH239324   5.120   4.348   0.908  0.6505 -0.4906 -0.4283
 5970TIP3    H139325   5.090   4.294   0.981 -0.1330  0.5311  0.0333
 5970TIP3    H239326   5.113   4.438   0.940 -0.2362  0.0093 -1.9278
 5971TIP3   OH239327   3.723   0.782   0.267 -0.2681 -0.5410  0.3210
 5971TIP3    H139328   3.762   0.862   0.232 -1.5570 -0.7128 -1.6490
 5971TIP3    H239329   3.782   0.755   0.337  1.9236  0.3705 -1.0892
 5972TIP3   OH239330   3.217   5.734  15.106  0.1386  0.3900 -0.2001
 5972TIP3    H139331   3.124   5.732  15.130  0.3922  1.1342  0.9375
 5972TIP3    H239332   3.217   5.735  15.010 -0.9903 -0.4864 -0.2308
 5973TIP3   OH239333   5.311   1.225  10.689 -0.1039  0.5327 -0.1251
 5973TIP3    H139334   5.368   1.217  10.765  0.1049  0.5854 -0.2752
 5973TIP3    H239335   5.355   1.288  10.632  0.5981 -0.7626 -1.0563
 5974TIP3   OH239336   6.026   2.197   0.161 -0.0078 -0.4149 -0.4392
 5974TIP3    H139337   6.056   2.230   0.245  1.0845 -0.8141 -0.6598
 5974TIP3    H239338   6.034   2.272   0.102  1.8484 -0.8473 -0.7908
 5975TIP3   OH239339   0.969   1.410   5.272 -0.7266 -0.3878  0.4454
 5975TIP3    H139340   0.903   1.479   5.279  0.4040  0.8664 -0.8092
 5975TIP3    H239341   0.918   1.329   5.271 -2.2103  0.5120  0.0997
 5976TIP3   OH239342   2.887   0.825   1.658 -0.2269 -0.1781  0.9473
 5976TIP3    H139343   2.968   0.778   1.639  0.1168  1.0956 -0.9758
 5976TIP3    H239344   2.914   0.896   1.717  0.0979  0.2905  0.2496
 5977TIP3   OH239345   1.681   5.602   0.534  0.2351  0.0701 -0.1304
 5977TIP3    H139346   1.650   5.545   0.463  0.2537  0.4193 -0.4216
 5977TIP3    H239347   1.764   5.563   0.561  0.0476 -0.2768 -0.0496
 5978TIP3   OH239348   2.322   4.364   2.052  0.5146  0.6209 -0.5958
 5978TIP3    H139349   2.288   4.390   2.137  1.0176 -0.1146 -0.1573
 5978TIP3    H239350   2.403   4.414   2.041  0.5853  0.5207 -0.5282
 5979TIP3   OH239351   0.532   3.783  12.966  0.6854  0.0652 -0.6159
 5979TIP3    H139352   0.517   3.818  12.878 -1.6774 -0.6656 -0.5652
 5979TIP3    H239353   0.518   3.689  12.957 -1.4495  0.1749  0.8426
 5980TIP3   OH239354   3.812   2.086   5.167 -0.2627  0.2832  0.6336
 5980TIP3    H139355   3.763   2.017   5.122 -1.5255  1.1352  0.6801
 5980TIP3    H239356   3.790   2.076   5.259 -1.5362  1.5570  0.5048
 5981TIP3   OH239357   5.358   3.889  15.431  0.4742 -0.4842 -0.2870
 5981TIP3    H139358   5.398   3.956  15.376 -0.6774  0.4348 -0.0320
 5981TIP3    H239359   5.423   3.818  15.433  1.6092  0.5113 -0.7557
 5982TIP3   OH239360   5.525   6.498  15.277  0.1634  0.3190 -0.2128
 5982TIP3    H139361   5.510   6.584  15.316  1.3566  0.6752 -0.4909
 5982TIP3    H239362   5.572   6.449  15.344 -0.1919 -0.0004 -0.1944
 5983TIP3   OH239363   1.945   2.481   4.023 -0.1977  0.5852 -0.2883
 5983TIP3    H139364   2.024   2.487   4.077  0.1972  1.2907 -0.9199
 5983TIP3    H239365   1.915   2.572   4.014 -0.1937  0.4959 -1.3288
 5984TIP3   OH239366   5.356   2.715  14.058  0.7642 -0.1234 -0.4235
 5984TIP3    H139367   5.425   2.779  14.077  0.3599 -0.1029  1.1368
 5984TIP3    H239368   5.276   2.767  14.052  0.5696 -0.3781 -0.0684
 5985TIP3   OH239369   2.076   2.598   0.950  0.0400 -0.4782 -0.2478
 5985TIP3    H139370   2.152   2.652   0.973 -1.1978  1.0690  0.3630
 5985TIP3    H239371   2.111   2.531   0.891  1.6887  0.8235 -0.8159
 5986TIP3   OH239372   4.160   6.233   1.328  0.0810 -0.1291  0.9423
 5986TIP3    H139373   4.236   6.286   1.351 -2.4151  3.3381  2.0460
 5986TIP3    H239374   4.150   6.172   1.402  1.9081 -0.9425  0.5776
 5987TIP3   OH239375   5.285   1.171  12.344 -0.5393 -0.1744  0.0735
 5987TIP3    H139376   5.287   1.191  12.250 -2.6334 -0.5525 -0.0966
 5987TIP3    H239377   5.376   1.153  12.366 -0.1726 -1.6399 -2.2287
 5988TIP3   OH239378   5.729   2.250   3.992 -0.3053  0.0969  0.2765
 5988TIP3    H139379   5.634   2.261   3.997 -0.1556  1.5083  0.5745
 5988TIP3    H239380   5.744   2.161   4.024 -1.5687 -0.4066 -0.4413
 5989TIP3   OH239381   4.782   1.600   0.894  0.0344 -0.5373  0.0257
 5989TIP3    H139382   4.840   1.619   0.967  0.4880  0.5453 -0.5937
 5989TIP3    H239383   4.735   1.681   0.878 -0.9052 -1.1036 -0.1511
 5990TIP3   OH239384   0.732   0.644  11.486 -1.1217  0.1097  0.0577
 5990TIP3    H139385   0.759   0.655  11.577 -2.8938  0.3625  0.5827
 5990TIP3    H239386   0.646   0.685  11.481 -0.8680  0.5057 -1.8556
 5991TIP3   OH239387   1.294   5.046  12.771  0.3523 -0.2215 -0.1304
 5991TIP3    H139388   1.240   5.086  12.839 -2.5681 -0.3034 -2.1964
 5991TIP3    H239389   1.362   4.999  12.818 -1.9906 -0.9829  2.7875
 5992TIP3   OH239390   0.852   4.688   1.092 -0.2202  0.0192  0.0855
 5992TIP3    H139391   0.829   4.673   1.000  0.4185  1.9342 -0.4180
 5992TIP3    H239392   0.769   4.680   1.139 -0.9706  1.2180 -0.9655
 5993TIP3   OH239393   1.826   6.777   6.072  0.5739 -0.1277  0.2211
 5993TIP3    H139394   1.762   6.788   6.003  0.8555 -1.4780 -0.2860
 5993TIP3    H239395   1.776   6.789   6.153 -0.6279 -2.2829 -0.1181
 5994TIP3   OH239396   4.765   4.703   1.103  0.1606  0.4289 -0.3588
 5994TIP3    H139397   4.736   4.657   1.182  1.1309 -0.6893 -0.6302
 5994TIP3    H239398   4.694   4.690   1.041 -0.0319  0.1937 -0.0955
 5995TIP3   OH239399   2.448   6.213  16.177 -0.2945 -0.1826  0.0620
 5995TIP3    H139400   2.544   6.210  16.177 -0.3106 -1.7610 -0.6651
 5995TIP3    H239401   2.423   6.195  16.267  0.0878 -0.1671  0.1718
 5996TIP3   OH239402   4.691   6.280  12.449  0.9729 -0.2567 -0.3677
 5996TIP3    H139403   4.601   6.311  12.442  1.3243  0.8094 -0.4022
 5996TIP3    H239404   4.691   6.193  12.409 -0.0091 -0.2171 -0.4608
 5997TIP3   OH239405   2.589   5.230  11.967 -0.8801 -0.1896 -0.0272
 5997TIP3    H139406   2.645   5.306  11.980  0.6065 -1.2589  0.1124
 5997TIP3    H239407   2.632   5.160  12.017 -0.8589 -1.7175 -2.0386
 5998TIP3   OH239408   1.249   1.737  11.560 -0.4305 -0.0845 -0.0416
 5998TIP3    H139409   1.299   1.688  11.625 -0.4651 -1.2369 -0.8419
 5998TIP3    H239410   1.228   1.820  11.602  0.6187 -0.3059  0.9488
 5999TIP3   OH239411   2.738   4.080   6.535 -0.0857 -0.3491  0.5496
 5999TIP3    H139412   2.685   4.159   6.549 -2.1700 -1.6533  0.3730
 5999TIP3    H239413   2.711   4.048   6.449  3.3632  0.6149 -1.0728
 6000TIP3   OH239414   3.509   6.292   4.294 -1.1042 -0.5070 -0.6864
 6000TIP3    H139415   3.517   6.257   4.383  1.4717  1.9393  0.2282
 6000TIP3    H239416   3.563   6.234   4.241 -0.2750 -0.3854 -0.0182
 6001TIP3   OH239417   1.795   0.122  15.619  0.3173  0.2145  0.4272
 6001TIP3    H139418   1.767   0.166  15.700  1.7960  0.7107  0.7036
 6001TIP3    H239419   1.806   0.192  15.556 -1.4357 -0.2353 -0.4387
 6002TIP3   OH239420   4.829   0.444   4.782  0.2335 -0.1953 -0.6055
 6002TIP3    H139421   4.870   0.505   4.843 -0.3574  0.0831 -0.4821
 6002TIP3    H239422   4.869   0.464   4.697  0.6569 -0.2130 -0.4134
 6003TIP3   OH239423   2.404   1.449   5.205  0.2076  0.3611  0.3989
 6003TIP3    H139424   2.369   1.359   5.207 -0.8785  0.7712  0.8073
 6003TIP3    H239425   2.399   1.478   5.296 -3.3629  2.2328 -0.1763
 6004TIP3   OH239426   5.907   4.839  15.372 -0.4332  0.3283 -0.0765
 6004TIP3    H139427   5.954   4.868  15.294  0.1271  0.3838  0.2716
 6004TIP3    H239428   5.899   4.918  15.426 -1.8659  0.5572 -0.5828
 6005TIP3   OH239429   4.433   0.569   2.824 -0.1181 -0.4148 -0.0972
 6005TIP3    H139430   4.397   0.508   2.888  1.5056 -1.0976  0.2238
 6005TIP3    H239431   4.456   0.647   2.875 -0.4124 -0.2792 -0.1681
 6006TIP3   OH239432   6.623   0.063   4.275  0.0839 -0.2985 -0.2385
 6006TIP3    H139433   6.705   0.022   4.247 -0.2371  0.2774 -2.1516
 6006TIP3    H239434   6.605   0.025   4.361  2.1219 -0.7540  0.0328
 6007TIP3   OH239435   3.501   5.473   5.795 -0.0107 -0.1166  0.0972
 6007TIP3    H139436   3.429   5.536   5.808 -1.0718 -1.2269 -0.1761
 6007TIP3    H239437   3.457   5.389   5.782  1.3806 -1.0648  1.1809
 6008TIP3   OH239438   6.344   0.895   1.705 -0.5980  0.7649 -0.0379
 6008TIP3    H139439   6.344   0.947   1.624  0.4909 -0.5688 -0.9324
 6008TIP3    H239440   6.431   0.906   1.741 -0.7314  0.4610  0.3803
 6009TIP3   OH239441   1.257   3.359   4.165 -0.2741  0.4200  0.2757
 6009TIP3    H139442   1.221   3.414   4.235 -0.6715 -0.1351  0.5161
 6009TIP3    H239443   1.222   3.272   4.183 -0.9065  0.3926 -0.9881
 6010TIP3   OH239444   5.599   1.031  13.639 -0.5402  0.4587 -0.5312
 6010TIP3    H139445   5.687   1.029  13.602 -1.1213 -0.8038 -1.9655
 6010TIP3    H239446   5.612   1.042  13.733  1.2647 -1.9993 -0.4217
 6011TIP3   OH239447   2.884   0.186   4.785 -0.1795 -0.2059 -0.5300
 6011TIP3    H139448   2.849   0.250   4.723  1.3722  0.5304 -0.7132
 6011TIP3    H239449   2.815   0.174   4.850 -0.2322  2.3643  0.0162
 6012TIP3   OH239450   6.063   3.030   5.821  0.1653  0.1956 -0.0215
 6012TIP3    H139451   6.069   2.968   5.893  0.3985  1.4514  1.0753
 6012TIP3    H239452   5.998   3.094   5.849  1.5090  1.6768 -0.1409
 6013TIP3   OH239453   3.768   2.430  11.981 -0.2539  0.4834  0.2705
 6013TIP3    H139454   3.718   2.353  12.007  2.0117 -1.2460 -0.2584
 6013TIP3    H239455   3.797   2.468  12.064 -0.9588  0.5133  0.5145
 6014TIP3   OH239456   4.133   2.647   2.177 -0.3036 -0.2425 -0.0508
 6014TIP3    H139457   4.089   2.677   2.256 -1.1529 -0.9955 -0.2253
 6014TIP3    H239458   4.176   2.725   2.142 -2.6377  0.8442 -0.6288
 6015TIP3   OH239459   0.783   2.023  11.440 -0.0531 -0.3970  0.3907
 6015TIP3    H139460   0.759   2.032  11.348  0.7985 -1.1845  0.0773
 6015TIP3    H239461   0.869   2.064  11.447 -0.2092 -0.1446  0.8802
 6016TIP3   OH239462   2.045   0.233   2.979  0.1588  0.0486 -0.2486
 6016TIP3    H139463   2.029   0.191   2.894  0.1903 -0.2035 -0.1311
 6016TIP3    H239464   1.962   0.275   3.001 -0.1539 -0.6946  0.0442
 6017TIP3   OH239465   1.875   5.411   5.656  0.1234  0.0703  0.5825
 6017TIP3    H139466   1.881   5.316   5.650  0.0779  0.0177  1.2713
 6017TIP3    H239467   1.782   5.429   5.672  0.1849  0.2092  0.7912
 6018TIP3   OH239468   5.699   4.371   5.850  0.0774 -0.1190  0.4145
 6018TIP3    H139469   5.750   4.395   5.927 -0.2257 -1.9959  1.2605
 6018TIP3    H239470   5.608   4.389   5.874  0.1023  0.8923 -0.1736
 6019TIP3   OH239471   4.799   4.294   4.053 -0.4745 -0.2540  0.6829
 6019TIP3    H139472   4.733   4.243   4.100  0.2478  0.3007  2.3698
 6019TIP3    H239473   4.787   4.384   4.085  1.6926 -0.2973  1.7901
 6020TIP3   OH239474   2.420   3.965   4.097 -0.0762  0.3855 -0.1617
 6020TIP3    H139475   2.399   3.874   4.075 -0.6468  0.6895 -0.9177
 6020TIP3    H239476   2.409   3.970   4.192 -2.0305  0.1315 -0.3226
 6021TIP3   OH239477   2.304   4.630  14.922 -0.2591  0.4366 -0.1366
 6021TIP3    H139478   2.220   4.608  14.963 -0.4067  0.2929 -0.5189
 6021TIP3    H239479   2.321   4.557  14.862  0.9160 -0.3626  1.0945
 6022TIP3   OH239480   2.996   1.915   6.007 -0.1965  0.2285 -0.4123
 6022TIP3    H139481   3.038   1.991   6.048  0.6953  0.5137 -1.7744
 6022TIP3    H239482   2.965   1.948   5.923  1.4736 -1.2003 -1.6693
 6023TIP3   OH239483   0.402   5.684   3.319  0.1429 -0.8972 -0.1873
 6023TIP3    H139484   0.487   5.650   3.346  0.4929  1.1705  1.6341
 6023TIP3    H239485   0.349   5.606   3.303  1.9107 -2.2381  0.1672
 6024TIP3   OH239486   2.802   2.974   4.895 -0.2549 -0.4227  0.5382
 6024TIP3    H139487   2.733   2.992   4.959 -1.3196 -1.2088 -0.3558
 6024TIP3    H239488   2.760   2.984   4.810  0.3308 -2.2716 -0.0318
 6025TIP3   OH239489   2.076   3.532  14.869 -0.1231  0.0963  0.4622
 6025TIP3    H139490   2.032   3.486  14.798  1.1310  0.6395 -0.7138
 6025TIP3    H239491   2.033   3.618  14.873  0.2067  0.2860 -0.0508
 6026TIP3   OH239492   1.736   0.646   3.426  0.5358 -0.1217  0.3692
 6026TIP3    H139493   1.689   0.636   3.344 -0.6864 -0.9753  1.1307
 6026TIP3    H239494   1.792   0.569   3.431  0.6404 -0.0492  0.3217
 6027TIP3   OH239495   0.566   3.103  11.439  0.0495  0.0271  0.6928
 6027TIP3    H139496   0.506   3.037  11.404 -0.7515  0.3767  1.3730
 6027TIP3    H239497   0.604   3.145  11.362  0.8586 -1.4564  0.2382
 6028TIP3   OH239498   0.559   5.080   0.937 -0.2156 -0.0766 -0.3849
 6028TIP3    H139499   0.533   5.164   0.975  0.5063  0.5555 -1.2493
 6028TIP3    H239500   0.650   5.069   0.964 -0.4823 -0.8695  0.2087
 6029TIP3   OH239501   0.321   3.889  14.266 -0.2813  0.3605  0.2271
 6029TIP3    H139502   0.416   3.884  14.269 -0.1557  1.6987 -0.4714
 6029TIP3    H239503   0.291   3.798  14.270  0.9983 -0.0562  0.8251
 6030TIP3   OH239504   3.906   5.916   2.766 -0.2849  0.1115  0.2960
 6030TIP3    H139505   3.901   5.861   2.845 -3.1843 -0.6956 -0.3074
 6030TIP3    H239506   3.819   5.954   2.759 -0.2939 -0.2725 -2.8005
 6031TIP3   OH239507   6.137   4.241  12.800 -0.1899 -0.7454 -0.0541
 6031TIP3    H139508   6.142   4.297  12.722 -0.8844 -1.8552 -0.9135
 6031TIP3    H239509   6.079   4.289  12.859  0.6668  0.3057 -0.0130
 6032TIP3   OH239510   4.739   1.692   2.894  0.1384 -0.0692  0.1658
 6032TIP3    H139511   4.831   1.716   2.904  0.2224 -0.6499  0.8674
 6032TIP3    H239512   4.739   1.628   2.823  0.6753 -2.0831  1.8604
 6033TIP3   OH239513   3.646   5.223   1.205 -0.0554  0.0821 -0.1010
 6033TIP3    H139514   3.556   5.240   1.231  0.7145  2.4580  1.4184
 6033TIP3    H239515   3.654   5.128   1.206 -2.0088 -0.1456  1.7539
 6034TIP3   OH239516   3.278   6.720   1.933 -0.7443 -0.2963  1.0433
 6034TIP3    H139517   3.347   6.678   1.985 -0.8104 -0.6994  0.8113
 6034TIP3    H239518   3.213   6.651   1.919  0.0535 -0.7032 -0.9731
 6035TIP3   OH239519   4.150   2.777   2.651 -0.0916  0.3029  1.3081
 6035TIP3    H139520   4.151   2.871   2.666 -1.8095  0.2321  2.1106
 6035TIP3    H239521   4.221   2.743   2.704  0.7474  1.1686  0.7636
 6036TIP3   OH239522   0.685   1.542   0.403  0.4411  0.0076 -0.1145
 6036TIP3    H139523   0.692   1.506   0.315  0.9563  0.6326 -0.3369
 6036TIP3    H239524   0.616   1.490   0.445  2.0067 -2.0926  0.0094
 6037TIP3   OH239525   1.026   6.513   2.089  0.3638 -0.4479 -0.4410
 6037TIP3    H139526   0.932   6.495   2.084  0.4364 -1.5814  1.3326
 6037TIP3    H239527   1.040   6.587   2.030 -2.3453  2.2999  2.0234
 6038TIP3   OH239528   3.308   2.031  13.641  0.0173 -0.1167  0.7174
 6038TIP3    H139529   3.394   2.065  13.666  0.0512  1.2142 -1.0544
 6038TIP3    H239530   3.282   2.085  13.567 -1.7260 -1.4409  0.3228
 6039TIP3   OH239531   2.811   3.526  10.613 -0.0968  0.2229  0.0992
 6039TIP3    H139532   2.853   3.443  10.589 -0.0284  0.1070  0.6149
 6039TIP3    H239533   2.718   3.504  10.620 -0.0020  0.0374  0.8721
 6040TIP3   OH239534   4.330   4.750  16.878  0.1262  0.3713  0.1217
 6040TIP3    H139535   4.362   4.767  16.966 -0.9572  0.8678  0.4376
 6040TIP3    H239536   4.364   4.823  16.826  2.9214 -1.2135 -0.4910
 6041TIP3   OH239537   0.053   6.252  17.182  0.2468  0.2815  0.0693
 6041TIP3    H139538   0.047   6.211  17.268  1.9153 -1.5533 -0.6150
 6041TIP3    H239539   0.141   6.290  17.179  0.7691 -0.9179 -1.2869
 6042TIP3   OH239540   1.621   4.050  11.472  0.3659 -0.1335  0.2028
 6042TIP3    H139541   1.548   4.037  11.532  0.4315  1.5798  0.6987
 6042TIP3    H239542   1.616   3.975  11.412  0.2918 -1.8969  2.2831
 6043TIP3   OH239543   3.198   3.748   4.228 -0.1079 -0.4895 -0.4573
 6043TIP3    H139544   3.264   3.688   4.194  0.1868  0.4436 -1.5732
 6043TIP3    H239545   3.197   3.821   4.166 -2.3594 -0.5838 -0.6141
 6044TIP3   OH239546   1.917   3.668  16.729 -0.1638  0.1404 -0.3738
 6044TIP3    H139547   1.847   3.662  16.794 -0.5623  0.5785 -0.7573
 6044TIP3    H239548   1.957   3.754  16.745 -1.2147  0.8956 -1.6463
 6045TIP3   OH239549   1.526   1.852   4.301  0.2928  0.1460  0.1228
 6045TIP3    H139550   1.616   1.857   4.269  1.0722  0.1102  2.1830
 6045TIP3    H239551   1.509   1.758   4.308  0.3147  0.1583  0.3342
 6046TIP3   OH239552   4.360   5.526   0.778  0.2185 -0.2486 -0.4976
 6046TIP3    H139553   4.415   5.488   0.847  1.7064  0.8208 -1.0492
 6046TIP3    H239554   4.402   5.609   0.757 -2.6627  1.6057  0.3819
 6047TIP3   OH239555   6.324   1.120   1.219  0.0752 -0.4922 -0.2556
 6047TIP3    H139556   6.415   1.092   1.223  0.2382  0.0640  0.1166
 6047TIP3    H239557   6.312   1.150   1.128  0.0007 -1.4010 -0.5517
 6048TIP3   OH239558   0.950   5.303   1.860  0.2540  0.0834 -0.3042
 6048TIP3    H139559   0.880   5.250   1.899  0.4003  1.8457  2.6797
 6048TIP3    H239560   1.013   5.239   1.827 -0.2437 -1.6470  1.8532
 6049TIP3   OH239561   3.069   1.018   2.562 -0.0546  0.3034 -0.0524
 6049TIP3    H139562   3.135   1.087   2.572  0.4243  0.7357 -4.3127
 6049TIP3    H239563   3.117   0.936   2.578  0.8752  0.7364 -0.5662
 6050TIP3   OH239564   3.423   2.290  13.575 -0.0443  0.2163  0.2141
 6050TIP3    H139565   3.439   2.337  13.493  1.0063  1.6706  1.2046
 6050TIP3    H239566   3.384   2.355  13.633 -2.8660 -1.3495  0.2729
 6051TIP3   OH239567   5.905   5.964  11.533  0.8119  0.1739  0.1395
 6051TIP3    H139568   5.983   6.009  11.501  1.4251  0.1416  1.4997
 6051TIP3    H239569   5.925   5.946  11.625  0.3615 -2.3774 -0.1892
 6052TIP3   OH239570   4.252   5.850  12.302 -0.5653 -0.3070  0.7335
 6052TIP3    H139571   4.279   5.830  12.212  0.4572 -0.5772  1.0782
 6052TIP3    H239572   4.194   5.925  12.293 -1.1615 -0.8517 -0.2255
 6053TIP3   OH239573   5.695   3.541   5.734 -0.1228  0.2852 -0.8923
 6053TIP3    H139574   5.695   3.450   5.765  0.3154 -0.4493 -2.9054
 6053TIP3    H239575   5.650   3.589   5.803  1.4351 -1.0895  1.2167
 6054TIP3   OH239576   5.077   4.768  15.199 -0.1245 -0.1546 -0.1681
 6054TIP3    H139577   5.099   4.720  15.119 -2.3207  0.4897 -1.2256
 6054TIP3    H239578   5.007   4.718  15.240  0.0312  0.2568  0.6310
 6055TIP3   OH239579   0.316   1.343   5.874 -0.0435 -0.1721  0.2002
 6055TIP3    H139580   0.310   1.252   5.847 -1.7182  0.6054 -2.4794
 6055TIP3    H239581   0.226   1.366   5.898  0.3593  0.7962  0.8436
 6056TIP3   OH239582   2.381   1.017  10.999 -0.8744 -0.1998  0.0771
 6056TIP3    H139583   2.424   0.966  10.931 -2.6246 -1.4517 -0.1585
 6056TIP3    H239584   2.401   1.108  10.977  1.7001 -0.6915  0.0926
 6057TIP3   OH239585   3.026   1.603   2.006  0.2695  0.1001 -0.1924
 6057TIP3    H139586   3.120   1.616   2.023  0.5381 -1.2551 -0.5243
 6057TIP3    H239587   3.006   1.519   2.047 -0.8676  0.4851  0.0648
 6058TIP3   OH239588   6.543   3.626   0.284 -0.2739 -0.1845 -0.1440
 6058TIP3    H139589   6.498   3.646   0.366 -0.0723  1.6748 -0.4418
 6058TIP3    H239590   6.529   3.532   0.272 -3.5787  0.1332  0.0826
 6059TIP3   OH239591   2.843   5.622   4.274  0.1068 -0.1767  0.0123
 6059TIP3    H139592   2.837   5.554   4.341  3.5128 -0.4310  0.2401
 6059TIP3    H239593   2.858   5.574   4.192  1.9436  0.1930  0.0839
 6060TIP3   OH239594   0.498   4.214   2.169  0.6043 -0.0576 -0.1156
 6060TIP3    H139595   0.572   4.236   2.112  0.7070 -1.2316 -0.4605
 6060TIP3    H239596   0.523   4.131   2.209 -1.5980 -1.9575 -2.3106
 6061TIP3   OH239597   1.290   1.210  12.335  0.0488 -0.3809  0.1271
 6061TIP3    H139598   1.340   1.231  12.256 -1.7348 -0.5060 -1.0884
 6061TIP3    H239599   1.308   1.283  12.394  0.6755  0.1942 -0.7439
 6062TIP3   OH239600   6.403   2.094   1.816  0.4020  0.6591  0.2235
 6062TIP3    H139601   6.445   2.106   1.902  2.2097  2.1665 -0.7866
 6062TIP3    H239602   6.329   2.154   1.817  0.9160  1.3036  0.4388
 6063TIP3   OH239603   3.725   5.782  15.677 -0.1094 -0.1578  0.5673
 6063TIP3    H139604   3.743   5.795  15.770 -0.1423 -0.0163  0.5535
 6063TIP3    H239605   3.706   5.689  15.669  0.2598 -0.2440  0.6414
 6064TIP3   OH239606   6.579   6.089   2.963  0.0555  0.5160 -0.2042
 6064TIP3    H139607   6.521   6.033   3.015  0.6081  0.7297  0.6624
 6064TIP3    H239608   6.582   6.171   3.011  1.3031  0.4091 -0.0723
 6065TIP3   OH239609   0.089   4.228  13.600 -0.0373  0.1465 -0.6105
 6065TIP3    H139610   0.056   4.155  13.547 -2.1321 -0.1923  1.0299
 6065TIP3    H239611   0.026   4.299  13.584  1.3363  1.2879 -1.2954
 6066TIP3   OH239612   4.323   2.783  16.916 -0.2507 -0.3258 -0.0652
 6066TIP3    H139613   4.285   2.723  16.852 -0.3427  1.1942 -1.5130
 6066TIP3    H239614   4.408   2.808  16.878 -0.6004  1.1260  0.0522
 6067TIP3   OH239615   3.744   5.515   2.165 -0.3172 -0.1765 -0.0450
 6067TIP3    H139616   3.703   5.552   2.243  1.2418  0.7845  0.3649
 6067TIP3    H239617   3.769   5.591   2.112  0.1816 -0.7577 -0.6727
 6068TIP3   OH239618   2.999   2.645  16.863 -0.0018 -0.3583  0.3009
 6068TIP3    H139619   3.078   2.607  16.900  0.3526  0.4795  0.4155
 6068TIP3    H239620   2.935   2.573  16.865 -0.0821 -0.2961  2.7232
 6069TIP3   OH239621   0.836   1.942  12.513  0.3568 -0.6342 -0.4768
 6069TIP3    H139622   0.928   1.952  12.487 -0.0408  0.5514 -1.5654
 6069TIP3    H239623   0.789   1.926  12.431 -0.6420  0.7888 -0.2335
 6070TIP3   OH239624   0.310   4.268  12.657  0.0683 -0.3914 -0.4117
 6070TIP3    H139625   0.216   4.282  12.660  0.2173  0.7040 -0.6381
 6070TIP3    H239626   0.335   4.282  12.566  0.6660  0.9027 -0.0735
 6071TIP3   OH239627   6.605   5.992   5.724  0.0583 -0.2533 -0.4103
 6071TIP3    H139628   6.679   6.053   5.719 -0.0779 -0.1576 -1.5344
 6071TIP3    H239629   6.617   5.946   5.807  0.4900  0.8913  0.1757
 6072TIP3   OH239630   5.162   6.689   4.279 -0.1779 -0.2446 -0.0629
 6072TIP3    H139631   5.162   6.627   4.352  1.3643 -1.0468 -0.7118
 6072TIP3    H239632   5.089   6.748   4.299 -0.2233 -0.8412  1.7841
 6073TIP3   OH239633   3.108   5.394  14.779  0.4542 -0.3227 -0.2009
 6073TIP3    H139634   3.198   5.365  14.790  1.0883 -0.0870 -3.7222
 6073TIP3    H239635   3.055   5.324  14.818  2.0946 -1.2361  0.4705
 6074TIP3   OH239636   2.301   5.898  12.995  0.7439 -0.3710  0.2880
 6074TIP3    H139637   2.218   5.861  12.966  0.7122  0.0015 -0.1075
 6074TIP3    H239638   2.368   5.842  12.955  0.6967 -1.7355  1.9981
 6075TIP3   OH239639   6.313   2.251  13.989 -0.4836  0.2079 -0.4827
 6075TIP3    H139640   6.372   2.247  14.065  2.4195  2.1476 -2.4115
 6075TIP3    H239641   6.290   2.160  13.972 -0.9892 -0.3213  2.4470
 6076TIP3   OH239642   3.371   0.100  12.933 -0.4290  0.0669  0.0039
 6076TIP3    H139643   3.342   0.143  13.012 -2.0342 -1.8652  0.5534
 6076TIP3    H239644   3.352   0.162  12.862 -1.6512  0.6907  0.8510
 6077TIP3   OH239645   0.435   2.108   6.146 -0.5142  0.6257 -0.3554
 6077TIP3    H139646   0.446   2.016   6.122 -0.4880  0.2362  1.0319
 6077TIP3    H239647   0.494   2.155   6.088  2.3426 -0.6232  1.2947
 6078TIP3   OH239648   1.691   0.206  12.090 -0.4899 -0.3113  0.0617
 6078TIP3    H139649   1.782   0.191  12.112 -0.7081 -1.0929  0.4593
 6078TIP3    H239650   1.681   0.301  12.093  0.3731 -0.2018 -0.2680
 6079TIP3   OH239651   0.698   4.395  14.156 -0.2720  0.3101  0.1648
 6079TIP3    H139652   0.654   4.466  14.109 -1.1905 -1.4428 -1.7769
 6079TIP3    H239653   0.652   4.389  14.240 -1.1701  1.0280 -0.2601
 6080TIP3   OH239654   4.110   2.055   5.742  0.2128 -0.4862 -0.4378
 6080TIP3    H139655   4.066   2.095   5.817  1.4698  0.0283  0.0570
 6080TIP3    H239656   4.051   1.986   5.713  0.0556 -1.2184  1.5078
 6081TIP3   OH239657   2.699   2.381   0.159  0.6239  0.4412 -0.0275
 6081TIP3    H139658   2.611   2.361   0.128 -0.0521 -0.9712  2.5158
 6081TIP3    H239659   2.688   2.457   0.217  0.7950 -0.5556  1.3613
 6082TIP3   OH239660   2.393   5.668  13.967 -1.1076 -0.3651 -0.3826
 6082TIP3    H139661   2.321   5.682  13.905 -1.4852  0.7714  0.2855
 6082TIP3    H239662   2.361   5.601  14.026 -1.4083 -0.2562 -0.4190
 6083TIP3   OH239663   2.847   5.950  14.414 -0.5459 -0.6847  0.1725
 6083TIP3    H139664   2.783   5.893  14.457 -0.7597  0.2506  1.1572
 6083TIP3    H239665   2.801   5.985  14.338 -0.6229 -1.3099 -0.0794
 6084TIP3   OH239666   6.248   5.047   2.806  0.0330  0.2432 -0.1819
 6084TIP3    H139667   6.270   4.959   2.837 -2.0092  0.5194  2.3687
 6084TIP3    H239668   6.270   5.105   2.879 -3.7408  1.1018  0.4880
 6085TIP3   OH239669   6.595   3.231  12.697  0.1190 -0.0205 -0.2116
 6085TIP3    H139670   6.614   3.177  12.620 -0.5458  0.4907 -0.7447
 6085TIP3    H239671   6.582   3.168  12.768  0.4622 -0.5071 -0.5762
 6086TIP3   OH239672   6.079   6.266   0.874  0.2034  0.5025 -0.4061
 6086TIP3    H139673   6.168   6.262   0.908  0.9045  0.1987 -2.1757
 6086TIP3    H239674   6.052   6.174   0.866 -0.5520  0.6010  0.7631
 6087TIP3   OH239675   1.000   3.755  14.871 -0.1553  0.4166  0.3702
 6087TIP3    H139676   0.924   3.708  14.905 -0.2923  1.6569  1.8631
 6087TIP3    H239677   1.067   3.688  14.861 -0.7023 -0.2983  1.3507
 6088TIP3   OH239678   6.327   3.474  12.814 -0.4882  0.0513 -0.6774
 6088TIP3    H139679   6.329   3.398  12.756  0.2024 -0.0225 -0.5686
 6088TIP3    H239680   6.419   3.502  12.820 -0.4989 -0.1425  0.6415
 6089TIP3   OH239681   6.665   4.474  12.824  0.4437 -0.5498  0.1813
 6089TIP3    H139682   6.610   4.452  12.748  0.6997 -0.4817 -0.0244
 6089TIP3    H239683   6.642   4.408  12.889 -1.7912  0.9768  1.0604
 6090TIP3   OH239684   5.841   2.847   6.414  0.0123 -0.2392 -0.6236
 6090TIP3    H139685   5.800   2.916   6.361  0.6562  0.0612 -0.7321
 6090TIP3    H239686   5.812   2.765   6.374 -0.6762 -0.0337 -0.5574
 6091TIP3   OH239687   6.642   5.714  14.481  0.3406 -0.7249 -0.0445
 6091TIP3    H139688   6.624   5.753  14.396 -0.8897 -0.3542  0.3595
 6091TIP3    H239689   6.709   5.770  14.520 -0.9418  0.6567  0.2682
 6092TIP3   OH239690   3.714   1.779  17.050 -0.0989  0.1502  0.2501
 6092TIP3    H139691   3.640   1.841  17.046 -0.3037 -0.1496 -0.7025
 6092TIP3    H239692   3.676   1.700  17.088 -0.5637 -0.3886 -1.2671
 6093TIP3   OH239693   0.231   4.723  15.112  0.2693 -0.1336 -0.5029
 6093TIP3    H139694   0.323   4.746  15.103  0.3683 -0.6662 -0.9007
 6093TIP3    H239695   0.228   4.629  15.099 -0.4351 -0.0139 -1.3121
 6094TIP3   OH239696   3.976   1.906   0.254 -0.0475 -0.6595 -0.2646
 6094TIP3    H139697   3.957   1.893   0.161  1.2066 -2.1970 -0.3539
 6094TIP3    H239698   4.057   1.957   0.255 -0.6063  0.2304  0.0069
 6095TIP3   OH239699   2.281   4.469   4.527  0.4528 -0.2580  1.2233
 6095TIP3    H139700   2.286   4.383   4.487 -1.2419 -0.0285  0.4637
 6095TIP3    H239701   2.351   4.519   4.484 -0.7403 -0.2752 -0.8648
 6096TIP3   OH239702   3.162   3.954   3.133  0.2870  0.5651 -0.1332
 6096TIP3    H139703   3.131   3.864   3.122  0.2642  0.3080  1.6201
 6096TIP3    H239704   3.233   3.963   3.070  0.9721 -1.0275  0.3494
 6097TIP3   OH239705   1.507   2.446  17.021  0.3802 -0.2888  0.5543
 6097TIP3    H139706   1.427   2.459  16.970  0.2041 -1.9528  0.3246
 6097TIP3    H239707   1.576   2.435  16.955  1.0575  2.2726  0.7545
 6098TIP3   OH239708   5.889   1.294  16.010 -0.1022  0.1378  0.1179
 6098TIP3    H139709   5.826   1.348  16.057 -0.1973  0.9496 -0.9028
 6098TIP3    H239710   5.881   1.322  15.919  2.5310  1.0607  0.1034
 6099TIP3   OH239711   1.704   2.443  11.380  0.5433 -0.2201  0.0538
 6099TIP3    H139712   1.718   2.363  11.329 -0.7313 -1.2485  1.2141
 6099TIP3    H239713   1.614   2.469  11.360  1.0930  1.2110 -0.6602
 6100TIP3   OH239714   3.242   1.065  14.872 -0.6916 -0.1585 -0.0846
 6100TIP3    H139715   3.310   1.130  14.888 -0.8406  0.5302 -1.9649
 6100TIP3    H239716   3.289   0.991  14.833 -0.6503 -0.8469  1.2279
 6101TIP3   OH239717   6.777   0.108   3.535  0.2890  0.6479 -1.2563
 6101TIP3    H139718   6.798   0.085   3.445 -1.4231  3.1413 -2.4363
 6101TIP3    H239719   6.816   0.195   3.547  1.0561  0.0807  0.6786
 6102TIP3   OH239720   0.927   2.232   0.982 -0.0244 -0.0352  0.1800
 6102TIP3    H139721   0.896   2.322   0.978 -3.5351 -1.1259  0.2124
 6102TIP3    H239722   0.992   2.225   0.912 -0.0249  2.3498 -0.1128
 6103TIP3   OH239723   6.713   3.193  15.340 -0.3097  0.4708  0.7764
 6103TIP3    H139724   6.770   3.122  15.369 -1.0757 -0.7271 -0.5103
 6103TIP3    H239725   6.639   3.190  15.400 -1.5406 -1.5203 -0.7220
 6104TIP3   OH239726   3.470   0.052  14.215  0.0807  0.1326  0.3749
 6104TIP3    H139727   3.555   0.025  14.249  0.5630  0.6003 -0.4172
 6104TIP3    H239728   3.465   0.012  14.128 -0.5327  0.0717  0.4345
 6105TIP3   OH239729   1.409   0.340  12.105  0.2997  0.0729 -0.3403
 6105TIP3    H139730   1.479   0.403  12.089  0.2280  0.3030  0.2459
 6105TIP3    H239731   1.379   0.316  12.018 -0.3125  1.5640 -0.5602
 6106TIP3   OH239732   2.307   5.698  11.665  0.2498 -0.2915  0.7360
 6106TIP3    H139733   2.249   5.738  11.729  1.3323  1.1783  0.8534
 6106TIP3    H239734   2.279   5.734  11.581  0.8947  0.3548  0.7844
 6107TIP3   OH239735   5.596   3.127   2.656  0.0184  0.2011 -0.2035
 6107TIP3    H139736   5.629   3.053   2.707  0.9018  0.5184 -0.3006
 6107TIP3    H239737   5.564   3.189   2.722  2.3649  1.2014  0.1139
 6108TIP3   OH239738   0.840   1.282   1.425  0.1310 -0.1478  0.1459
 6108TIP3    H139739   0.797   1.276   1.510 -0.9326 -0.3809 -0.3763
 6108TIP3    H239740   0.902   1.210   1.424  0.3754  0.0456  0.8374
 6109TIP3   OH239741   0.350   0.490  14.459 -0.5129 -0.0794  0.0489
 6109TIP3    H139742   0.292   0.541  14.403  0.6546  1.5125  0.2115
 6109TIP3    H239743   0.312   0.402  14.460 -2.9400  0.9058  0.2563
 6110TIP3   OH239744   3.718   4.101   5.918 -0.1910  0.7562  0.2862
 6110TIP3    H139745   3.691   4.022   5.871 -1.2083  1.2315  0.0336
 6110TIP3    H239746   3.636   4.136   5.953  0.4026  1.0550  1.4238
 6111TIP3   OH239747   0.123   5.632  13.877  0.2075 -0.0571  0.0769
 6111TIP3    H139748   0.041   5.597  13.843  0.0109 -0.2122  0.7066
 6111TIP3    H239749   0.099   5.678  13.958  0.8618 -0.9012  0.7677
 6112TIP3   OH239750   1.845   2.392   1.071 -0.5147  0.2218 -0.4610
 6112TIP3    H139751   1.849   2.298   1.052  0.1887  0.4418 -1.4717
 6112TIP3    H239752   1.931   2.412   1.108  0.0466  0.8232 -2.0320
 6113TIP3   OH239753   0.208   2.002  13.281 -0.7995  0.1385  0.2026
 6113TIP3    H139754   0.115   2.002  13.259 -0.8936 -1.2178  0.4905
 6113TIP3    H239755   0.244   2.078  13.235 -2.1233  0.9541  0.4637
 6114TIP3   OH239756   6.038   5.858  12.033 -0.3474 -0.1371  0.0016
 6114TIP3    H139757   5.973   5.789  12.024  0.4011 -0.8581  0.0731
 6114TIP3    H239758   6.085   5.838  12.114  1.6940 -1.1399 -1.3229
 6115TIP3   OH239759   5.049   0.451  16.498 -0.3057  0.1190  0.2125
 6115TIP3    H139760   5.083   0.389  16.563  1.6993  0.0919 -0.8116
 6115TIP3    H239761   5.011   0.396  16.430 -0.6874  0.1051  0.4302
 6116TIP3   OH239762   1.262   2.264  14.416 -0.3590 -0.0142  0.1172
 6116TIP3    H139763   1.302   2.348  14.440  2.0635 -0.7581 -0.9811
 6116TIP3    H239764   1.168   2.278  14.427  0.1591  1.6489  3.5879
 6117TIP3   OH239765   0.739   6.664  15.316  0.0548 -0.4219 -0.0884
 6117TIP3    H139766   0.779   6.742  15.353 -1.7340  0.9492 -0.9025
 6117TIP3    H239767   0.788   6.647  15.236 -0.9216  1.2278 -1.0719
 6118TIP3   OH239768   0.807   1.313   2.012  0.3178 -0.7163  0.4406
 6118TIP3    H139769   0.757   1.370   2.070  0.8509 -0.2297  0.4233
 6118TIP3    H239770   0.780   1.224   2.037 -0.5812 -0.4657  0.4072
 6119TIP3   OH239771   6.601   0.676  14.966  0.4559 -0.4295  0.0657
 6119TIP3    H139772   6.580   0.691  14.874  0.2887 -1.1562 -0.0221
 6119TIP3    H239773   6.679   0.729  14.982  0.1757  0.1183 -0.3460
 6120TIP3   OH239774   3.520   1.196   0.584 -0.2388 -0.2794 -0.2642
 6120TIP3    H139775   3.578   1.170   0.513  1.4672  2.1400  0.1246
 6120TIP3    H239776   3.542   1.137   0.656 -0.5091 -1.3843 -1.0679
 6121TIP3   OH239777   4.937   4.517   0.582  0.4650  0.2532 -0.4960
 6121TIP3    H139778   4.912   4.441   0.635 -0.0144  0.0793 -0.9564
 6121TIP3    H239779   5.030   4.506   0.566  0.5851  0.2290  0.1793
 6122TIP3   OH239780   2.383   3.955   5.641 -0.9563 -0.2927 -0.4155
 6122TIP3    H139781   2.406   3.982   5.730  1.3827 -2.1142 -0.3720
 6122TIP3    H239782   2.411   4.029   5.586 -0.3508 -0.0668  0.1751
 6123TIP3   OH239783   1.476   2.916  14.905  0.4033  0.2021 -0.3469
 6123TIP3    H139784   1.459   2.884  14.994  2.2701 -0.1367 -0.0721
 6123TIP3    H239785   1.427   2.856  14.849  1.1884 -1.1428  0.3533
 6124TIP3   OH239786   6.036   5.595   4.020 -0.2718 -0.1705 -0.4270
 6124TIP3    H139787   6.020   5.659   4.089  1.6056 -1.7571  1.6129
 6124TIP3    H239788   6.026   5.510   4.063 -0.2100 -1.2679 -2.4327
 6125TIP3   OH239789   5.162   1.359  16.223  0.1564  0.5479 -0.0607
 6125TIP3    H139790   5.142   1.291  16.158  1.4943  0.2769 -0.2113
 6125TIP3    H239791   5.077   1.383  16.258 -0.7664  1.4258 -2.6289
 6126TIP3   OH239792   5.854   0.908  13.668  0.5756 -0.5844 -0.3770
 6126TIP3    H139793   5.842   0.854  13.590  3.0508 -1.9363  0.0608
 6126TIP3    H239794   5.870   0.844  13.739 -2.9549  0.5069  1.6444
 6127TIP3   OH239795   3.030   1.953  10.966 -0.2886 -0.3078  0.4188
 6127TIP3    H139796   2.954   2.008  10.988  0.4047  1.4029 -1.1501
 6127TIP3    H239797   2.992   1.869  10.942 -1.8554  0.8255 -1.3743
 6128TIP3   OH239798   4.899   5.015   0.147 -0.2308 -0.2982 -0.1998
 6128TIP3    H139799   4.975   4.987   0.095  1.1446  0.3257  1.3799
 6128TIP3    H239800   4.870   5.096   0.105 -0.0755 -0.5664 -0.8431
 6129TIP3   OH239801   5.113   0.315  13.363 -0.6028  0.2832  0.4598
 6129TIP3    H139802   5.088   0.265  13.441 -1.0986  0.6537  0.5408
 6129TIP3    H239803   5.196   0.356  13.386 -0.0494 -0.7095  0.2989
 6130TIP3   OH239804   3.281   1.968  11.797 -0.4026 -0.0576 -0.1414
 6130TIP3    H139805   3.256   2.009  11.879 -0.7723  0.1381 -0.3502
 6130TIP3    H239806   3.202   1.970  11.743  0.1437  0.9065 -0.9464
 6131TIP3   OH239807   4.063   4.308  14.659 -0.0696  0.4126 -0.3084
 6131TIP3    H139808   4.071   4.402  14.641 -0.7589  0.3390 -1.0747
 6131TIP3    H239809   4.126   4.267  14.601  0.3570  0.4022  0.1528
 6132TIP3   OH239810   0.348   4.905   5.415 -0.1209  0.3563  0.6948
 6132TIP3    H139811   0.427   4.959   5.410 -0.5290  0.9579  0.5677
 6132TIP3    H239812   0.380   4.815   5.422  0.5942  0.3267 -1.9341
 6133TIP3   OH239813   5.027   3.775   1.333  0.3464 -0.2169 -0.2301
 6133TIP3    H139814   5.023   3.739   1.421  0.6672  0.9929  0.2957
 6133TIP3    H239815   4.940   3.814   1.319  0.9801  1.4883  0.4044
 6134TIP3   OH239816   0.681   2.226   4.528  0.5651  0.0163 -0.1978
 6134TIP3    H139817   0.659   2.283   4.602  0.3384 -1.8909  1.2680
 6134TIP3    H239818   0.597   2.193   4.497  0.8309 -1.5956  0.7181
 6135TIP3   OH239819   0.250   3.172   5.381 -0.3157 -0.0109 -0.2043
 6135TIP3    H139820   0.221   3.122   5.457 -0.5781 -1.6145 -1.3046
 6135TIP3    H239821   0.182   3.156   5.314 -0.4543  1.9145 -0.5826
 6136TIP3   OH239822   0.235   3.984  11.698 -0.0178  0.3482 -0.1293
 6136TIP3    H139823   0.206   4.062  11.650 -2.3276 -0.3385  0.0028
 6136TIP3    H239824   0.282   4.019  11.774  2.3715  1.4735 -1.9991
 6137TIP3   OH239825   3.201   4.338   5.203  0.2615 -0.0538  0.8896
 6137TIP3    H139826   3.156   4.259   5.175  2.7359 -0.6178 -1.9449
 6137TIP3    H239827   3.159   4.409   5.154  1.5144 -0.4285 -0.8343
 6138TIP3   OH239828   1.720   5.977  12.171 -0.2248  0.4779  0.5621
 6138TIP3    H139829   1.680   6.029  12.240 -1.2985 -0.5387  0.7369
 6138TIP3    H239830   1.730   6.038  12.098  3.1605  2.2425  2.2793
 6139TIP3   OH239831   2.528   6.241  15.031 -0.3688 -0.6009  0.1209
 6139TIP3    H139832   2.619   6.211  15.033 -0.3697 -0.7291 -1.0538
 6139TIP3    H239833   2.483   6.184  15.094  0.2672 -0.8416  0.3683
 6140TIP3   OH239834   1.497   5.769   5.565 -0.2712 -0.6961 -0.1600
 6140TIP3    H139835   1.415   5.732   5.596 -0.2281 -1.1072 -0.5365
 6140TIP3    H239836   1.557   5.761   5.639 -1.5254  2.9018  1.4679
 6141TIP3   OH239837   4.879   3.856  12.835 -0.6470  0.9284 -0.1950
 6141TIP3    H139838   4.944   3.795  12.801 -1.9185 -1.3642  1.1921
 6141TIP3    H239839   4.923   3.903  12.906 -0.4616 -0.7008  0.8276
 6142TIP3   OH239840   2.309   3.108  12.183  0.8274 -0.2166  0.3414
 6142TIP3    H139841   2.347   3.175  12.240  1.5732  1.1196 -1.6246
 6142TIP3    H239842   2.326   3.139  12.094 -0.7735 -1.9330 -0.6451
 6143TIP3   OH239843   3.229   0.467   1.272  0.2725 -0.0201 -0.5292
 6143TIP3    H139844   3.250   0.552   1.233  1.4265 -0.6393 -1.3312
 6143TIP3    H239845   3.155   0.485   1.330 -0.1569  1.3392 -1.4314
 6144TIP3   OH239846   6.608   3.002   0.609  0.3850  0.2286  0.2149
 6144TIP3    H139847   6.614   2.906   0.605  1.5353  0.2968 -0.2529
 6144TIP3    H239848   6.622   3.030   0.519  0.8214  0.8555  0.4699
 6145TIP3   OH239849   4.364   6.125   5.401  0.0424  0.3859  0.1737
 6145TIP3    H139850   4.405   6.123   5.315 -1.4928  2.1921 -0.6770
 6145TIP3    H239851   4.419   6.182   5.454 -0.0806  0.8662 -0.2194
 6146TIP3   OH239852   3.223   2.931   0.817 -0.2667 -0.4873 -0.9934
 6146TIP3    H139853   3.223   2.838   0.837  0.2249 -0.4790 -0.9347
 6146TIP3    H239854   3.315   2.954   0.809 -0.3122  0.2523  0.2118
 6147TIP3   OH239855   3.701   5.431  14.903  0.2625 -0.1061  0.5557
 6147TIP3    H139856   3.737   5.469  14.823  3.6158  1.4853  2.6033
 6147TIP3    H239857   3.652   5.503  14.943  1.1020  0.0665  1.3060
 6148TIP3   OH239858   1.270   4.509   4.155  0.0003  0.2991  0.2726
 6148TIP3    H139859   1.348   4.553   4.189  0.8175 -0.6984 -0.2586
 6148TIP3    H239860   1.286   4.416   4.172 -0.8716  0.0473 -0.2576
 6149TIP3   OH239861   3.884   4.364   5.120  0.7310  0.5598  0.1315
 6149TIP3    H139862   3.914   4.448   5.086  0.8583  1.5912  2.5835
 6149TIP3    H239863   3.798   4.382   5.158  0.3371 -0.6489 -0.1533
 6150TIP3   OH239864   1.383   2.372  15.184  0.3138 -0.3696  0.1472
 6150TIP3    H139865   1.408   2.337  15.269 -1.0646 -0.0376  0.7207
 6150TIP3    H239866   1.458   2.354  15.128  1.8142  0.6085  1.7441
 6151TIP3   OH239867   5.116   4.979  17.231 -0.6980  0.0806 -0.2671
 6151TIP3    H139868   5.183   5.040  17.200  0.3401  0.2115  1.9936
 6151TIP3    H239869   5.083   4.937  17.151  0.0582  2.0368 -1.6988
 6152TIP3   OH239870   0.493   3.254  14.874 -0.3824  0.3847  0.2689
 6152TIP3    H139871   0.493   3.220  14.784  1.4102 -0.1620  0.4357
 6152TIP3    H239872   0.485   3.177  14.929  3.5726  0.0389  0.6451
 6153TIP3   OH239873   4.744   1.159  15.907 -0.0705 -0.2194 -0.4299
 6153TIP3    H139874   4.770   1.067  15.900  1.5799  0.3003 -1.7013
 6153TIP3    H239875   4.657   1.156  15.947  0.9996 -2.2068  2.0701
 6154TIP3   OH239876   1.096   5.111  15.753  0.1441  0.3165  0.3726
 6154TIP3    H139877   1.035   5.048  15.715 -1.1814  2.1459 -0.6665
 6154TIP3    H239878   1.056   5.196  15.737  1.9134  1.4544  1.6593
 6155TIP3   OH239879   1.358   5.528   5.917  0.2283 -0.0164 -0.2264
 6155TIP3    H139880   1.277   5.535   5.867  1.0248 -0.0018 -1.5700
 6155TIP3    H239881   1.377   5.617   5.945 -1.0732 -0.2544  1.5569
 6156TIP3   OH239882   5.031   6.528  11.568 -1.0029 -0.3489 -0.2448
 6156TIP3    H139883   4.939   6.536  11.543 -0.4933 -1.8570 -3.0214
 6156TIP3    H239884   5.080   6.557  11.491  0.8712 -0.1729  0.9368
 6157TIP3   OH239885   0.849   4.001   2.859 -0.1019  0.0832 -0.4251
 6157TIP3    H139886   0.896   3.921   2.882  0.8249  0.4566 -0.9510
 6157TIP3    H239887   0.757   3.977   2.866  0.1565 -0.8706 -0.0391
 6158TIP3   OH239888   3.833   3.399  14.609 -0.3862 -0.0888 -0.0926
 6158TIP3    H139889   3.879   3.478  14.579 -0.7751  0.2156  0.0952
 6158TIP3    H239890   3.743   3.429  14.623 -0.2316 -0.2377  1.3128
 6159TIP3   OH239891   3.277   4.391  13.008  0.0943  0.5241  0.3165
 6159TIP3    H139892   3.229   4.450  12.950  0.6290  0.1071 -0.5684
 6159TIP3    H239893   3.221   4.313  13.014 -0.1372  0.7128  0.6775
 6160TIP3   OH239894   4.596   6.725  13.109  0.1934 -0.1212 -0.1130
 6160TIP3    H139895   4.557   6.681  13.185  2.4133 -1.8778  0.1200
 6160TIP3    H239896   4.646   6.656  13.065 -1.1444  0.7885 -3.3361
 6161TIP3   OH239897   0.409   4.548  16.407 -0.3726  0.0248  0.5446
 6161TIP3    H139898   0.475   4.593  16.355 -0.3834  0.0142  0.5224
 6161TIP3    H239899   0.334   4.607  16.408 -0.4283 -0.0449  0.4179
 6162TIP3   OH239900   0.121   5.028   2.452 -0.1579 -0.3749 -0.2362
 6162TIP3    H139901   0.053   4.962   2.457 -0.0922 -0.4510 -0.3307
 6162TIP3    H239902   0.078   5.110   2.474 -0.3860 -0.3500 -0.7669
 6163TIP3   OH239903   1.513   3.347  14.133 -0.1702  0.1765 -0.2082
 6163TIP3    H139904   1.503   3.322  14.041  2.7332  2.4468 -1.2719
 6163TIP3    H239905   1.602   3.321  14.155 -0.3214  1.0166  1.5289
 6164TIP3   OH239906   5.540   2.688  15.582 -0.6939 -0.0420  0.8564
 6164TIP3    H139907   5.489   2.745  15.524 -0.3991 -0.1895  0.4454
 6164TIP3    H239908   5.532   2.729  15.668  2.8168  3.0513 -0.0117
 6165TIP3   OH239909   2.050   5.195  12.557  0.0260 -0.1201  0.2709
 6165TIP3    H139910   1.974   5.244  12.588  0.7446 -0.1635  2.2361
 6165TIP3    H239911   2.021   5.103  12.558 -0.6090  0.0372 -1.2637
 6166TIP3   OH239912   5.529   2.920  16.917 -0.1323  0.5084 -0.0107
 6166TIP3    H139913   5.524   2.871  16.998 -0.3421  1.6767  0.7032
 6166TIP3    H239914   5.603   2.980  16.929 -0.0977  0.6209 -0.7157
 6167TIP3   OH239915   3.668   6.471  11.108 -0.8316  0.5879 -0.0840
 6167TIP3    H139916   3.609   6.400  11.135  0.0264 -0.3870 -0.6590
 6167TIP3    H239917   3.650   6.483  11.015  1.8316 -1.8507 -1.1078
 6168TIP3   OH239918   3.298   3.724   5.452 -0.5269  0.0290 -0.4221
 6168TIP3    H139919   3.221   3.761   5.409 -0.1269  0.0203 -1.1605
 6168TIP3    H239920   3.313   3.780   5.528  0.0185  1.3337 -1.4651
 6169TIP3   OH239921   4.487   1.899   1.005  0.5570  0.0737  0.4151
 6169TIP3    H139922   4.571   1.929   0.971  1.6083  0.0458  2.7886
 6169TIP3    H239923   4.458   1.971   1.062 -1.4107  0.3762 -0.8485
 6170TIP3   OH239924   4.244   1.400   1.568 -0.2420 -0.1104 -0.4226
 6170TIP3    H139925   4.291   1.369   1.490 -2.1619 -0.9899 -1.2968
 6170TIP3    H239926   4.232   1.493   1.552 -1.4142 -0.4399 -1.6688
 6171TIP3   OH239927   5.022   4.083  11.042 -0.4726 -0.1998 -0.3187
 6171TIP3    H139928   5.047   4.127  10.961 -1.4166 -0.3879 -0.7235
 6171TIP3    H239929   4.926   4.076  11.038 -0.5611 -0.0112  0.9142
 6172TIP3   OH239930   1.292   1.180   0.758 -0.2866 -0.4040 -0.6129
 6172TIP3    H139931   1.202   1.157   0.736 -0.1666 -0.5898 -0.9152
 6172TIP3    H239932   1.295   1.276   0.751 -0.1339 -0.4835 -1.9048
 6173TIP3   OH239933   0.139   5.935  16.397  0.2274  0.2969 -0.0020
 6173TIP3    H139934   0.055   5.957  16.438  0.5571  1.4948  0.0758
 6173TIP3    H239935   0.118   5.925  16.304  0.2206  2.0775 -0.2238
 6174TIP3   OH239936   6.779   0.249   1.947  0.2295 -0.2204 -0.3536
 6174TIP3    H139937   6.832   0.326   1.967  0.5905 -0.4108 -0.5726
 6174TIP3    H239938   6.689   0.277   1.965  0.4869 -0.2454  1.0989
 6175TIP3   OH239939   6.397   3.593   1.974  0.1264  0.0383  0.2683
 6175TIP3    H139940   6.407   3.659   2.042  0.6674  0.2369  0.0017
 6175TIP3    H239941   6.372   3.642   1.896  1.8150  0.0945 -0.2593
 6176TIP3   OH239942   1.287   0.890   3.116  0.5231 -0.6085  0.1401
 6176TIP3    H139943   1.242   0.815   3.155  0.9817 -0.4506  1.0052
 6176TIP3    H239944   1.372   0.892   3.160 -0.3693  1.8585  1.9651
 6177TIP3   OH239945   2.059   3.325  13.165  0.0329 -0.0418 -0.5499
 6177TIP3    H139946   1.989   3.299  13.225 -0.4143  2.5782  0.1876
 6177TIP3    H239947   2.018   3.388  13.106  1.7185  1.5463 -0.1131
 6178TIP3   OH239948   3.232   5.983  15.501  0.5262 -0.0371 -0.2188
 6178TIP3    H139949   3.243   5.953  15.591  0.4219  0.3163 -0.0858
 6178TIP3    H239950   3.138   5.972  15.484  0.4067  0.6075 -0.0213
 6179TIP3   OH239951   4.023   1.165  12.412  0.2511 -0.0406 -0.2311
 6179TIP3    H139952   3.991   1.148  12.500  0.4322 -1.4584 -0.4274
 6179TIP3    H239953   4.039   1.079  12.374  2.8333  0.5667 -0.6993
 6180TIP3   OH239954   3.811   4.065  11.702 -0.3487  0.2289  0.2840
 6180TIP3    H139955   3.754   4.124  11.653  1.2495  1.3095 -0.3270
 6180TIP3    H239956   3.881   4.043  11.641  0.0816 -0.8140  1.1277
 6181TIP3   OH239957   1.434   5.848   1.282 -0.2349  0.1478  0.0238
 6181TIP3    H139958   1.522   5.825   1.252  0.4710 -0.0007  2.0816
 6181TIP3    H239959   1.421   5.796   1.361 -1.6536  1.1533  0.4989
 6182TIP3   OH239960   1.717   1.483  12.542  0.6985 -0.2828 -0.1965
 6182TIP3    H139961   1.639   1.486  12.598  0.3294 -1.5363 -0.5955
 6182TIP3    H239962   1.788   1.459  12.601  0.6097 -0.0314  0.0137
 6183TIP3   OH239963   6.674   0.417  16.404 -0.1548  0.1048 -0.3339
 6183TIP3    H139964   6.615   0.385  16.472  0.2935  1.7976  0.9214
 6183TIP3    H239965   6.744   0.461  16.453  0.4417  0.9331 -1.8903
 6184TIP3   OH239966   1.297   0.548  11.375 -0.6954 -0.7892 -0.3284
 6184TIP3    H139967   1.326   0.639  11.385 -1.0109 -0.6851 -0.3627
 6184TIP3    H239968   1.217   0.543  11.427  0.1949 -1.4785  1.0491
 6185TIP3   OH239969   2.457   0.474   2.626 -0.2207 -0.2278 -0.1974
 6185TIP3    H139970   2.412   0.550   2.664  0.2118  0.1186 -0.3775
 6185TIP3    H239971   2.521   0.449   2.692 -1.1862 -1.2127  0.4102
 6186TIP3   OH239972   1.060   4.320  10.809  0.2268  0.2902 -0.1683
 6186TIP3    H139973   1.004   4.248  10.779  0.3133 -1.2053  2.8781
 6186TIP3    H239974   1.004   4.398  10.803 -1.2112 -0.6930  0.0656
 6187TIP3   OH239975   4.086   4.218   4.979 -0.5306 -0.3801 -0.5444
 6187TIP3    H139976   4.163   4.248   5.027 -0.4411  0.7052 -1.3419
 6187TIP3    H239977   4.015   4.274   5.010 -1.1146 -1.5984  0.4442
 6188TIP3   OH239978   5.110   1.678   5.572 -0.5429 -0.1825  0.6255
 6188TIP3    H139979   5.025   1.689   5.530  0.0662  1.8224 -0.2095
 6188TIP3    H239980   5.109   1.589   5.606 -2.1400 -0.9608 -1.2575
 6189TIP3   OH239981   3.466   0.287   5.720  0.0217 -0.5782 -0.1436
 6189TIP3    H139982   3.495   0.268   5.630  0.0406 -1.1660 -0.0143
 6189TIP3    H239983   3.413   0.367   5.711 -0.0320 -0.6672 -0.6881
 6190TIP3   OH239984   1.953   2.553  11.282  0.3557  0.0207  0.0786
 6190TIP3    H139985   1.929   2.501  11.205 -0.5782 -0.4158  0.6520
 6190TIP3    H239986   1.884   2.535  11.346 -0.7379  3.0046 -0.1511
 6191TIP3   OH239987   5.967   6.251  11.956 -0.0349 -0.3029 -0.1672
 6191TIP3    H139988   5.927   6.337  11.960 -0.6446 -0.5587 -0.6441
 6191TIP3    H239989   5.955   6.214  12.043  0.7847  0.3303  0.2295
 6192TIP3   OH239990   2.145   0.769   6.533  0.0433  0.2878 -0.3976
 6192TIP3    H139991   2.218   0.789   6.591 -0.7699  1.1164  0.3769
 6192TIP3    H239992   2.132   0.848   6.482 -0.6053  0.3190 -0.1951
 6193TIP3   OH239993   1.215   1.037  14.422 -0.3811 -0.4259  0.4409
 6193TIP3    H139994   1.271   1.013  14.496  0.8037  3.1809  0.9290
 6193TIP3    H239995   1.129   1.052  14.461 -0.2211 -0.3722  0.7831
 6194TIP3   OH239996   0.745   1.041  16.706 -0.3893 -0.0052  0.6060
 6194TIP3    H139997   0.738   0.960  16.656  0.4071 -1.0625  2.1332
 6194TIP3    H239998   0.675   1.036  16.771 -1.8465  1.6631 -0.7269
 6195TIP3   OH239999   4.373   6.549   5.890 -0.2264 -0.2255 -0.2785
 6195TIP3    H140000   4.323   6.628   5.871  1.7283  1.7479  2.1300
 6195TIP3    H240001   4.311   6.492   5.937 -1.3586  0.2898 -1.1064
 6196TIP3   OH240002   5.780   2.490  13.981  0.7789  0.0535  0.1340
 6196TIP3    H140003   5.876   2.491  13.975  0.7045  0.8888 -1.7383
 6196TIP3    H240004   5.754   2.422  13.918  0.1114  1.3448 -1.0381
 6197TIP3   OH240005   5.453   0.510  13.996  0.0555 -0.1002  0.6074
 6197TIP3    H140006   5.508   0.587  13.980  0.8760 -1.3317 -3.7095
 6197TIP3    H240007   5.369   0.532  13.956  0.5194 -1.5807 -1.3088
 6198TIP3   OH240008   1.354   0.416  16.467  0.5559 -0.3833  0.4171
 6198TIP3    H140009   1.433   0.391  16.419 -0.5406  0.2615 -1.8407
 6198TIP3    H240010   1.300   0.337  16.468  0.3501 -0.2452  0.1291
 6199TIP3   OH240011   3.053   1.944  14.081 -0.3069  0.2422 -0.1119
 6199TIP3    H140012   3.087   1.906  13.999 -0.3495  0.5172 -0.2565
 6199TIP3    H240013   3.088   2.033  14.082 -0.1417  0.1747  0.2696
 6200TIP3   OH240014   6.742   5.720   4.463  0.0763 -0.0821 -0.4329
 6200TIP3    H140015   6.792   5.779   4.406  0.1777  0.5280  0.2718
 6200TIP3    H240016   6.685   5.777   4.513 -0.3055 -0.6509 -0.2050
 6201TIP3   OH240017   3.129   4.716  13.093  0.2951 -0.6420  0.2966
 6201TIP3    H140018   3.138   4.631  13.051  1.2944  0.7995 -2.6515
 6201TIP3    H240019   3.212   4.761  13.076 -0.6039  1.3315  0.7790
 6202TIP3   OH240020   6.400   0.787   0.799 -0.1937  0.1215  0.3614
 6202TIP3    H140021   6.444   0.702   0.786  0.3523  0.2846  1.1056
 6202TIP3    H240022   6.456   0.849   0.752 -0.5231  0.0999 -0.0714
 6203TIP3   OH240023   4.028   4.936  11.703 -0.3291  0.4424  0.4158
 6203TIP3    H140024   3.995   5.025  11.690 -4.4343 -0.5118  2.5354
 6203TIP3    H240025   4.032   4.926  11.798  2.9335 -0.8435  0.2738
 6204TIP3   OH240026   1.766   1.242  13.456  0.0300  0.2275 -0.3832
 6204TIP3    H140027   1.834   1.302  13.425 -0.7086  0.8856 -0.7471
 6204TIP3    H240028   1.718   1.292  13.522 -0.5856  0.0349 -0.6846
 6205TIP3   OH240029   3.620   4.199  17.133 -0.1749 -0.4404 -0.3362
 6205TIP3    H140030   3.689   4.185  17.198  0.6001 -0.7265 -1.1912
 6205TIP3    H240031   3.634   4.289  17.103 -1.5985  0.3041  1.0764
 6206TIP3   OH240032   5.097   4.380  15.917 -0.0533 -0.0357 -0.1604
 6206TIP3    H140033   5.010   4.339  15.916 -0.9914  1.8307 -1.0511
 6206TIP3    H240034   5.125   4.377  15.825  0.6905 -0.3052  0.0694
 6207TIP3   OH240035   6.308   0.605   2.008 -0.0300 -0.9324  0.3605
 6207TIP3    H140036   6.361   0.622   1.930  1.1928 -2.1783  0.8681
 6207TIP3    H240037   6.264   0.688   2.026 -1.6353 -1.0130 -2.5547
 6208TIP3   OH240038   4.236   4.809   0.908  0.0748  0.1488  0.2468
 6208TIP3    H140039   4.245   4.904   0.894 -0.8451  0.4884  1.7527
 6208TIP3    H240040   4.154   4.786   0.865  0.7048 -0.1387 -0.8266
 6209TIP3   OH240041   0.878   3.091  16.480  0.4499 -0.2433 -0.3094
 6209TIP3    H140042   0.823   3.029  16.529  0.4882 -0.1311 -0.1247
 6209TIP3    H240043   0.829   3.173  16.481  1.7152  0.5721  1.9962
 6210TIP3   OH240044   3.456   0.578   5.727 -0.3297  0.3407 -0.2197
 6210TIP3    H140045   3.543   0.555   5.758 -0.3503 -2.4420 -1.9200
 6210TIP3    H240046   3.470   0.649   5.664  0.4803  1.0562  0.7434
 6211TIP3   OH240047   3.463   4.711  12.778 -0.3026 -0.3980 -0.0410
 6211TIP3    H140048   3.388   4.765  12.807  1.0330  0.4140  2.1772
 6211TIP3    H240049   3.485   4.659  12.855  1.6327 -0.3455 -0.5245
 6212TIP3   OH240050   5.982   5.287   4.109 -1.0861  0.6394 -0.4699
 6212TIP3    H140051   6.011   5.261   4.022  0.5512  0.6314  0.0529
 6212TIP3    H240052   6.044   5.246   4.169 -1.5546  1.4968  0.6532
 6213TIP3   OH240053   2.419   5.180   4.719  0.2574 -0.0751 -0.2325
 6213TIP3    H140054   2.326   5.170   4.736 -0.1460  1.7455 -1.1431
 6213TIP3    H240055   2.453   5.222   4.798  0.1866 -0.1830 -0.1447
 6214TIP3   OH240056   3.881   5.226   2.213  0.2467  0.2258  0.0921
 6214TIP3    H140057   3.817   5.177   2.265 -0.4353  0.0245 -0.9202
 6214TIP3    H240058   3.957   5.235   2.271 -0.9996  1.2475  1.6515
 6215TIP3   OH240059   5.986   0.671   5.248 -0.1962 -0.3926  0.2142
 6215TIP3    H140060   6.049   0.730   5.290  0.0905 -1.2172  0.9789
 6215TIP3    H240061   5.910   0.726   5.229  0.4262  0.4252  0.0420
 6216TIP3   OH240062   0.123   6.155  13.385 -0.2123  0.9741 -0.1668
 6216TIP3    H140063   0.047   6.102  13.359  0.6391 -0.1430 -0.4413
 6216TIP3    H240064   0.166   6.104  13.453 -0.1674  2.0111  0.6081
 6217TIP3   OH240065   4.477   2.807  12.131 -0.3167  0.2544  0.1766
 6217TIP3    H140066   4.417   2.736  12.110  0.9255 -0.9016  0.3739
 6217TIP3    H240067   4.450   2.879  12.074 -0.8275 -0.8034 -0.9693
 6218TIP3   OH240068   2.004   4.468  12.916  0.8043 -0.1771  0.3476
 6218TIP3    H140069   1.954   4.484  12.995  1.6501 -2.7260  1.5101
 6218TIP3    H240070   1.938   4.455  12.848  0.0722  2.5770  0.3916
 6219TIP3   OH240071   3.369   4.024   3.811  0.8514  0.2565  0.1294
 6219TIP3    H140072   3.410   4.025   3.724  1.4865 -1.2894  0.3772
 6219TIP3    H240073   3.407   4.099   3.856 -1.2361  2.5460 -1.6387
 6220TIP3   OH240074   1.329   5.673  15.260 -0.5755 -0.0549 -0.3341
 6220TIP3    H140075   1.271   5.750  15.265 -1.8070 -1.0437  1.5568
 6220TIP3    H240076   1.276   5.601  15.293  0.8144 -1.6081 -1.3409
 6221TIP3   OH240077   5.962   2.891  14.469  0.7175  0.5556  0.4856
 6221TIP3    H140078   5.889   2.835  14.442  0.4546  0.2117  1.8436
 6221TIP3    H240079   5.932   2.933  14.549  1.8499  0.7193  0.8427
 6222TIP3   OH240080   4.287   5.229   5.001  0.4069  0.1912  0.2037
 6222TIP3    H140081   4.241   5.304   5.039 -0.1338  0.3958 -0.8156
 6222TIP3    H240082   4.222   5.189   4.943  0.4942 -1.4194  1.1823
 6223TIP3   OH240083   0.264   3.541   5.331 -0.8049 -0.2784 -0.3542
 6223TIP3    H140084   0.275   3.529   5.236 -1.2711  1.7849 -0.7106
 6223TIP3    H240085   0.171   3.527   5.346 -0.6488 -1.1111 -0.0847
 6224TIP3   OH240086   6.329   0.193   1.285 -0.3273 -0.6448 -0.3414
 6224TIP3    H140087   6.267   0.246   1.336 -0.2366 -1.5981  0.8013
 6224TIP3    H240088   6.368   0.255   1.223 -3.4112 -0.2396 -2.1273
 6225TIP3   OH240089   1.892   4.082   4.182  0.2148 -0.4080 -0.5094
 6225TIP3    H140090   1.918   4.174   4.181 -0.4200 -0.2312 -1.5891
 6225TIP3    H240091   1.896   4.058   4.275 -1.7873  1.3297  0.1046
 6226TIP3   OH240092   2.869   2.886   5.352  0.8238 -0.3722 -0.3739
 6226TIP3    H140093   2.832   2.908   5.438  1.9030 -0.3077  0.0955
 6226TIP3    H240094   2.894   2.970   5.314 -2.0145 -0.1068 -1.9369
 6227TIP3   OH240095   4.930   0.655  11.290 -0.2062 -0.6825 -0.3045
 6227TIP3    H140096   4.966   0.728  11.239 -1.8350  1.1741  1.0459
 6227TIP3    H240097   4.863   0.617  11.234 -0.2501 -0.2788 -0.5288
 6228TIP3   OH240098   5.123   2.560   1.834  0.4792  0.4282  0.2100
 6228TIP3    H140099   5.201   2.547   1.888  0.1115  1.0360  0.8999
 6228TIP3    H240100   5.088   2.472   1.821  1.0042  0.2034  0.3199
 6229TIP3   OH240101   3.893   5.868  12.500  0.1197  0.1510 -0.0247
 6229TIP3    H140102   3.802   5.870  12.530 -0.1305  0.8636 -0.7778
 6229TIP3    H240103   3.938   5.811  12.562 -0.8510 -0.2484  0.3350
 6230TIP3   OH240104   2.054   3.483   5.074 -0.4198  0.1098  0.1249
 6230TIP3    H140105   2.116   3.421   5.037 -1.7316 -0.6279 -0.9258
 6230TIP3    H240106   2.064   3.562   5.021 -2.6714 -1.1174 -2.3186
 6231TIP3   OH240107   2.184   1.641  11.633  0.4719 -0.1645 -0.4324
 6231TIP3    H140108   2.215   1.615  11.720  0.4399 -0.0635 -0.3905
 6231TIP3    H240109   2.203   1.735  11.627 -0.9153  0.1627  0.0619
 6232TIP3   OH240110   6.156   3.325   4.069 -0.0548  0.6577 -0.1041
 6232TIP3    H140111   6.223   3.295   4.008 -0.1384 -1.5504  0.8111
 6232TIP3    H240112   6.073   3.298   4.030 -0.0331 -2.8339  1.8537
 6233TIP3   OH240113   2.694   5.608  15.674  0.5448 -0.3306 -0.3710
 6233TIP3    H140114   2.762   5.559  15.720 -0.0380 -2.3520 -1.5498
 6233TIP3    H240115   2.723   5.610  15.583 -0.2856 -0.0004 -0.6396
 6234TIP3   OH240116   4.029   4.525  13.226  0.2152  0.1828 -0.1884
 6234TIP3    H140117   4.005   4.601  13.278 -0.3928 -1.1407  1.5865
 6234TIP3    H240118   4.121   4.539  13.204  0.0403  1.5326 -0.1400
 6235TIP3   OH240119   5.214   1.797   6.168  0.2770  0.0173  0.3359
 6235TIP3    H140120   5.134   1.776   6.217  0.8630 -1.8620  0.5627
 6235TIP3    H240121   5.278   1.819   6.236  0.0127  1.4295  0.1577
 6236TIP3   OH240122   2.510   3.844  13.433 -0.1933  0.0553  0.4907
 6236TIP3    H140123   2.426   3.811  13.465 -0.0814 -1.3203 -0.5643
 6236TIP3    H240124   2.489   3.884  13.349 -0.3474  2.9242  1.7742
 6237TIP3   OH240125   4.280   6.327   3.456 -0.0713 -0.8239  0.2647
 6237TIP3    H140126   4.210   6.314   3.520 -1.2968  0.4652 -0.7671
 6237TIP3    H240127   4.242   6.300   3.373 -0.3429  2.4066 -0.7646
 6238TIP3   OH240128   2.040   6.554  13.914 -0.5992 -0.1705  0.1688
 6238TIP3    H140129   1.966   6.545  13.853  1.0399 -5.1488 -1.6324
 6238TIP3    H240130   2.104   6.606  13.866 -1.0644 -0.1187 -0.4140
 6239TIP3   OH240131   4.890   6.380   1.074 -0.0412 -0.7224  0.2232
 6239TIP3    H140132   4.894   6.426   1.158  1.7882 -1.7860  0.7965
 6239TIP3    H240133   4.975   6.398   1.033 -0.3997 -1.2774 -0.8092
 6240TIP3   OH240134   4.420   3.688   2.952 -0.0161  0.3411 -0.0607
 6240TIP3    H140135   4.470   3.750   3.005 -2.2075 -0.0973  2.7868
 6240TIP3    H240136   4.400   3.616   3.012 -0.2020 -1.6489 -2.3699
 6241TIP3   OH240137   4.677   4.848  13.914  0.3686 -0.2628  0.1724
 6241TIP3    H140138   4.616   4.842  13.987  1.4660 -1.4304  1.0534
 6241TIP3    H240139   4.632   4.804  13.842 -1.5398  2.6086 -0.5316
 6242TIP3   OH240140   0.754   5.606  13.413  0.8313 -0.5497  0.0417
 6242TIP3    H140141   0.705   5.648  13.483  3.1295  3.2125 -0.3612
 6242TIP3    H240142   0.715   5.642  13.333  0.7121 -1.8583 -0.5153
 6243TIP3   OH240143   0.499   2.907   4.872  0.6309  0.3360  0.0636
 6243TIP3    H140144   0.504   3.001   4.855  5.3406  0.3638  0.2704
 6243TIP3    H240145   0.527   2.898   4.963  0.4341 -1.3111 -0.0084
 6244TIP3   OH240146   3.842   0.345   0.229 -0.1647  0.0337 -0.1957
 6244TIP3    H140147   3.799   0.274   0.182  0.1223  0.0177 -0.4461
 6244TIP3    H240148   3.772   0.390   0.276 -0.4404 -0.0300 -0.5432
 6245TIP3   OH240149   5.222   4.969  11.400  0.2195 -0.0253  0.2253
 6245TIP3    H140150   5.177   4.932  11.477 -0.2004  0.4774  0.2252
 6245TIP3    H240151   5.300   4.914  11.390  0.5092  0.1733  1.2795
 6246TIP3   OH240152   0.663   6.317   0.176 -0.2178 -0.0009  0.4494
 6246TIP3    H140153   0.624   6.231   0.192 -0.2869 -0.2713 -1.0115
 6246TIP3    H240154   0.605   6.379   0.220  0.7633 -0.7808  3.0078
 6247TIP3   OH240155   0.012   3.562   0.353  0.4534 -0.2338 -0.6410
 6247TIP3    H140156   0.059   3.624   0.409 -1.2994 -0.2050  0.8895
 6247TIP3    H240157  -0.075   3.599   0.344 -0.2545 -1.8531 -0.7573
 6248TIP3   OH240158   2.926   2.862   2.846  0.1867  0.3005 -0.7771
 6248TIP3    H140159   2.857   2.863   2.781 -0.7830 -0.2237  0.2103
 6248TIP3    H240160   2.916   2.778   2.891  3.5373 -1.3555 -2.7210
 6249TIP3   OH240161   2.853   4.841  16.863 -0.2266 -0.2435  0.6546
 6249TIP3    H140162   2.847   4.889  16.781  0.4269 -0.9834  0.1541
 6249TIP3    H240163   2.783   4.876  16.918 -0.2670  0.6998  0.0148
 6250TIP3   OH240164   3.975   3.649  14.578  0.0802 -0.3824  0.1359
 6250TIP3    H140165   4.054   3.672  14.530  0.6899  0.0826  1.3137
 6250TIP3    H240166   3.981   3.700  14.659 -2.7980  1.8969 -0.9216
 6251TIP3   OH240167   0.929   6.262   0.155 -0.6134  0.3513  0.2149
 6251TIP3    H140168   0.839   6.291   0.173 -0.8053  0.0773 -0.2810
 6251TIP3    H240169   0.924   6.167   0.156 -0.2939  0.3355  0.3401
 6252TIP3   OH240170   3.488   0.404  10.537  0.7400  0.0748 -0.3228
 6252TIP3    H140171   3.563   0.362  10.580 -0.5067 -0.2675  1.6369
 6252TIP3    H240172   3.516   0.494  10.522  1.5140 -0.0271  0.4539
 6253TIP3   OH240173   3.802   1.504  14.909 -0.0747  0.1513  0.2715
 6253TIP3    H140174   3.864   1.439  14.939 -1.3930 -0.9758  0.6731
 6253TIP3    H240175   3.747   1.523  14.985 -0.2117  1.1504 -0.0489
 6254TIP3   OH240176   5.235   4.198  11.948  0.6914  0.1610  0.4420
 6254TIP3    H140177   5.279   4.114  11.936 -0.0383 -0.2774  0.7484
 6254TIP3    H240178   5.301   4.256  11.985  1.1624 -0.3222  0.3550
 6255TIP3   OH240179   1.039   1.986  12.351  0.0478  0.5035  0.4121
 6255TIP3    H140180   1.084   1.962  12.269 -1.7375  0.8796 -0.7288
 6255TIP3    H240181   0.988   2.063  12.328  0.3670  1.3023  2.2198
 6256TIP3   OH240182   2.952   3.206   4.859 -0.5662 -0.2257  0.0446
 6256TIP3    H140183   2.916   3.119   4.874 -1.8591  0.0693 -1.1893
 6256TIP3    H240184   2.942   3.251   4.943 -0.2584 -1.1209  0.5725
 6257TIP3   OH240185   5.943   1.011   6.109  0.1310 -0.4161  0.1849
 6257TIP3    H140186   5.950   1.104   6.133  1.2502 -0.7363  1.1884
 6257TIP3    H240187   5.880   0.975   6.171  1.5013 -0.8111  1.3992
 6258TIP3   OH240188   0.185   3.901  16.158 -0.3795  0.3552 -0.6255
 6258TIP3    H140189   0.150   3.940  16.078  0.3317  3.2112  0.3256
 6258TIP3    H240190   0.149   3.955  16.228 -1.1939 -2.2309  1.0677
 6259TIP3   OH240191   1.312   1.373  14.670 -0.2692  0.1747 -0.4661
 6259TIP3    H140192   1.257   1.397  14.745 -0.6158  0.3236 -0.7620
 6259TIP3    H240193   1.354   1.291  14.697  0.2476  0.6511  0.2118
 6260TIP3   OH240194   5.117   5.817   1.526  0.0687 -0.1454 -0.5697
 6260TIP3    H140195   5.097   5.784   1.613 -0.4193 -1.0062 -0.9965
 6260TIP3    H240196   5.209   5.793   1.511 -0.1126 -0.8163 -0.6458
 6261TIP3   OH240197   5.589   5.827   2.753  0.4163  0.5886 -0.0125
 6261TIP3    H140198   5.659   5.764   2.736  0.1017 -0.3783  1.9301
 6261TIP3    H240199   5.604   5.855   2.843 -0.2994  2.2414 -0.3754
 6262TIP3   OH240200   2.131   0.177   0.654 -0.4745 -0.2076  0.2166
 6262TIP3    H140201   2.085   0.115   0.597  0.3838  0.2240 -0.9962
 6262TIP3    H240202   2.062   0.213   0.710 -1.4649 -0.2714 -0.9001
 6263TIP3   OH240203   3.329   1.185   0.800  0.4951  0.1302  0.3318
 6263TIP3    H140204   3.405   1.127   0.807  0.4935  0.0959  0.0699
 6263TIP3    H240205   3.325   1.208   0.708  0.2545  0.2236  0.3652
 6264TIP3   OH240206   5.791   1.014   3.485  0.1810 -0.8060 -0.1228
 6264TIP3    H140207   5.730   1.076   3.446  0.5476 -0.2859  0.1182
 6264TIP3    H240208   5.834   0.972   3.411  1.2259  0.5265 -0.2941
 6265TIP3   OH240209   1.512   4.231  12.177  0.2296 -0.0978 -0.0248
 6265TIP3    H140210   1.554   4.247  12.093  0.4914  0.7060  0.2421
 6265TIP3    H240211   1.551   4.150  12.209  2.2431  1.0589  0.5988
 6266TIP3   OH240212   3.648   5.668  16.954 -0.1646  0.0469 -0.2523
 6266TIP3    H140213   3.691   5.684  16.870  0.0054  1.8602  0.1473
 6266TIP3    H240214   3.565   5.714  16.948  0.2328  0.9516  0.8857
 6267TIP3   OH240215   3.836   4.606   3.143 -0.3507 -0.4437 -0.4187
 6267TIP3    H140216   3.835   4.627   3.237 -0.1049  1.4052 -0.7890
 6267TIP3    H240217   3.919   4.560   3.130 -1.2248 -2.3809  0.5706
 6268TIP3   OH240218   0.875   3.147  11.053 -0.2648  0.3112  0.2684
 6268TIP3    H140219   0.940   3.083  11.027 -1.1803 -0.8904  0.7931
 6268TIP3    H240220   0.860   3.200  10.975 -0.8356 -1.3210 -0.7824
 6269TIP3   OH240221   0.115   1.821   3.442  0.2774 -0.0630 -0.1626
 6269TIP3    H140222   0.169   1.745   3.462  1.6757  1.3364  1.7754
 6269TIP3    H240223   0.155   1.860   3.364  0.4356 -0.5064 -0.3018
 6270TIP3   OH240224   3.468   3.170  16.289  0.9851  0.2152 -0.1543
 6270TIP3    H140225   3.465   3.147  16.196  2.1987 -1.8410  0.2362
 6270TIP3    H240226   3.417   3.250  16.296  0.9605  0.4871 -2.6046
 6271TIP3   OH240227   5.218   2.825  14.877  0.1788 -0.0424  0.1630
 6271TIP3    H140228   5.264   2.898  14.919  0.8625  0.4580 -1.3540
 6271TIP3    H240229   5.164   2.868  14.810 -0.8688 -0.8075  0.4899
 6272TIP3   OH240230   2.513   4.974  15.795 -0.1263 -0.2864  0.5826
 6272TIP3    H140231   2.473   4.887  15.788  0.3756 -0.4616 -0.2592
 6272TIP3    H240232   2.597   4.966  15.750 -0.6947  1.0146 -0.7991
 6273TIP3   OH240233   3.997   0.397  16.129 -0.0511 -0.2043 -0.0352
 6273TIP3    H140234   3.982   0.491  16.131 -0.1458 -0.2268  1.2484
 6273TIP3    H240235   4.092   0.387  16.123 -0.0200 -0.0204  0.1419
 6274TIP3   OH240236   1.064   0.121  13.742  0.2977 -0.5171  0.0957
 6274TIP3    H140237   1.138   0.118  13.802 -0.2131  1.1046  0.8641
 6274TIP3    H240238   1.065   0.211  13.707 -0.1321 -1.0674 -1.4032
 6275TIP3   OH240239   0.092   5.238   1.591 -0.1075 -0.0743 -0.8038
 6275TIP3    H140240   0.162   5.288   1.632  1.3330 -1.4221 -1.5271
 6275TIP3    H240241   0.012   5.275   1.627  0.9648  1.4136  0.1647
 6276TIP3   OH240242   0.686   4.601   2.296 -0.0060  0.4076  0.0614
 6276TIP3    H140243   0.745   4.669   2.329 -2.0956  1.9376  0.8415
 6276TIP3    H240244   0.707   4.524   2.349  0.1056  1.4139  1.5370
 6277TIP3   OH240245   2.371   1.238  16.257  0.2619  0.3903  0.2698
 6277TIP3    H140246   2.419   1.170  16.211  1.9016  1.0078  0.9894
 6277TIP3    H240247   2.390   1.318  16.208  0.0986  0.6651  0.6510
 6278TIP3   OH240248   5.326   0.162   0.733  0.2020  0.1932  0.3436
 6278TIP3    H140249   5.330   0.209   0.649  1.0906 -0.3831  0.0429
 6278TIP3    H240250   5.375   0.217   0.794  0.6239  0.0182  0.1686
 6279TIP3   OH240251   0.136   0.088  14.903  0.1387  0.7525  0.2292
 6279TIP3    H140252   0.089   0.095  14.820 -0.3715 -0.0123  0.4399
 6279TIP3    H240253   0.078   0.036  14.959  0.9941  0.2668  0.6833
 6280TIP3   OH240254   5.533   6.353  14.148  0.6203  0.3828  0.3229
 6280TIP3    H140255   5.562   6.325  14.235 -1.8436  0.3662  1.2115
 6280TIP3    H240256   5.603   6.324  14.089  1.1162 -2.0295  1.9590
 6281TIP3   OH240257   6.691   5.343   3.549  0.5831 -0.5958 -0.5619
 6281TIP3    H140258   6.609   5.336   3.597  0.8140 -0.1441 -0.0972
 6281TIP3    H240259   6.757   5.303   3.606  0.6530 -1.1536 -1.0262
 6282TIP3   OH240260   1.528   2.912  11.075  0.4738  0.0534 -0.0353
 6282TIP3    H140261   1.589   2.846  11.106 -0.8059 -1.1325  0.0803
 6282TIP3    H240262   1.581   2.972  11.021  1.5810 -1.3350 -0.5366
 6283TIP3   OH240263   5.312   0.538   2.752  0.0125 -0.1124  0.4919
 6283TIP3    H140264   5.276   0.626   2.762 -0.6682 -0.3061 -0.1084
 6283TIP3    H240265   5.304   0.498   2.838  0.5511  0.4944  0.8250
 6284TIP3   OH240266   3.358   3.833  14.799  0.1582 -0.4750  0.1008
 6284TIP3    H140267   3.423   3.770  14.769 -0.1210  0.2595 -2.2898
 6284TIP3    H240268   3.397   3.872  14.878  2.4473 -0.3566 -1.0056
 6285TIP3   OH240269   5.214   4.665  13.682  0.1042  0.0006 -0.2690
 6285TIP3    H140270   5.230   4.637  13.592 -1.3027  1.2591 -0.9476
 6285TIP3    H240271   5.159   4.595  13.719 -0.7482  0.2906 -0.9497
 6286TIP3   OH240272   5.161   1.924   4.897  0.5765  0.1387 -0.2052
 6286TIP3    H140273   5.183   1.836   4.868  0.5031  0.0674 -0.0479
 6286TIP3    H240274   5.209   1.935   4.980  1.2151  0.5365 -0.6140
 6287TIP3   OH240275   4.884   4.785  13.705  0.7166 -0.4773  0.4373
 6287TIP3    H140276   4.948   4.732  13.753  0.7036 -2.5223 -1.6260
 6287TIP3    H240277   4.916   4.786  13.615 -1.3370 -0.2696 -0.3504
 6288TIP3   OH240278   2.013   1.719  11.913  0.1301 -0.2488  0.3914
 6288TIP3    H140279   2.081   1.749  11.973  0.1863  1.3651 -0.4316
 6288TIP3    H240280   2.031   1.626  11.901  0.0629 -0.6445  2.9003
 6289TIP3   OH240281   2.518   5.803   4.726 -0.2942 -0.0626  0.0574
 6289TIP3    H140282   2.519   5.891   4.689 -2.7242 -0.2847 -0.7683
 6289TIP3    H240283   2.460   5.810   4.802  2.0531 -0.3305  1.9915
 6290TIP3   OH240284   2.030   1.568   4.803  0.9078  0.1114 -0.0512
 6290TIP3    H140285   2.003   1.653   4.770 -1.2158 -0.0941  0.9774
 6290TIP3    H240286   2.112   1.549   4.758  0.7967  2.1324 -1.2025
 6291TIP3   OH240287   4.961   2.421   0.394 -0.2978  0.2305  0.0618
 6291TIP3    H140288   5.027   2.362   0.432 -2.6221 -2.4945  0.2350
 6291TIP3    H240289   4.993   2.440   0.306  2.0031  1.2877  1.0524
 6292TIP3   OH240290   6.057   3.721   4.688  0.4391  0.1348 -0.1474
 6292TIP3    H140291   5.984   3.783   4.685 -0.4872 -0.9388 -1.1420
 6292TIP3    H240292   6.065   3.698   4.781 -0.7649 -0.0080 -0.0562
 6293TIP3   OH240293   5.143   4.529  11.840  0.7768 -0.0945 -0.0379
 6293TIP3    H140294   5.145   4.468  11.913 -0.0071 -1.6320 -1.2340
 6293TIP3    H240295   5.064   4.505  11.791  0.7614  1.5172 -0.8744
 6294TIP3   OH240296   3.363   2.932  11.087  0.3487  0.3126  0.2001
 6294TIP3    H140297   3.322   2.846  11.099  1.5598 -0.0937  1.8145
 6294TIP3    H240298   3.444   2.913  11.040 -0.2612  0.8491 -1.1267
 6295TIP3   OH240299   4.136   2.235   0.406 -0.7371 -0.4934 -0.0472
 6295TIP3    H140300   4.162   2.186   0.484  0.1730 -0.4630 -0.3153
 6295TIP3    H240301   4.189   2.315   0.409 -1.8983  0.2903  0.1587
 6296TIP3   OH240302   2.851   1.416   4.288  0.0251  0.2488  0.2883
 6296TIP3    H140303   2.811   1.387   4.370 -1.4453  0.0057 -0.4808
 6296TIP3    H240304   2.859   1.336   4.237 -1.5866  0.7639 -0.8290
 6297TIP3   OH240305   1.853   3.770  12.609  0.6920  0.4237 -0.2612
 6297TIP3    H140306   1.856   3.682  12.570 -0.5295  0.4948 -0.5683
 6297TIP3    H240307   1.815   3.824  12.540  0.0437  0.8857  0.4435
 6298TIP3   OH240308   4.170   2.227  13.536 -0.1524  0.6362 -0.5312
 6298TIP3    H140309   4.110   2.253  13.606 -1.8067  0.4956 -1.8430
 6298TIP3    H240310   4.138   2.274  13.459 -0.2183 -1.5059 -1.8739
 6299TIP3   OH240311   0.690   6.478  13.441  0.2797  0.1909  0.3201
 6299TIP3    H140312   0.716   6.388  13.420  0.5470  0.0616  1.1416
 6299TIP3    H240313   0.687   6.480  13.537  2.0956  1.5421  0.4079
 6300TIP3   OH240314   5.324   3.498   4.644 -0.5162  0.0592 -0.3824
 6300TIP3    H140315   5.377   3.483   4.723 -1.0459 -0.6904 -0.1615
 6300TIP3    H240316   5.261   3.427   4.643  0.1277 -0.5442 -2.0376
 6301TIP3   OH240317   1.711   6.567  13.204  0.6440  0.4762  0.3183
 6301TIP3    H140318   1.640   6.610  13.251  1.0125 -0.3045  1.6071
 6301TIP3    H240319   1.748   6.637  13.149 -0.5867  1.0812  0.2195
 6302TIP3   OH240320   5.334   0.620  15.545 -0.2442 -0.0694 -0.3560
 6302TIP3    H140321   5.416   0.605  15.498 -1.1326  0.9173 -2.3400
 6302TIP3    H240322   5.360   0.633  15.636  1.9746  1.5874 -1.1471
 6303TIP3   OH240323   2.697   5.981   1.906  0.5438  0.1017 -0.2559
 6303TIP3    H140324   2.752   6.058   1.889 -0.3471  0.7913 -0.0900
 6303TIP3    H240325   2.609   6.017   1.919  0.0212 -0.9985 -0.6779
 6304TIP3   OH240326   0.181   5.215   5.556  0.5277 -0.0448 -0.6093
 6304TIP3    H140327   0.090   5.194   5.578  0.4631  0.3780 -0.4646
 6304TIP3    H240328   0.207   5.278   5.622  1.6145 -1.7332  0.6345
 6305TIP3   OH240329   4.487   4.146   4.699  0.5899  0.0837 -0.3246
 6305TIP3    H140330   4.581   4.162   4.690  0.4794  1.2987  0.4618
 6305TIP3    H240331   4.447   4.201   4.631  0.4366 -0.4212 -0.6508
 6306TIP3   OH240332   5.555   3.635  16.914 -0.3924  0.4889 -0.1042
 6306TIP3    H140333   5.595   3.720  16.930 -1.9528  1.4745 -1.1097
 6306TIP3    H240334   5.623   3.572  16.936  0.6799  1.9642  1.0579
 6307TIP3   OH240335   6.747   0.035  16.100  0.0575 -0.6178 -0.3407
 6307TIP3    H140336   6.770  -0.057  16.109  1.6634 -0.1984  0.2522
 6307TIP3    H240337   6.730   0.047  16.007 -0.9438 -1.6670 -0.3052
 6308TIP3   OH240338   3.666   3.746  15.853  0.2097  0.3992 -0.4046
 6308TIP3    H140339   3.700   3.658  15.867 -1.9394 -0.4923 -0.3693
 6308TIP3    H240340   3.716   3.802  15.913  0.3056 -1.1140  0.9712
 6309TIP3   OH240341   2.081   5.660  15.947 -0.5285  0.0616  0.2001
 6309TIP3    H140342   2.071   5.704  15.863 -0.8688  0.1761  0.3005
 6309TIP3    H240343   2.175   5.667  15.967 -0.0203 -1.8708 -1.2088
 6310TIP3   OH240344   5.488   1.102   0.841  0.1421  0.2639 -0.7378
 6310TIP3    H140345   5.421   1.145   0.894 -0.7175  0.0460 -1.6276
 6310TIP3    H240346   5.464   1.009   0.842  1.1529 -0.0042 -0.0371
 6311TIP3   OH240347   1.890   0.110   0.048 -0.0077 -0.2321  0.0814
 6311TIP3    H140348   1.833   0.187   0.036 -1.0871 -0.8872  0.8109
 6311TIP3    H240349   1.906   0.107   0.142  0.8859 -0.3200 -0.0682
 6312TIP3   OH240350   4.372   6.162  11.497  0.0756  0.3791 -0.7869
 6312TIP3    H140351   4.391   6.077  11.458  0.0724 -0.7424  1.5226
 6312TIP3    H240352   4.305   6.145  11.562  0.5745  2.0101  0.2275
 6313TIP3   OH240353   1.739   4.535   6.409 -0.2088  0.2087 -0.3546
 6313TIP3    H140354   1.674   4.507   6.344  0.3345 -0.0554 -0.8030
 6313TIP3    H240355   1.720   4.627   6.425  0.3538  0.6101 -1.7823
 6314TIP3   OH240356   0.103   0.137   1.389 -0.3149  0.1670 -0.1598
 6314TIP3    H140357   0.147   0.170   1.311 -1.1617 -0.2763 -0.8409
 6314TIP3    H240358   0.019   0.103   1.357 -1.1052  0.8545  1.0738
 6315TIP3   OH240359   4.728   3.652   0.678 -0.0306 -0.3298  0.6836
 6315TIP3    H140360   4.757   3.580   0.734  2.5407 -0.0608 -0.1696
 6315TIP3    H240361   4.643   3.623   0.644 -0.0761 -1.9719  2.0511
 6316TIP3   OH240362   5.600   5.202  12.803  0.3441 -0.2432  0.0806
 6316TIP3    H140363   5.543   5.128  12.780 -0.4438  0.0773  0.9548
 6316TIP3    H240364   5.543   5.278  12.798  0.9256  0.1945  0.0971
 6317TIP3   OH240365   2.543   1.625  10.923  0.1482 -0.1789  0.5255
 6317TIP3    H140366   2.564   1.638  10.831  0.8036 -0.1503  0.6765
 6317TIP3    H240367   2.605   1.558  10.953 -1.2670 -1.5678  0.4892
 6318TIP3   OH240368   2.637   1.731   0.775 -0.1072 -0.1555  0.0032
 6318TIP3    H140369   2.574   1.723   0.703 -0.6438  0.8252  0.3405
 6318TIP3    H240370   2.692   1.653   0.767 -0.2020 -0.1050 -1.4156
 6319TIP3   OH240371   5.098   3.204   4.866  0.2881 -0.1546 -0.3513
 6319TIP3    H140372   5.129   3.163   4.947  1.7485 -0.6551 -1.1155
 6319TIP3    H240373   5.005   3.183   4.862  0.4310 -1.0641  0.6432
 6320TIP3   OH240374   2.248   0.314  16.402 -0.5494  0.6918 -0.4596
 6320TIP3    H140375   2.288   0.282  16.483  1.5414  1.6915 -1.0418
 6320TIP3    H240376   2.201   0.393  16.429  0.3091  1.1358 -0.2500
 6321TIP3   OH240377   5.083   0.378   0.186 -0.2276 -0.3782 -0.1355
 6321TIP3    H140378   5.059   0.290   0.159 -1.5884  0.0066 -0.2332
 6321TIP3    H240379   5.005   0.431   0.171 -0.1871  0.4002  1.9831
 6322TIP3   OH240380   1.530   4.066   2.083 -0.9174  0.6903 -0.1128
 6322TIP3    H140381   1.546   4.140   2.025 -1.2708  1.3378  0.6050
 6322TIP3    H240382   1.473   4.008   2.033 -0.3212  0.7036 -0.8246
 6323TIP3   OH240383   0.441   6.198   3.483 -0.2457  0.1468 -0.5664
 6323TIP3    H140384   0.530   6.209   3.516 -0.8185  0.1254  1.0551
 6323TIP3    H240385   0.440   6.110   3.446  0.3145  0.0340 -0.3192
 6324TIP3   OH240386   3.311   2.866   5.559 -0.3113 -0.2095 -0.1765
 6324TIP3    H140387   3.269   2.802   5.617 -1.6282  1.0720  0.3392
 6324TIP3    H240388   3.247   2.937   5.551  0.4288  0.3150 -2.0544
 6325TIP3   OH240389   0.963   6.544   5.888 -0.1748  0.0595  0.0173
 6325TIP3    H140390   0.980   6.638   5.876 -0.3395 -0.0114 -0.8360
 6325TIP3    H240391   0.933   6.514   5.802 -0.5852 -0.6784  0.4066
 6326TIP3   OH240392   0.345   4.476   3.945  0.1132 -0.2961  0.2314
 6326TIP3    H140393   0.282   4.543   3.970 -0.6285 -0.7287 -0.4117
 6326TIP3    H240394   0.423   4.494   3.998  0.5848  2.1195 -1.1532
 6327TIP3   OH240395   5.962   0.842  12.561  0.3563  1.0234 -0.0523
 6327TIP3    H140396   6.056   0.828  12.566  0.1432 -1.1487 -0.8395
 6327TIP3    H240397   5.926   0.778  12.622 -0.7135 -1.1212 -2.7194
 6328TIP3   OH240398   1.094   5.880   1.401 -0.0221  0.1542 -0.3636
 6328TIP3    H140399   1.046   5.922   1.472  0.4550  1.1872 -0.6307
 6328TIP3    H240400   1.032   5.818   1.364 -0.5142  0.1209  0.4959
 6329TIP3   OH240401   1.016   4.667   4.403  0.3254 -0.8344  0.4486
 6329TIP3    H140402   0.964   4.690   4.480 -0.3005 -1.4201  0.2050
 6329TIP3    H240403   1.038   4.752   4.363  0.3511 -0.5454  1.0689
 6330TIP3   OH240404   3.561   4.929  13.288  0.2258  0.2555  0.1992
 6330TIP3    H140405   3.592   4.984  13.359 -1.9361 -1.0657  2.3196
 6330TIP3    H240406   3.620   4.854  13.287  0.1188  0.1646  0.7610
 6331TIP3   OH240407   2.867   0.295  13.036  0.2365  0.1136  0.9192
 6331TIP3    H140408   2.777   0.276  13.011 -0.1857  2.1993  0.6797
 6331TIP3    H240409   2.859   0.355  13.110  1.4075  0.9519  0.3919
 6332TIP3   OH240410   5.208   3.258   5.480 -0.3791 -0.8366 -0.0397
 6332TIP3    H140411   5.162   3.266   5.397  0.1555  0.1334 -0.2602
 6332TIP3    H240412   5.200   3.345   5.520  1.2650 -0.6325 -0.0980
 6333TIP3   OH240413   0.447   1.567   3.998  0.8058 -0.1691 -0.3889
 6333TIP3    H140414   0.530   1.582   3.954  1.5611 -3.1424 -0.1766
 6333TIP3    H240415   0.418   1.481   3.968  0.2252 -1.3731  3.0877
 6334TIP3   OH240416   1.609   5.000  14.238 -0.8520 -0.2616  0.4823
 6334TIP3    H140417   1.560   4.930  14.195 -1.7228  1.5185 -1.6265
 6334TIP3    H240418   1.546   5.038  14.300 -1.1886  0.1429 -0.0959
 6335TIP3   OH240419   0.174   4.856   0.957 -0.5414 -0.1254  0.3842
 6335TIP3    H140420   0.214   4.915   1.020 -0.8009 -0.2195  0.6417
 6335TIP3    H240421   0.111   4.805   1.009  0.1997 -1.1323  0.3089
 6336TIP3   OH240422   2.570   4.940   5.024 -0.2577  0.1074  0.2292
 6336TIP3    H140423   2.593   4.847   5.019  1.8284  0.6116 -0.7292
 6336TIP3    H240424   2.560   4.957   5.117 -0.4495 -1.0171  0.4349
 6337TIP3   OH240425   3.811   0.712  13.684  0.3316  0.2785  0.6756
 6337TIP3    H140426   3.834   0.791  13.733 -0.1790  0.7496  0.1744
 6337TIP3    H240427   3.718   0.723  13.664  0.1561 -0.6538  0.9625
 6338TIP3   OH240428   5.866   6.051  10.930 -0.5786  0.3949  0.2749
 6338TIP3    H140429   5.881   6.008  11.013  0.4125  0.8314  0.3373
 6338TIP3    H240430   5.935   6.019  10.872 -1.3043  0.0271 -0.4146
 6339TIP3   OH240431   6.496   4.109   3.688 -0.4463  0.3424 -0.4311
 6339TIP3    H140432   6.573   4.106   3.631  0.1144 -1.1972  0.3411
 6339TIP3    H240433   6.461   4.197   3.676  3.2520  2.3517  1.4809
 6340TIP3   OH240434   1.149   3.083  16.915 -0.5989 -0.3488  0.1678
 6340TIP3    H140435   1.075   3.112  16.861 -0.5743 -1.2307 -0.3658
 6340TIP3    H240436   1.164   3.155  16.976 -0.2549  0.9485 -1.3720
 6341TIP3   OH240437   2.070   2.853   1.390  0.3012 -0.0879 -0.4168
 6341TIP3    H140438   2.034   2.777   1.346 -2.1560  0.0719  1.1255
 6341TIP3    H240439   1.994   2.904   1.417  1.7564  1.2286  1.5061
 6342TIP3   OH240440   5.045   5.741   0.732  0.0347  0.3105 -0.7765
 6342TIP3    H140441   5.005   5.672   0.680 -2.5865  0.9164  0.2749
 6342TIP3    H240442   5.139   5.720   0.732 -0.2392 -1.3091 -3.2276
 6343TIP3   OH240443   0.798   0.015   4.987  0.0208  0.2388  0.5803
 6343TIP3    H140444   0.718   0.054   5.022  0.5828  1.3302  0.7021
 6343TIP3    H240445   0.769  -0.067   4.945 -1.1701  0.6876  0.4869
 6344TIP3   OH240446   5.349   0.861  14.748 -0.2088 -0.3521  0.1002
 6344TIP3    H140447   5.311   0.809  14.819  2.2164 -2.2223  0.1219
 6344TIP3    H240448   5.406   0.924  14.792 -3.7898  3.2687  0.1549
 6345TIP3   OH240449   5.232   6.598   2.967 -0.3636 -0.8342 -0.1730
 6345TIP3    H140450   5.312   6.623   2.921  0.2854 -2.2294  0.1740
 6345TIP3    H240451   5.223   6.504   2.952 -1.1479 -0.9719  1.0220
 6346TIP3   OH240452   4.254   4.445  12.850  0.5428  0.8032  0.1174
 6346TIP3    H140453   4.203   4.453  12.769 -1.6260 -0.0909  1.3105
 6346TIP3    H240454   4.340   4.416  12.821 -0.5969 -0.9743 -1.8150
 6347TIP3   OH240455   2.615   5.930  12.326 -0.0730 -0.0587 -0.6365
 6347TIP3    H140456   2.546   5.990  12.354 -0.4462 -0.6142 -0.3392
 6347TIP3    H240457   2.653   5.897  12.408  1.3286  1.0938 -0.7740
 6348TIP3   OH240458   0.547   3.126  16.798  0.6332  0.4730 -0.3370
 6348TIP3    H140459   0.601   3.170  16.864  1.8547  1.2082 -1.7524
 6348TIP3    H240460   0.458   3.133  16.832  1.2821  0.2411  1.5305
 6349TIP3   OH240461   3.431   4.402   0.633 -0.2379  0.3434  0.6725
 6349TIP3    H140462   3.510   4.450   0.611  0.1735 -0.0441  1.2541
 6349TIP3    H240463   3.360   4.451   0.591  0.3078  0.6863  0.1361
 6350TIP3   OH240464   1.376   4.405  11.644  0.4772 -0.1550 -0.6539
 6350TIP3    H140465   1.310   4.340  11.667 -1.2500  1.0179 -2.0259
 6350TIP3    H240466   1.441   4.356  11.593  0.8447 -1.3665  0.8945
 6351TIP3   OH240467   6.767   3.978   3.238 -0.2220  0.1277  0.3621
 6351TIP3    H140468   6.806   4.046   3.182  1.4735 -1.0771 -0.0206
 6351TIP3    H240469   6.718   3.922   3.177  0.0421 -0.1016  0.3546
 6352TIP3   OH240470   1.358   3.059   3.130  0.3236  0.2650  0.1008
 6352TIP3    H140471   1.438   3.096   3.167  0.7932 -1.2060  0.5976
 6352TIP3    H240472   1.348   3.103   3.045  0.3474  2.1847  1.0409
 6353TIP3   OH240473   3.281   0.973  13.518  0.0265 -0.2391 -0.0027
 6353TIP3    H140474   3.270   0.902  13.581 -0.2743  0.8944  1.2660
 6353TIP3    H240475   3.243   0.940  13.437 -0.6272 -1.3097  0.7230
 6354TIP3   OH240476   5.656   4.185  12.850 -0.2826 -0.0630 -0.2677
 6354TIP3    H140477   5.679   4.092  12.841  3.4858  0.6494  0.0937
 6354TIP3    H240478   5.613   4.192  12.935 -1.3463 -1.5434 -0.6493
 6355TIP3   OH240479   3.143   0.730   1.668 -0.2852  0.6481  0.1173
 6355TIP3    H140480   3.140   0.713   1.763 -3.4611 -1.5354 -0.2041
 6355TIP3    H240481   3.206   0.667   1.634  1.6325  2.1196  0.8199
 6356TIP3   OH240482   2.079   0.152   2.484  0.2958  0.1773 -0.1398
 6356TIP3    H140483   2.040   0.141   2.570  1.9924 -2.6745  0.4085
 6356TIP3    H240484   2.151   0.214   2.498 -0.4058  0.9467  0.1138
 6357TIP3   OH240485   1.339   4.943  16.771 -0.3829  1.1021 -0.3553
 6357TIP3    H140486   1.255   4.953  16.725 -0.5924 -1.1506 -0.5476
 6357TIP3    H240487   1.323   4.982  16.857 -2.5417 -1.4622  0.5626
 6358TIP3   OH240488   2.616   0.485  15.588 -0.0342 -0.0997 -0.1835
 6358TIP3    H140489   2.569   0.455  15.511  0.4939  0.9613 -0.9461
 6358TIP3    H240490   2.594   0.578  15.595  0.5157 -0.0129  0.4923
 6359TIP3   OH240491   6.599   1.645   4.180 -0.0978  0.8097  0.0293
 6359TIP3    H140492   6.541   1.599   4.119  0.6505 -1.0304  0.6392
 6359TIP3    H240493   6.545   1.659   4.259 -0.0323  0.0418  0.2148
 6360TIP3   OH240494   6.592   3.275   1.846 -0.8006  0.6237 -0.0256
 6360TIP3    H140495   6.527   3.227   1.794 -0.7113 -0.4697  0.8497
 6360TIP3    H240496   6.622   3.345   1.788 -1.7024  0.2625 -0.9542
 6361TIP3   OH240497   1.966   4.491  14.816  0.1914  0.2291 -0.1694
 6361TIP3    H140498   2.061   4.478  14.818 -0.0080 -1.2470  0.5757
 6361TIP3    H240499   1.954   4.584  14.836  1.4814  0.4584 -0.4063
 6362TIP3   OH240500   1.345   5.424  14.451  0.1893  0.0785  0.5812
 6362TIP3    H140501   1.322   5.440  14.543  2.0671 -0.7863  1.2468
 6362TIP3    H240502   1.406   5.494  14.430  0.3211 -0.1529  0.2058
 6363TIP3   OH240503   1.556   0.714  14.463 -0.1062 -0.2583 -0.0425
 6363TIP3    H140504   1.574   0.795  14.511  1.1957  0.2005 -1.2188
 6363TIP3    H240505   1.530   0.651  14.530  1.6549  0.3519  1.2901
 6364TIP3   OH240506   1.164   4.236  11.700 -0.0654 -0.0919 -0.8802
 6364TIP3    H140507   1.193   4.147  11.680  2.3361  0.8199 -1.8838
 6364TIP3    H240508   1.090   4.225  11.759  1.8266 -2.7565  1.2444
 6365TIP3   OH240509   2.218   4.143  12.725  0.5981  0.5477 -0.3941
 6365TIP3    H140510   2.193   4.234  12.705  0.3929  0.2625 -1.5138
 6365TIP3    H240511   2.280   4.120  12.656 -0.7580 -0.7547 -1.2348
 6366TIP3   OH240512   5.544   0.791   4.618 -0.2272 -0.3192 -0.0224
 6366TIP3    H140513   5.526   0.716   4.674  2.3721 -1.7987 -1.0016
 6366TIP3    H240514   5.625   0.769   4.573 -0.7971  1.9213 -2.4171
 6367TIP3   OH240515   0.445   5.930  10.711 -0.5889 -0.5765  0.1229
 6367TIP3    H140516   0.433   5.978  10.793  1.4387 -2.8107  1.8702
 6367TIP3    H240517   0.383   5.856  10.717 -1.2008 -0.1774 -0.9110
 6368TIP3   OH240518   2.669   2.110  14.140 -0.5564 -0.7071 -0.5228
 6368TIP3    H140519   2.650   2.053  14.065 -1.3813 -1.5575  0.2980
 6368TIP3    H240520   2.706   2.051  14.205 -1.0219 -0.2299  0.1904
 6369TIP3   OH240521   0.494   6.646  15.418  0.0581  0.4138 -0.7064
 6369TIP3    H140522   0.530   6.640  15.507  0.6475  0.8808 -0.9031
 6369TIP3    H240523   0.568   6.625  15.361 -0.4870 -0.5794 -1.0815
 6370TIP3   OH240524   3.441   3.785  15.689 -0.1935 -0.3543 -0.1215
 6370TIP3    H140525   3.521   3.748  15.727  0.8916 -0.0642 -2.0143
 6370TIP3    H240526   3.431   3.870  15.732  0.2321 -0.6006  0.4759
 6371TIP3   OH240527   6.746   4.159  15.846 -0.1966  0.0028  0.0449
 6371TIP3    H140528   6.719   4.232  15.790 -1.6511 -0.0518  0.6503
 6371TIP3    H240529   6.828   4.189  15.886 -0.8249  1.3591  0.3769
 6372TIP3   OH240530   0.349   4.806  12.523  0.4208  0.4805 -0.6282
 6372TIP3    H140531   0.352   4.879  12.461  0.5737  1.6503  0.6986
 6372TIP3    H240532   0.436   4.765  12.516  0.3475  0.4387 -1.3582
 6373TIP3   OH240533   3.208   4.139  13.893  0.4448 -0.1394 -0.0433
 6373TIP3    H140534   3.165   4.058  13.864  0.8467 -0.5154  0.3990
 6373TIP3    H240535   3.135   4.200  13.907  0.1493 -0.3762 -0.5269
 6374TIP3   OH240536   1.127   6.097   5.151 -0.1141 -0.1639  0.4823
 6374TIP3    H140537   1.126   6.190   5.128  2.2774 -0.5856 -1.8139
 6374TIP3    H240538   1.036   6.069   5.136 -1.0038  1.8289  1.6931
 6375TIP3   OH240539   1.692   4.084   0.465  0.4294  0.7878 -0.3745
 6375TIP3    H140540   1.742   4.073   0.546  1.4207  2.8214 -0.6558
 6375TIP3    H240541   1.698   3.999   0.422 -0.4448 -0.4695  1.8176
 6376TIP3   OH240542   2.326   4.055  11.627  0.0028  0.2102 -0.3488
 6376TIP3    H140543   2.357   4.083  11.713 -2.7220  1.1045  0.4625
 6376TIP3    H240544   2.358   4.121  11.566  0.9708  0.2179  0.1518
 6377TIP3   OH240545   1.937   1.181  10.461 -0.3600  0.2406  0.7871
 6377TIP3    H140546   1.941   1.250  10.527 -1.7196  1.1803 -0.0697
 6377TIP3    H240547   1.878   1.215  10.394  1.5305 -0.3562 -1.3154
 6378TIP3   OH240548   3.719   4.658   2.853 -0.5531 -0.2645  0.4123
 6378TIP3    H140549   3.768   4.639   2.772 -0.8952 -0.4641  0.2518
 6378TIP3    H240550   3.784   4.649   2.923 -0.0150  0.8840  0.0755
 6379TIP3   OH240551   2.776   1.581  14.978 -0.2918  0.5794  0.6748
 6379TIP3    H140552   2.793   1.521  15.051  2.0924 -1.0565 -1.0686
 6379TIP3    H240553   2.734   1.526  14.912 -1.0433  1.6572  0.2358
 6380TIP3   OH240554   4.206   2.241  10.736 -0.7458  0.0379 -0.1876
 6380TIP3    H140555   4.168   2.272  10.654 -1.4892  1.0607  0.5099
 6380TIP3    H240556   4.202   2.317  10.794 -2.4541 -1.2722  1.5428
 6381TIP3   OH240557   0.667   1.875  12.304  0.6688  0.0682  0.0900
 6381TIP3    H140558   0.699   1.809  12.242 -1.5697 -1.0026 -0.0192
 6381TIP3    H240559   0.601   1.923  12.255 -1.6260 -1.2176  1.7420
 6382TIP3   OH240560   4.245   3.997  14.851 -0.1258 -0.1360  0.4846
 6382TIP3    H140561   4.163   4.037  14.879  0.6014  1.1528  0.9005
 6382TIP3    H240562   4.312   4.045  14.900  0.8388 -1.5738  0.6272
 6383TIP3   OH240563   6.645   2.566  14.673  0.2525 -0.0972 -0.1310
 6383TIP3    H140564   6.610   2.500  14.613 -0.1698  0.1921 -0.2042
 6383TIP3    H240565   6.620   2.534  14.760 -1.3493  0.7630 -0.2457
 6384TIP3   OH240566   1.566   5.517  12.998  0.4246  0.1008 -0.5321
 6384TIP3    H140567   1.529   5.517  13.086  3.3034 -1.4381  0.8237
 6384TIP3    H240568   1.593   5.608  12.984  0.8173  0.1783  0.6024
 6385TIP3   OH240569   6.596   1.875  13.881  0.1548 -0.4607 -0.1924
 6385TIP3    H140570   6.546   1.951  13.849 -2.1453 -2.0728 -0.6017
 6385TIP3    H240571   6.548   1.845  13.958  1.1523 -1.4017  0.0791
 6386TIP3   OH240572   5.200   2.708  10.688 -0.1619  0.2377 -0.2987
 6386TIP3    H140573   5.285   2.667  10.672  0.7124  2.1060 -0.7732
 6386TIP3    H240574   5.154   2.701  10.605 -0.8761 -1.5767  0.2106
 6387TIP3   OH240575   5.121   5.326  16.658  0.1015 -0.0432  0.4365
 6387TIP3    H140576   5.058   5.369  16.600  1.6669  1.2789 -0.3465
 6387TIP3    H240577   5.145   5.246  16.611  0.0043  0.1070  0.1294
 6388TIP3   OH240578   4.060   3.625   0.329 -0.0894 -0.0147 -0.2778
 6388TIP3    H140579   3.995   3.695   0.343 -0.3310 -0.0072 -1.3556
 6388TIP3    H240580   4.072   3.623   0.234  0.7097 -0.7342 -0.1660
 6389TIP3   OH240581   4.429   3.544  12.709 -0.6565  0.1479  0.1700
 6389TIP3    H140582   4.405   3.453  12.727 -3.6475  0.0699 -3.0658
 6389TIP3    H240583   4.368   3.596  12.761 -0.6696  0.2353  0.0677
 6390TIP3   OH240584   6.207   4.867   2.158  0.0635  0.0911 -0.1988
 6390TIP3    H140585   6.164   4.858   2.073  0.0856 -1.3636 -0.0761
 6390TIP3    H240586   6.234   4.778   2.182 -2.4455 -0.1071  2.6125
 6391TIP3   OH240587   6.034   4.747  12.655  0.0385 -0.3214 -0.0996
 6391TIP3    H140588   6.072   4.769  12.570  0.2983  1.0458  0.3453
 6391TIP3    H240589   6.036   4.830  12.704 -2.4811 -0.4333  0.3396
 6392TIP3   OH240590   4.401   5.104   0.108 -0.0698  0.3631 -0.2036
 6392TIP3    H140591   4.463   5.144   0.168 -2.7114  1.3142  2.1083
 6392TIP3    H240592   4.354   5.178   0.069 -1.9055 -0.3420  0.5914
 6393TIP3   OH240593   2.682   1.422  12.941 -0.0926  0.0970  0.0366
 6393TIP3    H140594   2.617   1.475  12.895  0.5676  0.1964 -0.8081
 6393TIP3    H240595   2.765   1.448  12.904  0.4675  0.1167  1.2577
 6394TIP3   OH240596   4.390   6.499   1.964  0.3990  0.2053 -0.1541
 6394TIP3    H140597   4.463   6.558   1.947  1.1824 -0.3241  1.2126
 6394TIP3    H240598   4.430   6.412   1.973 -0.3949 -0.1159  0.4763
 6395TIP3   OH240599   5.011   3.115   3.448 -0.4043 -0.0635  0.3806
 6395TIP3    H140600   5.033   3.033   3.493  1.3149  0.9027  1.4191
 6395TIP3    H240601   4.980   3.173   3.518 -0.4770  0.5388 -0.1440
 6396TIP3   OH240602   3.476   3.880  11.139 -0.2685 -0.9501  0.1955
 6396TIP3    H140603   3.426   3.917  11.211  0.9227 -2.2185  1.7728
 6396TIP3    H240604   3.492   3.953  11.080  0.5517  0.7056  2.3241
 6397TIP3   OH240605   6.262   5.892  16.285  0.3869  0.2093  0.4596
 6397TIP3    H140606   6.207   5.830  16.335  1.8804 -1.3651  0.2448
 6397TIP3    H240607   6.200   5.958  16.254 -1.7523 -2.3270 -1.1537
 6398TIP3   OH240608   3.560   2.919  14.090  0.1602  0.1438  0.4954
 6398TIP3    H140609   3.570   3.010  14.062  0.7820 -0.1096 -0.1213
 6398TIP3    H240610   3.623   2.908  14.160  2.5321 -0.7077 -1.6240
 6399TIP3   OH240611   2.745   4.414   2.895  0.0305 -0.2756  0.0923
 6399TIP3    H140612   2.719   4.425   2.986  1.4507  1.0087  0.3905
 6399TIP3    H240613   2.840   4.402   2.898  0.0964 -0.2563 -1.2089
 6400TIP3   OH240614   4.750   0.031  12.740  0.8584 -0.0853  0.4838
 6400TIP3    H140615   4.671   0.050  12.790 -1.1514 -0.1114 -2.4835
 6400TIP3    H240616   4.754  -0.064  12.737 -1.8312 -0.2790 -3.2118
 6401TIP3   OH240617   5.756   3.350  12.396 -0.3646 -0.2484 -0.0861
 6401TIP3    H140618   5.737   3.343  12.490 -2.1767 -1.3869 -0.4858
 6401TIP3    H240619   5.828   3.412  12.391 -1.0478  0.8186  1.9749
 6402TIP3   OH240620   5.194   4.203   3.847  0.0277 -0.1303  0.1417
 6402TIP3    H140621   5.256   4.230   3.779 -1.0392 -0.9441 -1.1967
 6402TIP3    H240622   5.157   4.285   3.880  0.2055  0.2589 -0.6089
 6403TIP3   OH240623   2.866   1.727   5.562 -0.0745 -0.0964 -0.3249
 6403TIP3    H140624   2.906   1.814   5.564 -0.1104 -0.0834  0.1049
 6403TIP3    H240625   2.825   1.721   5.476  0.5669  0.0180 -0.6487
 6404TIP3   OH240626   1.858   6.764   5.735 -0.3667  0.1764  0.3067
 6404TIP3    H140627   1.823   6.840   5.689  0.9392 -0.0128 -1.1100
 6404TIP3    H240628   1.818   6.689   5.690 -1.2559 -0.0031  1.3623
 6405TIP3   OH240629   3.953   2.655   1.425 -0.3121  0.2202  0.0067
 6405TIP3    H140630   3.932   2.564   1.406 -1.1717  0.3536  0.2722
 6405TIP3    H240631   4.003   2.685   1.349 -2.1547  0.2274 -1.2744
 6406TIP3   OH240632   2.360   3.580   5.050 -0.8779  0.1195  0.0417
 6406TIP3    H140633   2.425   3.578   4.980 -0.7168  0.3640  0.1832
 6406TIP3    H240634   2.388   3.651   5.108  1.0021 -2.2973  2.3233
 6407TIP3   OH240635   1.857   0.016   4.839  0.1491 -0.2894 -0.3181
 6407TIP3    H140636   1.782   0.000   4.782 -0.5583  0.0234  0.5043
 6407TIP3    H240637   1.878   0.109   4.827 -1.1620  0.2454  1.2640
 6408TIP3   OH240638   1.958   5.192   3.030  0.4945  0.2233  0.1700
 6408TIP3    H140639   1.895   5.264   3.025 -0.8080 -0.7827  1.0702
 6408TIP3    H240640   1.907   5.114   3.007  1.3912 -0.6386  0.9692
 6409TIP3   OH240641   0.277   3.060  11.864 -0.1390 -0.8119 -0.4285
 6409TIP3    H140642   0.341   3.131  11.874  0.0477 -0.7478 -1.8759
 6409TIP3    H240643   0.265   3.052  11.770 -0.2239 -2.6450 -0.2957
 6410TIP3   OH240644   5.474   0.589  17.036 -0.1414 -0.1929 -0.2875
 6410TIP3    H140645   5.474   0.500  17.072 -1.2671  0.2093  0.7837
 6410TIP3    H240646   5.419   0.583  16.958 -0.6702 -0.3222  0.0915
 6411TIP3   OH240647   1.287   1.157  10.728  0.1168 -0.0773 -0.4473
 6411TIP3    H140648   1.221   1.227  10.729 -0.3712 -0.5320  0.1355
 6411TIP3    H240649   1.277   1.117  10.642 -1.4045 -1.0826  0.1598
 6412TIP3   OH240650   3.881   6.229  16.992 -0.2996  0.4989 -0.3577
 6412TIP3    H140651   3.859   6.154  17.046 -1.7125  0.7258 -0.5825
 6412TIP3    H240652   3.953   6.199  16.937 -0.4531 -0.4970 -0.0251
 6413TIP3   OH240653   5.254   3.289  11.777  0.2123 -0.1538  0.0854
 6413TIP3    H140654   5.349   3.283  11.783  0.2569 -2.8945 -1.3157
 6413TIP3    H240655   5.225   3.198  11.779 -2.3456  0.5843 -0.1639
 6414TIP3   OH240656   4.247   2.245   2.032  0.1545  0.2865  0.3079
 6414TIP3    H140657   4.227   2.259   2.125  2.2428  1.8916  0.6190
 6414TIP3    H240658   4.319   2.306   2.015  1.1669 -1.4093 -1.8717
 6415TIP3   OH240659   5.267   3.709  13.889 -0.7986  0.2553  0.2865
 6415TIP3    H140660   5.232   3.699  13.800  1.1652 -1.2367 -0.3885
 6415TIP3    H240661   5.203   3.666  13.945 -1.0394 -0.6521 -0.6653
 6416TIP3   OH240662   5.378   4.754  15.669 -0.0373 -0.4264  0.0269
 6416TIP3    H140663   5.407   4.786  15.754 -0.7355 -0.3181  0.2310
 6416TIP3    H240664   5.459   4.736  15.621  0.4435  2.5375 -0.4602
 6417TIP3   OH240665   2.709   1.692   0.152 -0.0680 -0.4610  0.1052
 6417TIP3    H140666   2.648   1.690   0.078  1.3419  2.3207 -1.2943
 6417TIP3    H240667   2.717   1.785   0.174  1.9901 -0.9371  1.6878
 6418TIP3   OH240668   5.826   4.539   2.670 -0.0195  0.3379  0.1059
 6418TIP3    H140669   5.807   4.512   2.580 -1.2363  0.3294  0.3538
 6418TIP3    H240670   5.798   4.465   2.724 -0.3414  0.7967  0.5692
 6419TIP3   OH240671   1.777   6.634   2.242 -0.2085  0.2406  0.2313
 6419TIP3    H140672   1.760   6.636   2.336 -1.6478  0.5800 -0.0053
 6419TIP3    H240673   1.758   6.722   2.212 -3.2602 -0.6582 -0.8725
 6420TIP3   OH240674   0.466   3.229   5.520 -0.8256  0.0102  0.0696
 6420TIP3    H140675   0.390   3.208   5.467  0.0716 -1.9465 -0.5431
 6420TIP3    H240676   0.518   3.148   5.522  0.5077  0.8193  1.7021
 6421TIP3   OH240677   3.351   3.848  11.940 -0.7758 -0.3561  0.0241
 6421TIP3    H140678   3.349   3.764  11.985  1.3667 -1.1519 -1.2436
 6421TIP3    H240679   3.417   3.899  11.986 -1.1978  0.2139  0.0244
 6422TIP3   OH240680   3.626   4.151  14.910  0.5944 -0.2786  0.5198
 6422TIP3    H140681   3.661   4.069  14.946 -0.2524 -1.6101 -1.5145
 6422TIP3    H240682   3.664   4.157  14.822 -1.4528  0.0650 -0.3942
 6423TIP3   OH240683   2.084   1.730   6.073 -0.0568  0.0956  0.5660
 6423TIP3    H140684   2.073   1.761   6.163 -1.9929  0.8058  0.1422
 6423TIP3    H240685   2.171   1.760   6.047  0.6713 -0.4099  2.2844
 6424TIP3   OH240686   3.302   5.189  16.774  0.0593 -0.3546  0.2269
 6424TIP3    H140687   3.354   5.109  16.776  0.9819  0.1692 -1.2095
 6424TIP3    H240688   3.356   5.255  16.818 -0.9729 -0.6323  1.9959
 6425TIP3   OH240689   3.890   4.872  10.620  0.0718 -0.2018 -0.2087
 6425TIP3    H140690   3.807   4.904  10.654 -0.2345 -0.0786 -1.0414
 6425TIP3    H240691   3.865   4.806  10.555  0.6116 -0.0040 -0.6288
 6426TIP3   OH240692   3.144   4.886  12.304  0.1213 -0.0007 -0.6870
 6426TIP3    H140693   3.178   4.814  12.357 -0.5369  0.2482  0.1015
 6426TIP3    H240694   3.057   4.857  12.276  0.5168 -0.1845 -1.7667
 6427TIP3   OH240695   4.222   4.226   5.937  0.1225  0.1178 -0.0789
 6427TIP3    H140696   4.181   4.149   5.897 -0.9019  0.0719  0.9800
 6427TIP3    H240697   4.195   4.299   5.882 -1.4723  0.0859  0.5926
 6428TIP3   OH240698   4.788   1.202   3.034 -0.4463  0.6415  0.0526
 6428TIP3    H140699   4.740   1.167   2.959  0.2250 -2.2936  0.8275
 6428TIP3    H240700   4.851   1.263   2.997  0.1488 -1.0269 -1.8951
 6429TIP3   OH240701   2.302   0.353  11.638  0.7501 -0.3258 -0.1448
 6429TIP3    H140702   2.284   0.420  11.572  1.1889 -1.0851 -1.0615
 6429TIP3    H240703   2.354   0.399  11.704 -0.6718  0.7423  0.2900
 6430TIP3   OH240704   1.567   3.363  13.199  0.1900 -0.7908  0.3982
 6430TIP3    H140705   1.583   3.381  13.106  0.1020 -1.7315  0.1899
 6430TIP3    H240706   1.640   3.306  13.225 -0.1138 -1.0238  0.7509
 6431TIP3   OH240707   1.204   0.071  13.966 -0.1148 -0.5678  0.2600
 6431TIP3    H140708   1.127   0.112  14.006  0.9757 -0.7034  2.6939
 6431TIP3    H240709   1.245   0.023  14.037  1.2768 -1.9732 -1.3982
 6432TIP3   OH240710   0.756   2.788  16.373  0.1368  0.0297  0.0931
 6432TIP3    H140711   0.849   2.800  16.390 -0.3268  2.0735  1.5717
 6432TIP3    H240712   0.715   2.793  16.459 -1.5382  1.4311 -0.7375
 6433TIP3   OH240713   4.363   2.206  11.861  0.0522 -0.0111 -0.1365
 6433TIP3    H140714   4.380   2.149  11.935  0.1826  0.2533  0.0368
 6433TIP3    H240715   4.384   2.153  11.784 -1.3666 -0.7529 -0.0469
 6434TIP3   OH240716   2.190   4.210   4.360 -0.1828  0.0440  1.1108
 6434TIP3    H140717   2.115   4.154   4.380 -0.5792  0.1986  0.1275
 6434TIP3    H240718   2.163   4.259   4.282  0.4213  1.1022  1.5444
 6435TIP3   OH240719   6.194   2.734  12.759  0.1748 -0.3360 -0.8942
 6435TIP3    H140720   6.195   2.670  12.688 -1.1787  1.1639 -2.3435
 6435TIP3    H240721   6.101   2.754  12.772  0.5335  0.8935 -0.0679
 6436TIP3   OH240722   3.431   0.923  15.458  0.2220 -0.3412  0.6654
 6436TIP3    H140723   3.395   0.893  15.542 -1.1606 -0.0048  0.2282
 6436TIP3    H240724   3.456   1.014  15.473 -1.7582  0.3210  0.2709
 6437TIP3   OH240725   4.767   3.845   1.263 -0.7469 -0.2793 -0.1640
 6437TIP3    H140726   4.749   3.836   1.170 -1.8037 -0.0367  0.0029
 6437TIP3    H240727   4.702   3.790   1.306 -0.1915 -0.4937  0.4337
 6438TIP3   OH240728   3.046   2.425  14.751  0.5135  0.6627 -0.2343
 6438TIP3    H140729   2.971   2.436  14.808 -0.0765 -0.4597 -0.7543
 6438TIP3    H240730   3.022   2.471  14.671  0.2345  0.0595 -0.5077
 6439TIP3   OH240731   4.501   6.290  11.285 -0.2283  0.2244 -0.0914
 6439TIP3    H140732   4.460   6.235  11.219  1.1542 -1.4470  0.3663
 6439TIP3    H240733   4.463   6.261  11.368  0.1396  0.3102  0.1089
 6440TIP3   OH240734   1.477   5.421  11.958 -0.4904  0.3704  0.1508
 6440TIP3    H140735   1.542   5.463  11.902 -1.3735 -0.3305 -1.4461
 6440TIP3    H240736   1.514   5.335  11.977 -0.2048  0.5967  0.6501
 6441TIP3   OH240737   1.476   1.727  16.032  0.2053 -0.0331  0.1815
 6441TIP3    H140738   1.482   1.709  16.126 -0.3761 -0.7333  0.0931
 6441TIP3    H240739   1.391   1.769  16.021  1.3764  2.5495  0.3241
 6442TIP3   OH240740   6.450   0.332  14.770  0.3341  0.4046 -0.0922
 6442TIP3    H140741   6.546   0.332  14.774  0.3122  2.0868  1.8611
 6442TIP3    H240742   6.422   0.359  14.857 -1.9968 -1.5843 -0.1114
 6443TIP3   OH240743   0.472   6.737   1.298 -0.1565 -0.1650 -0.8028
 6443TIP3    H140744   0.422   6.705   1.223 -1.6024  0.2476 -0.0523
 6443TIP3    H240745   0.550   6.778   1.259  0.1214 -1.6893 -1.9409
 6444TIP3   OH240746   6.118   6.628   5.308  0.3693  0.8746  0.1393
 6444TIP3    H140747   6.196   6.660   5.354  0.7873 -0.0934  0.1157
 6444TIP3    H240748   6.144   6.545   5.270 -0.5265  0.7874 -0.3166
 6445TIP3   OH240749   3.740   6.356   1.192  0.0783 -0.1334 -0.9232
 6445TIP3    H140750   3.704   6.352   1.280  4.0869 -0.7583  0.9120
 6445TIP3    H240751   3.724   6.270   1.155  0.3587 -0.6599  0.1383
 6446TIP3   OH240752   5.339   2.066   0.634 -0.7566  0.2407  0.1234
 6446TIP3    H140753   5.371   2.022   0.555 -0.7022  1.5811 -0.6327
 6446TIP3    H240754   5.375   2.155   0.628 -0.5178  0.2913  1.8073
 6447TIP3   OH240755   0.459   5.389  12.355  0.2894  0.2801  0.0231
 6447TIP3    H140756   0.514   5.456  12.396 -1.8729  1.4024  1.2431
 6447TIP3    H240757   0.486   5.307  12.398  1.4036  0.6947  0.1522
 6448TIP3   OH240758   2.776   4.708   1.198  0.0230  0.1947 -0.1739
 6448TIP3    H140759   2.692   4.695   1.155 -0.8724 -0.0868  1.5544
 6448TIP3    H240760   2.840   4.667   1.141 -1.0724 -0.0248 -1.2774
 6449TIP3   OH240761   0.586   2.057   3.172 -0.3130  0.2688 -0.0160
 6449TIP3    H140762   0.622   2.074   3.085 -0.7293  1.4317  0.0275
 6449TIP3    H240763   0.504   2.106   3.174 -0.2894  0.2740  1.0471
 6450TIP3   OH240764   5.756   5.607   2.688 -1.0510  0.3367 -0.0529
 6450TIP3    H140765   5.832   5.657   2.656  0.8325 -1.8161  0.7590
 6450TIP3    H240766   5.729   5.554   2.614 -0.9202  0.1656  0.0201
 6451TIP3   OH240767   2.480   3.969   5.927  0.0512 -0.5233 -0.3677
 6451TIP3    H140768   2.437   4.023   5.993  0.4626  0.5305 -0.9500
 6451TIP3    H240769   2.549   3.923   5.975  0.9609  0.9450 -0.2283
 6452TIP3   OH240770   4.825   2.665  13.151  0.1522  0.0449  0.0319
 6452TIP3    H140771   4.767   2.654  13.226  0.6210 -1.7320  0.1944
 6452TIP3    H240772   4.777   2.625  13.078  0.4817  0.0597 -0.1958
 6453TIP3   OH240773   1.343   2.492   4.110 -0.0270 -0.3556  0.1923
 6453TIP3    H140774   1.435   2.471   4.099  0.4208  2.0363 -1.2034
 6453TIP3    H240775   1.323   2.554   4.040 -2.7770 -0.9931  0.2885
 6454TIP3   OH240776   6.395   2.849   5.183  0.4284  0.3219  0.1399
 6454TIP3    H140777   6.486   2.878   5.185  0.6993 -0.5497  1.5473
 6454TIP3    H240778   6.376   2.823   5.273 -1.1298  0.2152 -0.1937
 6455TIP3   OH240779   5.941   5.231  12.076  0.1161  0.0464 -0.1118
 6455TIP3    H140780   5.873   5.260  12.015 -0.3647  1.3434  0.9766
 6455TIP3    H240781   5.894   5.173  12.137  0.0322  0.7099  0.4659
 6456TIP3   OH240782   2.092   2.211  15.870  0.2345  0.3203 -0.0610
 6456TIP3    H140783   2.176   2.248  15.896  0.3823 -0.3044  0.3468
 6456TIP3    H240784   2.095   2.211  15.774  1.1796 -0.7762 -0.0462
 6457TIP3   OH240785   4.568   6.289   2.079 -0.0394  0.1894 -0.3509
 6457TIP3    H140786   4.563   6.222   2.147 -2.2995  1.2046  0.6133
 6457TIP3    H240787   4.661   6.311   2.073  0.3731 -0.8220  1.5287
 6458TIP3   OH240788   0.942   6.071   4.419  0.2408  0.0711  0.3736
 6458TIP3    H140789   0.881   6.137   4.452  0.0892  0.4679 -0.6589
 6458TIP3    H240790   0.887   6.001   4.386  0.3269  0.4776 -0.6576
 6459TIP3   OH240791   5.028   1.022  14.910  0.1265 -0.1486 -0.7026
 6459TIP3    H140792   5.121   1.037  14.928 -0.0419  0.4439 -0.2916
 6459TIP3    H240793   4.993   0.987  14.993  0.4427 -2.6056 -1.5372
 6460TIP3   OH240794   6.205   5.513   1.930  1.0955  0.0360  0.4870
 6460TIP3    H140795   6.251   5.503   2.014  0.9987 -0.0804  0.5252
 6460TIP3    H240796   6.207   5.426   1.891  0.0049 -0.2123  0.9541
 6461TIP3   OH240797   5.860   0.697   2.996  0.0743 -0.1055 -0.6382
 6461TIP3    H140798   5.913   0.621   3.020  2.0615  1.1596 -0.7708
 6461TIP3    H240799   5.865   0.755   3.072 -0.9399  0.1636 -0.7561
 6462TIP3   OH240800   6.758   4.374   4.989 -0.0464  0.0068 -0.8925
 6462TIP3    H140801   6.677   4.390   5.036 -0.5347 -1.2252 -1.2563
 6462TIP3    H240802   6.802   4.459   4.986 -1.5825  0.8379 -1.1810
 6463TIP3   OH240803   5.269   6.054   3.008 -0.2409  0.4810 -0.1191
 6463TIP3    H140804   5.297   6.145   2.999 -0.8602  0.6120 -0.8558
 6463TIP3    H240805   5.196   6.057   3.069 -0.7929  0.5976 -0.7757
 6464TIP3   OH240806   0.519   3.958   4.343  0.3378  0.3606 -0.0656
 6464TIP3    H140807   0.587   3.910   4.296  0.3086  1.2032 -1.0162
 6464TIP3    H240808   0.446   3.897   4.350  0.6604 -0.0607 -0.3492
 6465TIP3   OH240809   3.007   4.103   4.317 -0.3236  0.3064 -0.0568
 6465TIP3    H140810   3.062   4.181   4.331 -0.3114 -0.0134  2.0583
 6465TIP3    H240811   2.945   4.130   4.249  0.2112  1.8781  0.0216
 6466TIP3   OH240812   4.456   4.103  15.229 -0.2699  0.2413 -0.9185
 6466TIP3    H140813   4.475   4.042  15.158  2.1261 -1.3239  0.9412
 6466TIP3    H240814   4.379   4.066  15.272  0.0731 -0.4505 -0.8982
 6467TIP3   OH240815   0.232   1.946   3.711  0.1253 -0.1248 -0.5513
 6467TIP3    H140816   0.177   1.968   3.636 -0.7934 -0.3786  0.0364
 6467TIP3    H240817   0.250   2.030   3.753  1.2206  0.1029 -1.4265
 6468TIP3   OH240818   1.526   4.701  12.580 -0.1742 -0.0648  0.2221
 6468TIP3    H140819   1.499   4.618  12.618 -0.2862 -0.3319 -0.4387
 6468TIP3    H240820   1.603   4.680  12.526 -0.4134  0.1906 -0.2266
 6469TIP3   OH240821   6.686   5.215  16.640  0.9735  0.3777 -0.2905
 6469TIP3    H140822   6.775   5.185  16.661  1.3694  1.0231 -0.9924
 6469TIP3    H240823   6.638   5.134  16.621  0.8350 -0.1644  2.0511
 6470TIP3   OH240824   1.419   1.878  13.492  0.0997 -0.2307  0.2532
 6470TIP3    H140825   1.381   1.807  13.440  0.6748 -1.2606  1.2011
 6470TIP3    H240826   1.484   1.918  13.434 -1.5216  0.7982 -0.9648
 6471TIP3   OH240827   2.639   1.594   1.052  0.1957  0.2958  0.4256
 6471TIP3    H140828   2.613   1.566   0.965  0.7733 -0.2336  0.4147
 6471TIP3    H240829   2.694   1.523   1.085 -0.9995 -0.0835  1.7103
 6472TIP3   OH240830   1.450   2.124  15.526  0.0155 -0.2749  0.0459
 6472TIP3    H140831   1.525   2.071  15.501 -1.6730 -2.1829 -1.3336
 6472TIP3    H240832   1.389   2.062  15.567 -0.1422  1.5309  2.7931
 6473TIP3   OH240833   1.416   6.176  16.671  1.0164 -0.1161  0.3144
 6473TIP3    H140834   1.497   6.141  16.707  1.1413  1.6184  1.8690
 6473TIP3    H240835   1.354   6.103  16.674  2.2786 -1.2273 -0.1271
 6474TIP3   OH240836   1.214   3.405  16.580 -0.4567 -0.1860  0.0614
 6474TIP3    H140837   1.183   3.325  16.623  1.4359 -1.8178 -1.3616
 6474TIP3    H240838   1.147   3.425  16.515 -0.8053 -0.8244  0.2165
 6475TIP3   OH240839   3.915   2.898  14.944 -0.4913  0.7945  0.2907
 6475TIP3    H140840   3.853   2.969  14.932 -0.3816  0.9143  0.4396
 6475TIP3    H240841   3.879   2.826  14.892  0.1269  1.4050 -1.0311
 6476TIP3   OH240842   6.543   6.080  12.733 -0.0185 -0.8280 -0.5887
 6476TIP3    H140843   6.628   6.118  12.709  0.9756 -2.4730  0.1564
 6476TIP3    H240844   6.565   5.995  12.770 -2.0582 -1.5853 -1.0081
 6477TIP3   OH240845   0.942   4.464   2.806 -0.4676  0.0114  0.4509
 6477TIP3    H140846   0.928   4.526   2.878 -0.9904 -1.2558  1.4751
 6477TIP3    H240847   0.855   4.453   2.767 -0.2840  0.2734 -0.0521
 6478TIP3   OH240848   2.629   1.349  10.963 -0.3397  0.0360 -0.2804
 6478TIP3    H140849   2.538   1.319  10.971 -0.2265 -0.1962  0.1737
 6478TIP3    H240850   2.665   1.297  10.891 -0.5349  0.0456 -0.3852
 6479TIP3   OH240851   4.974   5.854   4.640 -0.2849  0.2092 -0.5773
 6479TIP3    H140852   4.898   5.816   4.684  0.8270 -2.6876 -0.9849
 6479TIP3    H240853   5.010   5.916   4.704 -2.3575  0.9024 -0.0062
 6480TIP3   OH240854   4.976   0.661   3.650  0.5239 -0.0036  0.3660
 6480TIP3    H140855   5.010   0.612   3.725  0.7199 -0.0545  0.2465
 6480TIP3    H240856   5.010   0.614   3.574 -1.7787 -1.5017  0.1634
 6481TIP3   OH240857   1.373   0.976   3.915  0.0426  0.2897 -0.0982
 6481TIP3    H140858   1.306   0.913   3.943  0.2444  0.8744  1.9039
 6481TIP3    H240859   1.436   0.924   3.866 -0.5773 -0.7665  0.1911
 6482TIP3   OH240860   5.053   6.019   5.791 -0.0966 -0.1126  0.4722
 6482TIP3    H140861   5.127   6.021   5.851  0.4215  1.3825 -0.1721
 6482TIP3    H240862   4.991   6.083   5.826  1.0934  2.3598 -1.5742
 6483TIP3   OH240863   3.629   6.509  13.531  0.7492  0.4822  0.2520
 6483TIP3    H140864   3.713   6.541  13.500  0.7144 -1.2459 -1.8733
 6483TIP3    H240865   3.564   6.557  13.480  0.3909  1.5996  1.6813
 6484TIP3   OH240866   6.419   0.048  11.351 -0.3331 -0.1416 -0.5878
 6484TIP3    H140867   6.508   0.066  11.382 -0.3000 -1.8240  0.4476
 6484TIP3    H240868   6.392   0.129  11.307  1.2475  0.8289  0.1190
 6485TIP3   OH240869   0.481   5.937   5.690  0.8101  0.3340  0.0376
 6485TIP3    H140870   0.550   5.926   5.756 -0.5306 -0.2775  1.3975
 6485TIP3    H240871   0.434   5.854   5.690 -1.2690  1.4223  0.7488
 6486TIP3   OH240872   1.713   2.930  13.331 -0.7397 -0.0784 -0.2585
 6486TIP3    H140873   1.723   2.839  13.303 -0.3305 -0.4231  0.9605
 6486TIP3    H240874   1.705   2.925  13.426  2.9360  1.3858  0.2949
 6487TIP3   OH240875   6.690   6.754   3.091  0.5307  0.3251  0.2876
 6487TIP3    H140876   6.643   6.771   3.172 -0.1705 -0.5844  0.0928
 6487TIP3    H240877   6.630   6.783   3.022  0.4253 -0.4364  0.0491
 6488TIP3   OH240878   1.037   4.205  14.204 -0.1608  0.2328  0.0057
 6488TIP3    H140879   0.974   4.277  14.211 -0.0359  0.2534  1.1156
 6488TIP3    H240880   1.120   4.248  14.183 -0.3772  0.2604 -0.8434
 6489TIP3   OH240881   6.782   5.767   6.001  0.0038 -0.2122  0.2033
 6489TIP3    H140882   6.737   5.820   6.066  0.0147  0.2879 -0.1963
 6489TIP3    H240883   6.855   5.821   5.972  0.2715 -0.6177  0.1082
 6490TIP3   OH240884   1.994   3.121   1.578  0.0723 -0.2915  0.1554
 6490TIP3    H140885   2.009   3.159   1.665  1.8219 -1.7354  0.5300
 6490TIP3    H240886   2.078   3.130   1.533 -0.9170  0.8323 -1.6134
 6491TIP3   OH240887   6.369   0.835  15.904 -0.2005  0.0571 -0.0614
 6491TIP3    H140888   6.315   0.756  15.901 -1.1992  0.6688  1.0937
 6491TIP3    H240889   6.318   0.901  15.859 -0.3609  0.5887  0.8740
 6492TIP3   OH240890   2.865   5.200  11.830 -0.0883  0.3036  0.1143
 6492TIP3    H140891   2.901   5.237  11.911 -0.6728  0.6785  0.2123
 6492TIP3    H240892   2.829   5.115  11.857  1.6522 -0.5708 -0.2014
 6493TIP3   OH240893   6.281   6.495  12.205  0.4200  0.2688  0.5785
 6493TIP3    H140894   6.296   6.589  12.189 -0.6598  0.4049  0.3442
 6493TIP3    H240895   6.290   6.454  12.119 -1.1773  0.4435  0.3095
 6494TIP3   OH240896   1.890   3.513  12.487  0.1332  0.2171  0.0802
 6494TIP3    H140897   1.968   3.463  12.467 -0.9342 -1.3101 -0.4216
 6494TIP3    H240898   1.828   3.492  12.417 -0.9323  0.9471  0.7508
 6495TIP3   OH240899   5.220   1.447  11.239  0.2504 -0.6930 -0.5401
 6495TIP3    H140900   5.265   1.362  11.238  0.2174 -0.7101 -0.8449
 6495TIP3    H240901   5.222   1.474  11.330 -2.1690 -2.3090  0.0862
 6496TIP3   OH240902   3.765   0.385   2.813  0.1303  0.1228  1.1104
 6496TIP3    H140903   3.741   0.314   2.873  0.1339 -0.3106  0.6066
 6496TIP3    H240904   3.683   0.428   2.793 -0.0156 -0.3692  0.6326
 6497TIP3   OH240905   1.995   0.895  10.409 -0.6069 -0.6466 -0.0158
 6497TIP3    H140906   1.990   0.990  10.413 -1.7334 -0.5060 -2.5323
 6497TIP3    H240907   1.970   0.874  10.319 -1.7854 -3.4071  0.8516
 6498TIP3   OH240908   0.712   5.504  15.670  0.5121  0.5925  0.1364
 6498TIP3    H140909   0.656   5.481  15.595  0.7361 -0.0230  0.1527
 6498TIP3    H240910   0.701   5.598  15.680  0.7691  0.7454 -0.9147
 6499TIP3   OH240911   6.175   5.403  12.675 -0.4310 -0.4556  0.1548
 6499TIP3    H140912   6.271   5.403  12.668 -0.4843  0.7057 -0.6772
 6499TIP3    H240913   6.158   5.361  12.760  0.7724 -1.4818 -0.0760
 6500TIP3   OH240914   1.050   0.640  15.042 -0.0021  0.4774  0.4371
 6500TIP3    H140915   1.103   0.562  15.028  1.2143  0.8456  2.6010
 6500TIP3    H240916   1.018   0.663  14.955 -0.5138 -2.4588 -0.2756
 6501TIP3   OH240917   2.933   1.443   2.197 -0.3162  0.1509 -0.0463
 6501TIP3    H140918   2.846   1.476   2.175  0.4573  1.3907 -1.4379
 6501TIP3    H240919   2.949   1.474   2.286  0.0098  2.8860 -0.9811
 6502TIP3   OH240920   6.108   1.770  17.151  0.3420 -0.2083  0.0456
 6502TIP3    H140921   6.016   1.789  17.135 -0.0031 -1.0647  0.8934
 6502TIP3    H240922   6.146   1.758  17.064 -0.3640  0.0635 -0.3029
 6503TIP3   OH240923   5.302   1.336   3.434 -0.3769 -0.7795 -0.1995
 6503TIP3    H140924   5.221   1.375   3.468  1.9133  2.1503  2.4378
 6503TIP3    H240925   5.365   1.345   3.505  2.6949 -1.6871 -2.5959
 6504TIP3   OH240926   0.539   6.604   6.780  0.2131  0.1185  0.1432
 6504TIP3    H140927   0.612   6.665   6.776  0.6958 -0.3539  1.3796
 6504TIP3    H240928   0.470   6.647   6.730  0.1569  2.2152  1.8666
 6505TIP3   OH240929   2.522   6.245  14.096  0.4733  0.8416 -0.5096
 6505TIP3    H140930   2.547   6.231  14.187 -2.6461 -1.0934  0.2230
 6505TIP3    H240931   2.435   6.284  14.101  0.5540  1.4286 -2.6950
 6506TIP3   OH240932   5.947   4.782  11.627  0.0935 -0.5286 -0.0575
 6506TIP3    H140933   5.917   4.868  11.658  0.7369  0.3436 -1.7235
 6506TIP3    H240934   5.974   4.736  11.706  2.3067  1.8334  0.6998
 6507TIP3   OH240935   2.372   0.386   0.503  0.1353  0.1494  0.4324
 6507TIP3    H140936   2.448   0.441   0.484  0.2148  0.0669  0.5086
 6507TIP3    H240937   2.368   0.384   0.599 -0.1301  0.3841  0.4279
 6508TIP3   OH240938   0.195   3.425   3.767  0.0827 -0.5971 -0.2662
 6508TIP3    H140939   0.116   3.409   3.819  0.4009 -0.4970  0.2564
 6508TIP3    H240940   0.246   3.344   3.777  1.0746  0.1669  1.2644
 6509TIP3   OH240941   4.555   6.748   0.943  0.0170  0.2672 -0.1125
 6509TIP3    H140942   4.572   6.672   0.888 -2.5906 -1.4833  1.3171
 6509TIP3    H240943   4.634   6.756   0.997  1.2096 -0.0207 -1.7391
 6510TIP3   OH240944   0.620   3.623   5.440  0.2476  0.1028  0.4205
 6510TIP3    H140945   0.533   3.629   5.479  0.5107 -0.8748  1.1994
 6510TIP3    H240946   0.661   3.707   5.460 -0.0551  0.0717  1.2304
 6511TIP3   OH240947   1.942   5.808   1.005 -0.2852  0.9409  0.0960
 6511TIP3    H140948   1.989   5.837   0.926  1.1224 -0.2833  0.4572
 6511TIP3    H240949   1.855   5.785   0.972  0.5510 -0.4321 -1.3070
 6512TIP3   OH240950   0.627   5.259  12.772  0.1284  0.0885  0.1627
 6512TIP3    H140951   0.669   5.174  12.781  1.2540  0.6994  1.0076
 6512TIP3    H240952   0.539   5.239  12.741  0.6894 -1.3027 -0.6360
 6513TIP3   OH240953   6.089   1.911   2.189  0.6019  0.0093  0.4546
 6513TIP3    H140954   6.062   1.965   2.115  2.0177 -0.9718 -0.8330
 6513TIP3    H240955   6.142   1.969   2.243 -2.5010  1.4988  2.1869
 6514TIP3   OH240956   6.034   4.032   3.075 -0.3249  0.1367 -0.2212
 6514TIP3    H140957   6.020   4.123   3.048 -2.4786 -0.2708 -0.6148
 6514TIP3    H240958   6.096   3.997   3.010  0.7637  1.3686  0.1063
 6515TIP3   OH240959   2.299   4.375  13.009  0.1814 -0.3402 -0.1333
 6515TIP3    H140960   2.244   4.367  12.932 -0.6407 -3.6482  0.6353
 6515TIP3    H240961   2.238   4.372  13.083  1.0875  0.8975  0.7148
 6516TIP3   OH240962   0.893   6.026  13.884  0.1274  0.7810 -0.0022
 6516TIP3    H140963   0.864   5.940  13.913 -1.0926  1.4078  0.7433
 6516TIP3    H240964   0.937   6.010  13.801 -0.2871 -0.5255  0.0053
 6517TIP3   OH240965   2.832   1.269   5.674  0.4908 -0.2747  0.0998
 6517TIP3    H140966   2.888   1.323   5.619  0.6693  0.8522  1.3245
 6517TIP3    H240967   2.875   1.269   5.760 -1.1491  0.3620  0.9940
 6518TIP3   OH240968   1.767   4.283  16.742 -0.5016  0.7749 -0.1399
 6518TIP3    H140969   1.843   4.255  16.793  0.1610  0.7713 -1.0921
 6518TIP3    H240970   1.762   4.377  16.756 -1.3579  0.5428  1.2608
 6519TIP3   OH240971   4.880   1.367  11.914 -0.3787  0.8284  0.1333
 6519TIP3    H140972   4.873   1.272  11.907  0.6465  0.6507  1.1380
 6519TIP3    H240973   4.792   1.400  11.893 -1.0247 -0.4066  0.8294
 6520TIP3   OH240974   1.046   1.479   2.502  0.9675  0.1916 -0.4193
 6520TIP3    H140975   1.124   1.446   2.547  1.5074  1.5619 -0.2904
 6520TIP3    H240976   1.013   1.549   2.558  0.5333  0.6508 -1.2179
 6521TIP3   OH240977   4.398   5.782  15.212  0.8308  0.0610 -0.2528
 6521TIP3    H140978   4.302   5.775  15.203  0.8939  0.0923 -1.0275
 6521TIP3    H240979   4.411   5.818  15.300  0.2229 -1.9614  0.7272
 6522TIP3   OH240980   4.965   6.638  14.748 -0.7056  0.2692 -0.2720
 6522TIP3    H140981   4.871   6.619  14.749 -1.0224  1.3845  2.9930
 6522TIP3    H240982   5.001   6.586  14.820  1.4220 -0.7821 -1.9593
 6523TIP3   OH240983   6.168   3.162   2.565 -0.4141 -0.2221 -1.0088
 6523TIP3    H140984   6.161   3.084   2.620 -1.5699  0.2056 -0.5006
 6523TIP3    H240985   6.137   3.135   2.479 -2.9012  0.1300 -0.3134
 6524TIP3   OH240986   6.760   4.674  16.295  0.0296 -0.1116 -0.3300
 6524TIP3    H140987   6.770   4.636  16.208 -2.7702 -2.0727  0.0763
 6524TIP3    H240988   6.819   4.623  16.351 -1.3989 -1.9008 -0.3657
 6525TIP3   OH240989   5.191   1.263   5.344 -0.5723  0.2259 -0.9398
 6525TIP3    H140990   5.111   1.216   5.321 -1.2829  1.2895 -0.7344
 6525TIP3    H240991   5.182   1.280   5.438 -0.0569  0.2589 -0.8946
 6526TIP3   OH240992   4.350   4.256   2.803  0.5209  0.0045 -0.1079
 6526TIP3    H140993   4.360   4.348   2.777  2.8570  0.2354  1.3128
 6526TIP3    H240994   4.429   4.213   2.772  0.8434 -0.8504  1.7318
 6527TIP3   OH240995   3.473   6.176  14.603  0.3268 -0.1215 -0.3978
 6527TIP3    H140996   3.482   6.173  14.698 -0.4382  1.1107 -0.2677
 6527TIP3    H240997   3.384   6.207  14.588  0.5811  0.1129 -1.5098
 6528TIP3   OH240998   5.170   4.423   3.525 -0.2938  0.0856  0.3315
 6528TIP3    H140999   5.154   4.330   3.513  0.4230  0.0336 -0.2696
 6528TIP3    H241000   5.087   4.458   3.556 -0.0176 -1.1200  2.6870
 6529TIP3   OH241001   4.022   4.772   5.539 -0.5847 -0.2696  0.3479
 6529TIP3    H141002   4.002   4.862   5.567 -0.3276 -0.1682  0.2110
 6529TIP3    H241003   3.944   4.745   5.490 -0.7793 -0.2232  0.6286
 6530TIP3   OH241004   3.389   4.300   3.060 -0.5237  0.1986  0.1848
 6530TIP3    H141005   3.441   4.378   3.043 -0.7584  0.8438  2.1448
 6530TIP3    H241006   3.432   4.231   3.009  0.4822  1.3162 -0.5351
 6531TIP3   OH241007   3.164   5.117   4.650  0.0934  0.1285 -0.6397
 6531TIP3    H141008   3.150   5.206   4.618  0.5441  0.9032  1.1412
 6531TIP3    H241009   3.253   5.119   4.686 -0.7015 -0.3357  1.5078
 6532TIP3   OH241010   1.743   6.644   2.530 -0.1400  0.1157  0.4932
 6532TIP3    H141011   1.816   6.648   2.591  0.2251 -0.6025  0.1089
 6532TIP3    H241012   1.667   6.627   2.585  0.2584 -1.0518  0.7195
 6533TIP3   OH241013   1.874   3.233   3.982  0.2216  0.1981 -0.6994
 6533TIP3    H141014   1.861   3.268   4.070 -0.6556  0.6681 -1.0008
 6533TIP3    H241015   1.919   3.302   3.934 -1.4998  0.9596 -1.2903
 6534TIP3   OH241016   1.865   5.931  11.815  0.0171 -0.1674 -0.3299
 6534TIP3    H141017   1.814   5.955  11.892  0.8880  0.7717 -0.0335
 6534TIP3    H241018   1.829   5.984  11.744  0.1147 -0.0194 -0.2692
 6535TIP3   OH241019   4.070   0.174  12.221  0.5830  0.2962 -0.2389
 6535TIP3    H141020   4.003   0.202  12.283 -0.8583 -0.6677 -1.3205
 6535TIP3    H241021   4.112   0.255  12.192  0.2129  0.8675  0.7864
 6536TIP3   OH241022   3.263   3.011   2.532 -0.1853 -0.0324  0.0185
 6536TIP3    H141023   3.316   2.933   2.548 -0.1138 -0.1717 -0.8651
 6536TIP3    H241024   3.204   2.986   2.461 -0.2963  0.6507 -0.1366
 6537TIP3   OH241025   6.511   3.775   0.589  0.0266  0.2178 -0.0677
 6537TIP3    H141026   6.552   3.776   0.675 -0.8669  2.1118  0.3937
 6537TIP3    H241027   6.452   3.700   0.591 -0.8583  0.9064  1.4490
 6538TIP3   OH241028   3.397   5.625   6.375  0.0447 -0.3338 -0.2057
 6538TIP3    H141029   3.488   5.639   6.400 -0.5758  1.1234  1.4678
 6538TIP3    H241030   3.376   5.700   6.319  0.1032 -1.1378 -1.3345
 6539TIP3   OH241031   5.390   5.959  10.716 -0.2330 -0.2394  0.1076
 6539TIP3    H141032   5.479   5.978  10.685 -0.5215 -0.1911 -0.7292
 6539TIP3    H241033   5.345   6.044  10.711 -1.0912 -0.7410 -2.1507
 6540TIP3   OH241034   4.331   2.092  11.179 -0.6795  0.2812  0.5565
 6540TIP3    H141035   4.425   2.071  11.173 -0.9077 -0.7815  0.5549
 6540TIP3    H241036   4.288   2.020  11.134 -1.4588  1.3417 -0.4770
 6541TIP3   OH241037   4.732   0.820   6.075  0.1338  0.5943  0.4580
 6541TIP3    H141038   4.807   0.774   6.111  0.2750  0.7451  0.3596
 6541TIP3    H241039   4.690   0.861   6.151 -2.0585 -2.5499  1.1340
 6542TIP3   OH241040   2.902   3.157  11.845 -0.0197 -0.1289  0.1301
 6542TIP3    H141041   2.835   3.205  11.796  0.8127 -0.2039 -1.1445
 6542TIP3    H241042   2.885   3.065  11.824  2.2178 -0.0585 -2.7448
 6543TIP3   OH241043   3.523   6.670   0.309 -0.4768  0.2889  0.1034
 6543TIP3    H141044   3.588   6.601   0.315 -1.8089 -0.9994  0.2876
 6543TIP3    H241045   3.492   6.666   0.218 -1.5452 -0.3190  0.4806
 6544TIP3   OH241046   5.755   0.360  11.806 -0.1236  0.3771  0.0245
 6544TIP3    H141047   5.751   0.271  11.841 -0.4403  0.2465 -0.3310
 6544TIP3    H241048   5.848   0.381  11.802  0.0088 -0.3190 -0.8085
 6545TIP3   OH241049   1.013   3.679  11.317  0.4332 -0.1296  0.2923
 6545TIP3    H141050   1.040   3.602  11.367  0.0834  0.4035  1.3439
 6545TIP3    H241051   1.024   3.654  11.226 -1.9764 -2.2886  0.5075
 6546TIP3   OH241052   2.077   4.413   5.481 -0.2651 -0.1962  0.4449
 6546TIP3    H141053   2.027   4.462   5.415  1.0130  0.2718 -0.2202
 6546TIP3    H241054   2.094   4.329   5.439 -0.8051 -0.4890  0.8140
 6547TIP3   OH241055   3.839   6.188   4.799  0.0183  0.3966 -0.0353
 6547TIP3    H141056   3.828   6.116   4.861  0.4582 -0.2202 -0.6642
 6547TIP3    H241057   3.807   6.265   4.846 -0.4464 -0.2043  0.6487
 6548TIP3   OH241058   3.241   3.000   5.820 -0.5198 -0.5958 -0.4279
 6548TIP3    H141059   3.280   2.916   5.797  1.1837 -0.2421  0.9272
 6548TIP3    H241060   3.234   2.997   5.916  0.7156  1.2130 -0.2272
 6549TIP3   OH241061   5.331   1.757   1.668  0.0448 -0.2017  0.5779
 6549TIP3    H141062   5.314   1.847   1.644 -3.5255 -1.4158 -2.2810
 6549TIP3    H241063   5.390   1.724   1.600  1.6287 -0.0412  1.8062
 6550TIP3   OH241064   1.039   0.119   4.333  0.2016  0.3035  0.0748
 6550TIP3    H141065   1.071   0.031   4.313  1.1338  0.9494 -1.3799
 6550TIP3    H241066   0.949   0.119   4.301 -0.6070 -0.8073  2.1548
 6551TIP3   OH241067   5.057   2.594  10.502  0.1787  0.2164 -0.5549
 6551TIP3    H141068   5.080   2.506  10.532  2.6844  0.8926 -0.2584
 6551TIP3    H241069   5.131   2.620  10.446 -0.5486  2.1053 -0.6968
 6552TIP3   OH241070   1.631   2.020  10.480  0.8588  0.0707  0.1444
 6552TIP3    H141071   1.536   2.021  10.487  0.6929 -0.5142 -1.5485
 6552TIP3    H241072   1.660   2.087  10.542 -0.6744  0.5639  0.3768
 6553TIP3   OH241073   4.182   4.889   0.468  0.7185 -0.1980 -0.3523
 6553TIP3    H141074   4.268   4.847   0.464  0.3180 -1.0595 -0.2898
 6553TIP3    H241075   4.121   4.822   0.436  0.1087  0.5096 -0.7142
 6554TIP3   OH241076   4.651   0.239  14.607  0.1697 -0.0200 -0.1297
 6554TIP3    H141077   4.604   0.322  14.612 -0.3721 -0.2791 -0.7721
 6554TIP3    H241078   4.606   0.189  14.538  1.2879 -0.3345 -0.6627
 6555TIP3   OH241079   3.433   5.957  14.434 -0.2355 -0.5910 -0.2362
 6555TIP3    H141080   3.452   6.027  14.496 -0.7653 -0.2892 -0.4072
 6555TIP3    H241081   3.338   5.946  14.439 -0.2660 -0.6703 -0.8801
 6556TIP3   OH241082   3.111   0.473  12.400  0.2651  0.4034  0.9431
 6556TIP3    H141083   3.052   0.530  12.450 -0.4707  2.1181 -1.6559
 6556TIP3    H241084   3.053   0.413  12.353  0.4348  2.0215 -1.5402
 6557TIP3   OH241085   5.414   1.960  11.352  0.3454  0.1134  0.6645
 6557TIP3    H141086   5.371   2.038  11.385 -0.7106 -0.3662  0.4600
 6557TIP3    H241087   5.497   1.991  11.315  0.1385  1.0638  0.9907
 6558TIP3   OH241088   1.750   2.838  12.256 -0.0380 -0.4552 -0.2795
 6558TIP3    H141089   1.791   2.924  12.262 -2.0345  0.5825 -0.4714
 6558TIP3    H241090   1.811   2.779  12.299  0.6862  1.3208  1.2851
 6559TIP3   OH241091   3.958   0.720  11.354  0.1282  0.3112 -0.0131
 6559TIP3    H141092   3.996   0.764  11.278 -0.8490  1.7777  0.3208
 6559TIP3    H241093   3.864   0.718  11.336 -0.2358  1.5295  1.5536
 6560TIP3   OH241094   0.453   0.628   1.449 -0.6074  0.5163  0.5915
 6560TIP3    H141095   0.523   0.663   1.504 -1.2305  0.6770  1.2928
 6560TIP3    H241096   0.458   0.533   1.461 -0.3368  0.5087  0.4250
 6561TIP3   OH241097   5.401   6.335  15.694  0.4176  0.7168  0.0734
 6561TIP3    H141098   5.350   6.254  15.690 -0.9568  1.5004  0.8941
 6561TIP3    H241099   5.439   6.335  15.782  1.8813  0.1564 -0.5159
 6562TIP3   OH241100   3.041   3.133   0.856  0.4207  0.2369  0.2571
 6562TIP3    H141101   3.120   3.079   0.845 -1.0242 -1.8079 -0.8441
 6562TIP3    H241102   2.970   3.069   0.864 -1.3024  2.0026 -0.2786
 6563TIP3   OH241103   1.502   5.135  16.918 -0.0315  0.0174  0.1329
 6563TIP3    H141104   1.427   5.116  16.975 -0.1418 -1.0975 -0.3691
 6563TIP3    H241105   1.478   5.217  16.874 -0.6320  0.0556  0.5233
 6564TIP3   OH241106   1.294   1.794   3.115  0.2494  0.0115 -0.4702
 6564TIP3    H141107   1.316   1.726   3.178  0.5554 -0.0460 -0.6376
 6564TIP3    H241108   1.351   1.867   3.138  1.1973 -0.4142 -1.3968
 6565TIP3   OH241109   6.606   4.470   2.701  0.3237 -0.1366  0.1833
 6565TIP3    H141110   6.634   4.379   2.710  0.3110 -0.3757 -1.7730
 6565TIP3    H241111   6.647   4.515   2.775  1.4860 -1.4628  0.3891
 6566TIP3   OH241112   0.696   6.702   5.882  0.5586 -0.2756 -0.3490
 6566TIP3    H141113   0.647   6.653   5.948  1.3526 -0.2014  0.3055
 6566TIP3    H241114   0.776   6.729   5.926 -0.2785  2.5053 -0.3540
 6567TIP3   OH241115   1.649   4.702   4.661 -0.0091 -0.0284 -0.2164
 6567TIP3    H141116   1.577   4.684   4.721  0.1840  0.0021  0.0254
 6567TIP3    H241117   1.639   4.794   4.638  0.2721  0.1205  0.2478
 6568TIP3   OH241118   6.325   0.330  10.865 -0.0706 -0.4219  0.0633
 6568TIP3    H141119   6.406   0.381  10.876 -0.3172 -0.2595  1.3446
 6568TIP3    H241120   6.341   0.276  10.788  1.1621 -0.2013  0.1330
 6569TIP3   OH241121   2.458   6.725   2.403 -0.0118 -0.4247  0.0741
 6569TIP3    H141122   2.465   6.726   2.499 -1.6550  1.0548  0.2441
 6569TIP3    H241123   2.513   6.652   2.376 -1.4892 -2.5514  2.3401
 6570TIP3   OH241124   5.142   2.909  11.468 -0.5953 -0.0047  0.4210
 6570TIP3    H141125   5.067   2.961  11.439  0.1788  0.2652 -1.2380
 6570TIP3    H241126   5.144   2.834  11.409 -0.2565 -0.6678  1.2421
 6571TIP3   OH241127   6.447   0.036  13.721 -0.0670  0.1047  0.3557
 6571TIP3    H141128   6.394   0.094  13.667 -0.0983 -1.8107 -1.7809
 6571TIP3    H241129   6.526   0.087  13.740  0.1506  0.6791 -1.8988
 6572TIP3   OH241130   1.058   4.490  16.190  0.1957 -0.0944 -0.6475
 6572TIP3    H141131   1.101   4.426  16.134  0.7880  1.7437 -2.4024
 6572TIP3    H241132   1.093   4.473  16.278  1.6726 -1.0103 -1.3777
 6573TIP3   OH241133   6.108   0.187  16.234 -0.8685 -0.6847 -0.2987
 6573TIP3    H141134   6.074   0.272  16.205  1.3903  0.2746 -0.3730
 6573TIP3    H241135   6.077   0.178  16.324 -3.9847 -1.4605 -1.3463
 6574TIP3   OH241136   5.861   0.405   1.457 -0.4230 -0.4389 -0.3848
 6574TIP3    H141137   5.793   0.382   1.520 -0.7046 -0.4156 -0.6823
 6574TIP3    H241138   5.835   0.362   1.376 -0.4674  0.1737 -0.6985
 6575TIP3   OH241139   3.148   6.401  12.151  0.0650  0.0358 -0.2412
 6575TIP3    H141140   3.179   6.388  12.061 -3.4822 -0.8193 -1.5000
 6575TIP3    H241141   3.154   6.314  12.190 -0.2908 -0.0422 -0.3542
 6576TIP3   OH241142   6.294   0.531  13.290  0.3115  0.0635  0.1713
 6576TIP3    H141143   6.300   0.481  13.208  0.7296 -0.0250  0.2551
 6576TIP3    H241144   6.347   0.481  13.352 -0.9047 -0.4791  0.8059
 6577TIP3   OH241145   4.520   4.259   5.696  0.1496 -0.1947 -0.2064
 6577TIP3    H141146   4.549   4.278   5.785 -0.0170 -0.5610 -0.0740
 6577TIP3    H241147   4.430   4.229   5.706  0.2235 -0.5042 -0.4741
 6578TIP3   OH241148   5.584   0.637  15.450  0.9354 -0.3066 -0.1941
 6578TIP3    H141149   5.601   0.659  15.358  0.8421  0.1979 -0.0900
 6578TIP3    H241150   5.642   0.695  15.500  0.6573 -0.2657  0.0822
 6579TIP3   OH241151   5.818   5.216  15.636 -0.0126 -0.7078  0.3373
 6579TIP3    H141152   5.891   5.263  15.675 -1.1421  1.7936 -0.4021
 6579TIP3    H241153   5.859   5.142  15.591  2.0231  0.3828  0.2931
 6580TIP3   OH241154   4.719   4.302  11.209 -0.1286  0.0948  0.1200
 6580TIP3    H141155   4.655   4.354  11.256  1.0354  1.9895 -0.2970
 6580TIP3    H241156   4.803   4.324  11.249  0.4319 -1.4395 -0.1165
 6581TIP3   OH241157   1.972   0.992  13.009 -0.3359  0.1938 -0.2422
 6581TIP3    H141158   1.938   1.001  13.098  1.6945 -0.8846  0.7095
 6581TIP3    H241159   2.059   1.032  13.012  0.8409 -2.1437 -1.0043
 6582TIP3   OH241160   0.685   6.568   4.853  0.2812 -0.1469  0.0154
 6582TIP3    H141161   0.690   6.510   4.929  1.0646  0.3988  0.3901
 6582TIP3    H241162   0.723   6.517   4.781  0.1146 -0.4354  0.1329
 6583TIP3   OH241163   4.482   0.140  17.009  0.0822 -0.2009  0.5267
 6583TIP3    H141164   4.525   0.143  17.095 -3.2264  0.3249  2.3216
 6583TIP3    H241165   4.476   0.232  16.983 -1.2232 -0.1005  1.0729
 6584TIP3   OH241166   1.339   1.126   4.589 -0.4975 -0.4395  0.1514
 6584TIP3    H141167   1.359   1.074   4.512  1.3503 -0.1398  0.3793
 6584TIP3    H241168   1.293   1.203   4.556  0.8484  0.0064 -0.7605
 6585TIP3   OH241169   1.676   3.403  17.190 -0.1969  0.0684 -0.3057
 6585TIP3    H141170   1.730   3.455  17.250 -0.6322 -1.2335  1.2897
 6585TIP3    H241171   1.678   3.452  17.108  0.8281  1.6795  0.6133
 6586TIP3   OH241172   3.446   3.717  13.760 -0.3378  0.4476  0.4204
 6586TIP3    H141173   3.494   3.660  13.821  0.1222  1.1955  0.7689
 6586TIP3    H241174   3.473   3.687  13.673 -1.7367 -1.2735  0.5347
 6587TIP3   OH241175   5.522   3.811   4.534  0.0560  0.1596  0.3357
 6587TIP3    H141176   5.606   3.767   4.548  0.0538  0.6309  1.9519
 6587TIP3    H241177   5.544   3.904   4.527 -0.3390  0.3233  1.1215
 6588TIP3   OH241178   4.703   6.520  16.185 -0.0046 -0.1387  0.2936
 6588TIP3    H141179   4.790   6.531  16.224  0.7677 -3.4026 -0.2709
 6588TIP3    H241180   4.718   6.467  16.107 -2.1832  1.7375 -1.5548
 6589TIP3   OH241181   4.304   1.135  14.047  0.8798 -0.2288  0.0992
 6589TIP3    H141182   4.235   1.137  13.980  1.1164 -1.5335 -0.2179
 6589TIP3    H241183   4.385   1.132  13.996  1.1561  0.7490  0.4702
 6590TIP3   OH241184   1.730   3.107  12.349  0.2414  0.3156 -0.3472
 6590TIP3    H141185   1.812   3.141  12.384  0.0442 -0.7878  1.2975
 6590TIP3    H241186   1.695   3.051  12.418 -1.5249  0.1412 -1.3033
 6591TIP3   OH241187   0.330   1.124  13.991 -0.3586 -0.2306 -0.3346
 6591TIP3    H141188   0.406   1.131  13.934 -0.5207  1.5978 -0.3651
 6591TIP3    H241189   0.278   1.201  13.973 -1.9074 -1.1022  0.1833
 6592TIP3   OH241190   6.253   0.148   5.119 -0.0522 -0.1620  0.9454
 6592TIP3    H141191   6.260   0.169   5.212 -0.0131  0.5485  0.7873
 6592TIP3    H241192   6.321   0.082   5.104  2.6102  2.3955  0.6600
 6593TIP3   OH241193   0.083   3.201   4.792 -0.5198  0.1053  0.0416
 6593TIP3    H141194   0.080   3.188   4.697 -1.3063 -1.3761  0.2313
 6593TIP3    H241195   0.005   3.254   4.811 -0.4287  0.3020 -0.1336
 6594TIP3   OH241196   4.576   4.070   4.950 -0.2497 -0.2283 -0.1968
 6594TIP3    H141197   4.592   3.975   4.950 -1.0260 -0.3848 -1.6112
 6594TIP3    H241198   4.547   4.089   4.861  0.4324  1.4455 -0.0844
 6595TIP3   OH241199   3.197   5.418  16.645  0.2501 -0.0610  0.2605
 6595TIP3    H141200   3.142   5.447  16.717 -0.2868 -0.2394 -0.0749
 6595TIP3    H241201   3.234   5.335  16.674  0.8556  0.3702  0.7461
 6596TIP3   OH241202   6.259   2.723   0.619 -0.0413  0.0489  0.4248
 6596TIP3    H141203   6.197   2.659   0.653  0.3344  0.4739  1.9849
 6596TIP3    H241204   6.327   2.670   0.576 -0.4123 -0.5110  0.5239
 6597TIP3   OH241205   6.228   0.808   5.317 -0.0134  0.1900  0.0054
 6597TIP3    H141206   6.267   0.769   5.396 -1.8383  1.5222  1.6609
 6597TIP3    H241207   6.263   0.897   5.314 -0.7091  0.4653 -0.1112
 6598TIP3   OH241208   3.394   4.938   3.632 -0.0648  0.1281  0.6666
 6598TIP3    H141209   3.312   4.986   3.640  1.0095  2.8519 -2.2709
 6598TIP3    H241210   3.369   4.853   3.596 -1.6234  1.0464 -0.5511
 6599TIP3   OH241211   4.434   5.301   0.332 -0.2393 -0.6307  0.5861
 6599TIP3    H141212   4.521   5.266   0.348 -1.0240 -3.3605 -0.6203
 6599TIP3    H241213   4.447   5.371   0.268  0.9715 -1.9859 -0.7271
 6600TIP3   OH241214   3.574   0.708  14.315 -0.0155  0.0067  0.1259
 6600TIP3    H141215   3.557   0.783  14.257  0.2382 -0.2871 -0.3357
 6600TIP3    H241216   3.590   0.747  14.401 -1.9187  0.3590  0.3554
 6601TIP3   OH241217   1.605   4.639   2.876 -1.0930  0.2340  0.1748
 6601TIP3    H141218   1.554   4.599   2.806 -0.6689 -0.5893  0.3211
 6601TIP3    H241219   1.660   4.704   2.832 -0.6407 -0.4590 -0.3055
 6602TIP3   OH241220   5.982   2.011   5.693  0.7257  0.1542 -0.3143
 6602TIP3    H141221   5.986   2.028   5.787  1.5166 -1.0174 -0.1256
 6602TIP3    H241222   5.889   2.023   5.671  0.3691 -0.4501  0.7849
 6603TIP3   OH241223   1.770   1.163  12.580  0.0339  0.0333 -0.2144
 6603TIP3    H141224   1.682   1.164  12.542 -0.8699 -0.1408  1.7627
 6603TIP3    H241225   1.828   1.185  12.507 -1.7644  1.6127 -1.2687
 6604TIP3   OH241226   2.662   1.160  13.033 -0.2724  0.2125 -0.3186
 6604TIP3    H141227   2.750   1.158  13.072  0.5599 -1.0110 -2.1052
 6604TIP3    H241228   2.645   1.252  13.015  0.2254  0.5636  0.9166
 6605TIP3   OH241229   3.525   2.348   1.900  0.0161  0.6351 -0.6055
 6605TIP3    H141230   3.492   2.429   1.939 -0.4821  0.8471 -1.4539
 6605TIP3    H241231   3.500   2.280   1.964  0.9095  1.1915  0.3694
 6606TIP3   OH241232   2.567   0.680   4.641 -0.4782 -0.2889 -0.1203
 6606TIP3    H141233   2.582   0.605   4.585 -1.3056 -1.6046  1.3380
 6606TIP3    H241234   2.651   0.696   4.684 -0.5702 -1.1140  0.3917
 6607TIP3   OH241235   3.165   4.329  17.193 -0.3077 -0.2953 -0.3601
 6607TIP3    H141236   3.186   4.396  17.258 -1.1055 -1.0162  0.6708
 6607TIP3    H241237   3.121   4.260  17.242  1.1495 -1.9486 -1.2506
 6608TIP3   OH241238   5.651   1.656  14.736  0.4370 -0.0863 -0.9403
 6608TIP3    H141239   5.579   1.719  14.727 -1.0532 -1.8350 -2.0652
 6608TIP3    H241240   5.711   1.678  14.665  0.8253  1.0829 -0.2870
 6609TIP3   OH241241   3.924   0.198  12.459  0.2996  0.0266  0.2251
 6609TIP3    H141242   3.959   0.274  12.504 -0.0950  1.1432 -1.2947
 6609TIP3    H241243   3.830   0.202  12.472  0.2739 -0.1971  0.1316
 6610TIP3   OH241244   5.608   5.939   5.239 -0.5168  0.0618  0.3220
 6610TIP3    H141245   5.651   6.006   5.292 -1.0455  0.9720 -0.3803
 6610TIP3    H241246   5.585   5.984   5.158 -0.1955 -1.1724 -0.4774
 6611TIP3   OH241247   4.194   4.309   5.670 -0.1007 -0.4107  0.1339
 6611TIP3    H141248   4.145   4.333   5.591 -0.2590 -2.1018 -0.3371
 6611TIP3    H241249   4.248   4.385   5.689 -1.0633  0.5420 -0.8189
 6612TIP3   OH241250   6.529   2.789   5.901 -0.1323  0.0985  0.0871
 6612TIP3    H141251   6.447   2.741   5.916 -0.2205 -0.4975 -1.9292
 6612TIP3    H241252   6.595   2.740   5.949 -0.5267 -1.0518 -0.5023
 6613TIP3   OH241253   1.013   5.345  13.488 -0.4839  0.1720  0.3770
 6613TIP3    H141254   0.924   5.339  13.453 -0.3407  0.9333 -0.1424
 6613TIP3    H241255   1.044   5.255  13.490 -0.2942  0.1401 -2.0011
 6614TIP3   OH241256   1.126   1.343  16.758  0.2695  0.0758  0.0181
 6614TIP3    H141257   1.074   1.264  16.742  0.3314 -0.2076  1.1619
 6614TIP3    H241258   1.078   1.412  16.712 -0.2857 -0.4574 -0.2261
 6615TIP3   OH241259   6.646   4.683  15.294  0.3368 -0.7859 -0.0283
 6615TIP3    H141260   6.661   4.669  15.200 -0.1557  0.5501 -0.3230
 6615TIP3    H241261   6.578   4.750  15.297  0.7247 -0.4417  1.2938
 6616TIP3   OH241262   3.614   3.372  12.547 -0.1426  0.0697 -0.1604
 6616TIP3    H141263   3.652   3.380  12.460 -2.4176 -0.6450 -1.3098
 6616TIP3    H241264   3.519   3.371  12.532 -0.5985 -0.6291  2.2691
 6617TIP3   OH241265   0.106   5.776   1.931  0.1091  0.0136 -0.6457
 6617TIP3    H141266   0.162   5.700   1.951  0.9998  1.1414  1.3772
 6617TIP3    H241267   0.017   5.742   1.938  0.4608 -0.5929  1.5131
 6618TIP3   OH241268   2.247   5.763   3.880 -0.1846 -0.1881  0.1826
 6618TIP3    H141269   2.336   5.732   3.862  0.4884  1.6105  0.2985
 6618TIP3    H241270   2.250   5.857   3.864 -1.3616  0.3853  2.8440
 6619TIP3   OH241271   0.763   3.721   0.477  0.2933 -0.7280 -0.7962
 6619TIP3    H141272   0.728   3.784   0.415  0.4856 -0.6089 -0.7809
 6619TIP3    H241273   0.690   3.704   0.537 -0.6354 -2.4752 -2.2971
 6620TIP3   OH241274   5.213   0.863  15.518  0.1444 -0.0026 -0.2373
 6620TIP3    H141275   5.238   0.770  15.519  0.6692  0.0503 -2.5937
 6620TIP3    H241276   5.126   0.863  15.478  0.0934  0.5079 -0.1251
 6621TIP3   OH241277   1.983   1.039   4.437  0.0860 -0.2684  0.6408
 6621TIP3    H141278   2.040   0.987   4.493  1.4679  0.7805  0.2835
 6621TIP3    H241279   2.028   1.123   4.429 -1.9209  0.9035  0.9661
 6622TIP3   OH241280   3.482   0.347  15.102  0.1926 -0.1491 -0.0655
 6622TIP3    H141281   3.485   0.264  15.054  0.1637 -0.3504  0.2790
 6622TIP3    H241282   3.392   0.377  15.091  0.6669  0.7762 -1.7613
 6623TIP3   OH241283   5.429   3.214  12.966 -0.2669 -0.4007  0.3218
 6623TIP3    H141284   5.348   3.201  13.016 -0.0343 -0.6486  0.6432
 6623TIP3    H241285   5.410   3.285  12.905 -0.5378 -0.0543  0.8063
 6624TIP3   OH241286   2.643   3.385  15.815  0.4723  0.1769  0.3950
 6624TIP3    H141287   2.552   3.403  15.792  0.0572  3.6436  3.8212
 6624TIP3    H241288   2.639   3.306  15.869 -0.7094  0.8655  1.3523
 6625TIP3   OH241289   2.794   4.309   0.818  0.5413  0.2427 -0.2029
 6625TIP3    H141290   2.750   4.290   0.901 -0.0451 -0.5255 -0.6730
 6625TIP3    H241291   2.843   4.390   0.834 -0.8505  0.9898  0.4108
 6626TIP3   OH241292   5.061   1.083   0.136  0.0965 -0.4182 -0.6605
 6626TIP3    H141293   4.988   1.068   0.196  0.8087 -0.3522  0.2306
 6626TIP3    H241294   5.086   0.995   0.106  0.3933 -0.5359 -0.0750
 6627TIP3   OH241295   4.741   3.738  13.158  0.4519  0.1570 -0.1946
 6627TIP3    H141296   4.728   3.659  13.106 -3.1750  0.3234  0.1914
 6627TIP3    H241297   4.721   3.810  13.098  1.2324  0.6579  0.1274
 6628TIP3   OH241298   3.425   3.698   0.209 -0.2465  0.2862  0.1603
 6628TIP3    H141299   3.499   3.649   0.172  0.2001  1.7626 -0.9992
 6628TIP3    H241300   3.364   3.708   0.136 -0.6566  0.8384  0.5734
 6629TIP3   OH241301   6.563   4.782  16.433  0.0875  0.1916 -0.2734
 6629TIP3    H141302   6.640   4.761  16.382  0.8133  0.9010  0.4903
 6629TIP3    H241303   6.489   4.760  16.376  0.8577  0.9847 -1.6260
 6630TIP3   OH241304   3.367   1.218  14.270  0.1435  0.0379  0.7434
 6630TIP3    H141305   3.364   1.285  14.338  2.8933  2.2048 -1.0422
 6630TIP3    H241306   3.303   1.247  14.204  0.0643 -0.0878  0.7639
 6631TIP3   OH241307   4.069   1.407  14.931  0.1373  0.6432 -0.3349
 6631TIP3    H141308   4.075   1.467  15.005  0.8082  1.1341 -0.7770
 6631TIP3    H241309   4.136   1.340  14.949 -0.4213  0.1707  0.0197
 6632TIP3   OH241310   3.130   2.407  12.456 -0.4945 -0.4793  0.1318
 6632TIP3    H141311   3.088   2.475  12.403 -1.7085 -1.7148 -0.5684
 6632TIP3    H241312   3.189   2.362  12.395 -1.0078 -1.1563  0.1273
 6633TIP3   OH241313   4.471   5.033   2.537 -0.2412  0.2789 -0.0173
 6633TIP3    H141314   4.564   5.044   2.558  0.4347 -1.6603 -1.6741
 6633TIP3    H241315   4.433   4.993   2.615  0.1470  1.5632  0.8727
 6634TIP3   OH241316   6.270   4.623   3.189  0.5359  0.2197  0.1817
 6634TIP3    H141317   6.197   4.579   3.145  1.2966  1.4984 -2.5948
 6634TIP3    H241318   6.230   4.700   3.230  0.0659 -0.0401  0.2196
 6635TIP3   OH241319   0.031   5.306  15.598 -0.2238  0.0657 -0.7435
 6635TIP3    H141320   0.120   5.315  15.633  0.0102 -1.3552 -0.9134
 6635TIP3    H241321  -0.006   5.394  15.603  0.9057  0.5121  0.1046
 6636TIP3   OH241322   3.347   6.489  10.917 -0.0969  0.0423  0.0886
 6636TIP3    H141323   3.416   6.449  10.864  0.9150  0.2549  1.2021
 6636TIP3    H241324   3.327   6.572  10.873 -0.2542 -0.4102 -0.7044
 6637TIP3   OH241325   0.732   2.445  15.447  0.1064 -0.1085 -0.4712
 6637TIP3    H141326   0.683   2.512  15.496 -0.4720 -0.9475  0.1233
 6637TIP3    H241327   0.681   2.433  15.366 -1.1136 -1.4838  0.4526
 6638TIP3   OH241328   4.967   5.616  13.345  0.4491 -0.1154  0.5214
 6638TIP3    H141329   4.993   5.531  13.308  1.2007 -0.8325  2.5694
 6638TIP3    H241330   4.903   5.650  13.282 -0.7454 -2.7181  0.1737
 6639TIP3   OH241331   1.415   4.217   2.508 -0.0007  0.0979 -0.0437
 6639TIP3    H141332   1.496   4.228   2.459 -0.2141  1.9952 -0.0456
 6639TIP3    H241333   1.346   4.250   2.450 -0.5665  0.0175  0.5639
 6640TIP3   OH241334   3.686   6.327  14.771 -0.1453  0.0132 -0.3873
 6640TIP3    H141335   3.617   6.367  14.823 -1.4842 -2.7294  0.1262
 6640TIP3    H241336   3.725   6.400  14.723 -3.9716  1.6369 -1.3958
 6641TIP3   OH241337   0.753   2.703  16.067  0.1367  0.2574  0.1139
 6641TIP3    H141338   0.747   2.780  16.125  0.7970  0.3519  0.0587
 6641TIP3    H241339   0.704   2.729  15.989 -1.0851 -0.0113  0.7752
 6642TIP3   OH241340   3.723   6.607   2.202  0.1798  0.0313 -0.0056
 6642TIP3    H141341   3.732   6.523   2.246 -1.5221  1.2376  3.0146
 6642TIP3    H241342   3.646   6.597   2.146  0.6152 -0.7057 -0.4834
 6643TIP3   OH241343   6.117   1.743   5.667  0.1594 -0.0504  0.3106
 6643TIP3    H141344   6.144   1.748   5.759 -1.7055 -3.2473  1.1797
 6643TIP3    H241345   6.032   1.787   5.664  0.5640  0.7238 -0.0879
 6644TIP3   OH241346   6.038   4.331  14.254  0.3236 -0.3225  1.1013
 6644TIP3    H141347   5.983   4.255  14.277 -1.3673  0.5616  0.2119
 6644TIP3    H241348   6.121   4.292  14.227  0.2759 -1.7083  2.7594
 6645TIP3   OH241349   0.116   6.291  11.256  0.0642 -0.7537  0.2443
 6645TIP3    H141350   0.146   6.265  11.169  0.9077 -1.4835  0.7287
 6645TIP3    H241351   0.022   6.306  11.246 -0.4453 -3.6782 -0.2020
 6646TIP3   OH241352   5.797   4.796   1.518  0.0267  0.2941  0.0883
 6646TIP3    H141353   5.756   4.755   1.595  2.6604  1.6876  2.4281
 6646TIP3    H241354   5.822   4.722   1.463  0.9684 -1.0424  2.1841
 6647TIP3   OH241355   0.902   3.245  14.936 -0.2696 -0.0048 -0.2548
 6647TIP3    H141356   0.874   3.267  15.025  0.3924  1.3150 -0.3556
 6647TIP3    H241357   0.951   3.163  14.946 -2.0567 -1.0680  0.2532
 6648TIP3   OH241358   1.750   6.517  16.635 -0.4787  0.0265 -0.4671
 6648TIP3    H141359   1.784   6.485  16.718 -0.4966  2.4565  0.5549
 6648TIP3    H241360   1.655   6.505  16.641 -0.6905  1.8705  0.7272
 6649TIP3   OH241361   4.922   3.781  13.539  0.2401  0.4693 -0.3370
 6649TIP3    H141362   4.898   3.752  13.627 -0.4492 -0.1606 -0.7147
 6649TIP3    H241363   4.857   3.847  13.517 -0.2566 -0.1486 -0.7763
 6650TIP3   OH241364   2.673   0.066   1.792 -0.2530 -0.4535  0.2034
 6650TIP3    H141365   2.618   0.097   1.720  0.1857  0.7183  0.3655
 6650TIP3    H241366   2.751   0.030   1.749  0.6564  1.5212  0.1098
 6651TIP3   OH241367   2.017   5.933   3.860  0.9239 -0.1427 -0.2252
 6651TIP3    H141368   1.962   5.959   3.786  0.5862  1.2853  0.4804
 6651TIP3    H241369   2.049   5.846   3.837 -0.9790 -0.6814 -1.0139
 6652TIP3   OH241370   4.184   5.188  11.837  0.0585  0.3353  0.0081
 6652TIP3    H141371   4.162   5.230  11.754  0.1166  0.1617 -0.0939
 6652TIP3    H241372   4.174   5.258  11.902  0.4206  0.5867 -0.1949
 6653TIP3   OH241373   6.366   6.580  12.993 -0.4705  0.3987  0.6309
 6653TIP3    H141374   6.379   6.622  12.908  0.3253  0.9758  1.0334
 6653TIP3    H241375   6.346   6.489  12.971  2.1355 -0.0606 -0.1262
 6654TIP3   OH241376   3.843   2.422   1.667 -0.0455 -0.2025  0.0083
 6654TIP3    H141377   3.774   2.483   1.641  2.3631  1.8799 -1.9760
 6654TIP3    H241378   3.850   2.361   1.593 -0.2495 -0.9175  0.5617
 6655TIP3   OH241379   4.456   2.288   5.955  0.9219 -0.4627 -0.9223
 6655TIP3    H141380   4.470   2.370   6.003 -0.4033 -0.8368  0.1550
 6655TIP3    H241381   4.477   2.219   6.017  1.5559 -0.9731 -1.6759
 6656TIP3   OH241382   2.646   5.339   5.871  0.1358 -0.3441 -0.0715
 6656TIP3    H141383   2.723   5.389   5.842  0.2513  0.4917  1.5719
 6656TIP3    H241384   2.576   5.403   5.874 -0.4079 -0.9019 -0.6172
 6657TIP3   OH241385   5.304   0.551   0.797 -0.4534 -0.3385  0.2222
 6657TIP3    H141386   5.338   0.477   0.848  2.3844 -0.5211 -1.6859
 6657TIP3    H241387   5.356   0.626   0.825 -1.5336  0.3986  0.3137
 6658TIP3   OH241388   3.333   3.173   6.131  0.0163  0.1295 -0.0419
 6658TIP3    H141389   3.356   3.161   6.224  0.9835  1.7402 -0.0383
 6658TIP3    H241390   3.270   3.103   6.113 -1.1917  0.5355  2.1735
 6659TIP3   OH241391   4.848   5.905   5.080  0.2820  0.7964 -0.4149
 6659TIP3    H141392   4.905   5.829   5.068 -0.2966 -0.2915  2.6240
 6659TIP3    H241393   4.777   5.892   5.017  0.5809 -0.8119 -0.4712
 6660TIP3   OH241394   2.556   4.178   3.923  0.0677  0.0742  0.3339
 6660TIP3    H141395   2.570   4.237   3.998  2.0752  1.1382 -0.7799
 6660TIP3    H241396   2.596   4.095   3.950 -0.1947  0.1159  0.8541
 6661TIP3   OH241397   4.310   5.876   4.778  0.2417 -0.8326  0.1273
 6661TIP3    H141398   4.295   5.925   4.859  1.0467 -1.4701  0.6713
 6661TIP3    H241399   4.223   5.867   4.740 -0.1652 -0.6198  0.9726
 6662TIP3   OH241400   5.454   3.706  14.481  0.5229 -0.3125  0.0379
 6662TIP3    H141401   5.406   3.695  14.398 -1.4655 -0.1213  1.1016
 6662TIP3    H241402   5.436   3.626  14.530  0.9634 -0.0550  0.6282
 6663TIP3   OH241403   0.649   0.835   5.441  0.1516  0.0868 -0.1871
 6663TIP3    H141404   0.738   0.825   5.407  0.1957 -0.9896  0.2234
 6663TIP3    H241405   0.634   0.930   5.439  0.9230  0.2087 -1.2112
 6664TIP3   OH241406   4.950   0.258   2.353  0.4319 -0.2173  0.0111
 6664TIP3    H141407   4.937   0.239   2.446  1.2095 -0.4991  0.0626
 6664TIP3    H241408   4.868   0.231   2.312  0.7492 -1.7840  0.3618
 6665TIP3   OH241409   1.557   6.077   4.957  0.0291  0.4606  0.0950
 6665TIP3    H141410   1.537   6.050   4.868 -3.0838  0.5763  0.6251
 6665TIP3    H241411   1.489   6.034   5.010  1.2122  1.1500  2.2821
 6666TIP3   OH241412   3.741   1.524   1.888 -0.3804  0.6024  0.3769
 6666TIP3    H141413   3.736   1.609   1.845 -0.3269  0.8073  0.7763
 6666TIP3    H241414   3.654   1.509   1.923 -0.8275 -0.2091 -1.0140
 6667TIP3   OH241415   0.817   0.239  13.540  0.5859  0.0910 -0.0765
 6667TIP3    H141416   0.844   0.152  13.567 -1.0397 -0.2117  0.6652
 6667TIP3    H241417   0.793   0.229  13.448 -0.3924 -0.4443  0.2305
 6668TIP3   OH241418   1.082   0.337   4.168  0.1169 -0.2078  0.2469
 6668TIP3    H141419   1.098   0.277   4.240  1.5235  0.6167  0.6472
 6668TIP3    H241420   1.145   0.313   4.101  0.2592  0.4006  0.1527
 6669TIP3   OH241421   3.995   2.848   4.930  0.0179  0.9224 -0.5984
 6669TIP3    H141422   3.937   2.780   4.898  0.6299  0.2040 -0.2151
 6669TIP3    H241423   4.064   2.855   4.864  1.1002 -0.3301  0.3292
 6670TIP3   OH241424   5.933   5.031  10.558  0.2884  0.6385 -0.0536
 6670TIP3    H141425   5.882   4.974  10.616 -1.0472  0.7836 -1.0592
 6670TIP3    H241426   6.015   4.983  10.545 -0.7285 -0.9943 -0.7386
 6671TIP3   OH241427   0.252   5.618  11.938 -0.0374  0.5733 -0.2077
 6671TIP3    H141428   0.264   5.712  11.924  3.2146  0.3985  0.6056
 6671TIP3    H241429   0.259   5.580  11.851 -1.8902  1.0804 -0.6069
 6672TIP3   OH241430   6.442   4.693   4.327  0.1343 -0.6525  0.7678
 6672TIP3    H141431   6.436   4.753   4.253 -0.6787 -1.4792  0.1313
 6672TIP3    H241432   6.442   4.606   4.287  0.8682 -1.0923  1.6902
 6673TIP3   OH241433   6.672   4.890   2.934 -0.5080 -0.2211 -0.1280
 6673TIP3    H141434   6.689   4.858   2.846  2.6076 -0.3533  0.3867
 6673TIP3    H241435   6.735   4.962   2.946 -0.1384 -0.8390  2.2722
 6674TIP3   OH241436   3.464   3.552   1.071 -0.3766  0.2271 -0.6473
 6674TIP3    H141437   3.505   3.636   1.091 -0.5836  0.2025 -0.1087
 6674TIP3    H241438   3.371   3.564   1.093 -0.6567  0.2502 -1.7615
 6675TIP3   OH241439   3.102   5.991   4.480  0.1235 -0.2924  0.1227
 6675TIP3    H141440   3.152   6.047   4.420 -1.0600  0.4230 -0.2291
 6675TIP3    H241441   3.092   5.909   4.433 -0.4966  0.1483 -0.5396
 6676TIP3   OH241442   6.250   1.269  15.747 -0.0838 -0.0705 -0.6469
 6676TIP3    H141443   6.282   1.180  15.738  1.4236  0.3111  0.4893
 6676TIP3    H241444   6.219   1.293  15.660  1.8955 -0.8223 -1.5983
 6677TIP3   OH241445   1.852   1.194  17.169  0.3382  0.0193 -0.4413
 6677TIP3    H141446   1.845   1.283  17.133 -1.7889  0.1450  0.0852
 6677TIP3    H241447   1.941   1.167  17.150  1.1592  2.3861 -0.3695
 6678TIP3   OH241448   5.506   3.848   1.383 -0.0902 -0.1181 -0.2970
 6678TIP3    H141449   5.437   3.796   1.340 -2.1349  0.7497  1.7505
 6678TIP3    H241450   5.458   3.917   1.430  2.3654  2.0988 -0.8283
 6679TIP3   OH241451   6.509   1.801  10.988 -0.0041  0.5357 -0.4612
 6679TIP3    H141452   6.511   1.895  10.972  2.3440  0.7111  0.5272
 6679TIP3    H241453   6.590   1.782  11.035 -0.6492 -1.9159 -0.1712
 6680TIP3   OH241454   4.256   1.894  11.010  0.4161 -0.5010 -0.3860
 6680TIP3    H141455   4.179   1.939  10.976 -0.4435 -1.2085  0.5524
 6680TIP3    H241456   4.330   1.938  10.969 -0.4592  0.6614 -0.7624
 6681TIP3   OH241457   6.068   2.597   1.336 -0.3994  0.0737  0.2789
 6681TIP3    H141458   6.070   2.511   1.293  1.4375  0.7180 -1.0503
 6681TIP3    H241459   6.158   2.611   1.365 -0.4071  2.0155 -0.5021
 6682TIP3   OH241460   2.713   6.142   5.765  0.6858  0.1589  0.5902
 6682TIP3    H141461   2.666   6.158   5.847  1.4346  0.8668  0.9014
 6682TIP3    H241462   2.651   6.165   5.697  0.2485  0.1321  0.9770
 6683TIP3   OH241463   3.825   3.072  12.038  0.4325  0.0247  0.2612
 6683TIP3    H141464   3.861   3.045  11.954 -2.1303 -0.2781 -0.8429
 6683TIP3    H241465   3.873   3.152  12.060 -0.0334  1.1527 -2.4200
 6684TIP3   OH241466   6.468   6.184   1.818 -0.6769  0.0116 -0.0791
 6684TIP3    H141467   6.552   6.138   1.820 -0.5736  0.2108  0.1264
 6684TIP3    H241468   6.465   6.223   1.731 -0.5708 -0.0207 -0.0978
 6685TIP3   OH241469   6.726   5.778   2.744 -0.2577  0.0537 -0.5333
 6685TIP3    H141470   6.791   5.777   2.814 -0.6449 -1.8932 -0.1406
 6685TIP3    H241471   6.647   5.814   2.784  0.0934  0.8589 -0.5522
 6686TIP3   OH241472   0.507   5.401  15.512 -0.3862 -0.5120 -0.3516
 6686TIP3    H141473   0.568   5.332  15.485  3.0824  2.2621 -0.3108
 6686TIP3    H241474   0.430   5.387  15.457  0.8499 -3.3260 -1.5812
 6687TIP3   OH241475   2.874   1.823   0.533 -0.0353  0.3458  0.1251
 6687TIP3    H141476   2.961   1.786   0.549  1.1637  3.3268  1.3028
 6687TIP3    H241477   2.813   1.756   0.564  1.8211 -1.6323 -0.2602
 6688TIP3   OH241478   6.531   3.399  11.693  0.3853  0.1787 -0.5739
 6688TIP3    H141479   6.550   3.478  11.743  0.6803 -0.3171  0.1274
 6688TIP3    H241480   6.595   3.398  11.622 -0.6598  1.3971 -1.5821
 6689TIP3   OH241481   2.070   5.810   5.907  0.0498 -0.0250 -0.0450
 6689TIP3    H141482   2.097   5.826   5.997 -3.8131 -0.7749  1.4282
 6689TIP3    H241483   2.026   5.891   5.880  0.4855 -0.0892 -0.9989
 6690TIP3   OH241484   1.782   5.514  13.335  0.1569  0.1072 -0.0388
 6690TIP3    H141485   1.761   5.595  13.381  1.1475  2.1616 -2.8600
 6690TIP3    H241486   1.878   5.512  13.333  0.1613  0.0575 -1.7506
 6691TIP3   OH241487   6.058   3.660  14.277  0.0600 -0.0606  0.2317
 6691TIP3    H141488   5.963   3.646  14.279 -0.0020  0.0176 -1.4379
 6691TIP3    H241489   6.068   3.754  14.264  0.3750 -0.0444  0.5805
 6692TIP3   OH241490   5.762   3.440  16.132  0.2197  0.5052  0.4445
 6692TIP3    H141491   5.757   3.397  16.047 -0.9040  0.9962  0.2422
 6692TIP3    H241492   5.811   3.378  16.188  2.1941  0.7805 -0.8868
 6693TIP3   OH241493   5.278   0.969   0.318  0.0896 -0.3819  0.5342
 6693TIP3    H141494   5.208   0.960   0.382 -0.1649 -0.3019  0.2737
 6693TIP3    H241495   5.251   1.044   0.264  0.8567  0.2691  1.0323
 6694TIP3   OH241496   0.093   2.805  16.218 -0.6015  0.8495 -0.1075
 6694TIP3    H141497   0.008   2.818  16.175 -0.6623 -2.8512 -1.4155
 6694TIP3    H241498   0.157   2.825  16.150 -0.6692 -2.6987 -1.4141
 6695TIP3   OH241499   5.856   0.606   2.620  0.2741 -0.2590 -0.0636
 6695TIP3    H141500   5.912   0.669   2.665  0.6772 -0.1602 -0.7006
 6695TIP3    H241501   5.840   0.645   2.534  0.8064 -1.1808 -0.5906
 6696TIP3   OH241502   3.711   0.601   1.187 -0.1304 -0.1766  0.1888
 6696TIP3    H141503   3.750   0.593   1.274  1.2810  1.0169 -0.2877
 6696TIP3    H241504   3.645   0.532   1.183  0.6767 -1.0806  1.7256
 6697TIP3   OH241505   4.925   1.641  11.714  0.1497  0.4937  0.0192
 6697TIP3    H141506   4.968   1.726  11.723 -0.9308  0.8502  2.5407
 6697TIP3    H241507   4.961   1.588  11.785  0.0682 -0.8489 -0.9040
 6698TIP3   OH241508   6.694   1.780  14.198  0.1020  0.0925 -0.2905
 6698TIP3    H141509   6.603   1.790  14.173  0.2414  2.0747 -0.1826
 6698TIP3    H241510   6.693   1.723  14.274 -0.9671 -0.4967 -0.7371
 6699TIP3   OH241511   5.014   3.014  13.557 -0.3683 -0.2850 -0.0679
 6699TIP3    H141512   5.090   3.072  13.568 -0.6835  0.4691 -1.5773
 6699TIP3    H241513   4.982   3.033  13.469 -2.8465  0.0552  0.8149
 6700TIP3   OH241514   3.080   4.490  14.999 -0.4713 -0.5057 -0.4822
 6700TIP3    H141515   3.079   4.400  14.966  0.6219 -0.5769 -0.3750
 6700TIP3    H241516   3.074   4.544  14.920 -0.7794 -0.6773 -0.5758
 6701TIP3   OH241517   1.850   1.796  14.340  0.1321 -0.0303  0.7087
 6701TIP3    H141518   1.836   1.780  14.433  0.4540  2.0271  1.1482
 6701TIP3    H241519   1.937   1.762  14.322  0.4356  0.3782  1.3818
 6702TIP3   OH241520   5.727   1.964  11.489  0.1550  0.2513  0.1335
 6702TIP3    H141521   5.695   1.997  11.406 -0.5303  0.7313  0.5817
 6702TIP3    H241522   5.779   1.886  11.466  1.5582  1.4365 -0.9128
 6703TIP3   OH241523   4.709   2.129   1.492  0.3336  0.1885  0.2828
 6703TIP3    H141524   4.723   2.129   1.587  0.9834  0.3602  0.1899
 6703TIP3    H241525   4.797   2.134   1.455  0.3429 -2.6720 -0.3763
 6704TIP3   OH241526   3.572   2.598   0.727 -0.5113  0.2926  0.0458
 6704TIP3    H141527   3.599   2.520   0.678 -1.7576 -1.1497  1.5265
 6704TIP3    H241528   3.655   2.642   0.748  0.4303 -1.7407  0.9045
 6705TIP3   OH241529   2.259   6.356   3.376 -0.3811  1.0606 -0.6375
 6705TIP3    H141530   2.214   6.340   3.293 -0.2250 -0.4155 -0.4566
 6705TIP3    H241531   2.339   6.304   3.370 -0.6154  0.5254  0.6458
 6706TIP3   OH241532   3.325   3.161  15.384 -0.4739  0.2177 -0.3878
 6706TIP3    H141533   3.386   3.144  15.455  0.7711  2.2404 -0.8648
 6706TIP3    H241534   3.263   3.224  15.420  0.9037  2.2451 -1.3226
 6707TIP3   OH241535   1.789   4.646   3.462  0.7677  0.2836  0.0075
 6707TIP3    H141536   1.780   4.740   3.480  2.3145  0.5840 -0.6282
 6707TIP3    H241537   1.817   4.642   3.371  0.1534 -0.8394 -0.1413
 6708TIP3   OH241538   3.741   0.732  15.215 -0.3235  0.1565  0.8155
 6708TIP3    H141539   3.801   0.806  15.210 -0.1963  0.2807  3.0744
 6708TIP3    H241540   3.721   0.711  15.124  3.0947  0.1138 -0.0619
 6709TIP3   OH241541   0.517   1.662  14.395 -0.0459  0.0648  0.1851
 6709TIP3    H141542   0.459   1.684  14.322 -2.0326 -0.8026  1.4267
 6709TIP3    H241543   0.530   1.567  14.387  0.5408  0.1269  0.3892
 6710TIP3   OH241544   3.916   1.552   0.254  0.2384  0.6255 -0.7525
 6710TIP3    H141545   3.910   1.554   0.350  0.8747  0.1573 -0.6956
 6710TIP3    H241546   3.982   1.486   0.236  0.0653  0.6546 -1.5249
 6711TIP3   OH241547   1.540   2.034  11.459  0.6503  0.1091  0.3151
 6711TIP3    H141548   1.570   1.943  11.452  1.6692  0.4585 -0.0188
 6711TIP3    H241549   1.543   2.053  11.553 -0.2548 -0.4094  0.4662
 6712TIP3   OH241550   6.178   2.895  16.140 -0.4614  0.2948  0.7554
 6712TIP3    H141551   6.114   2.871  16.073 -0.3335  0.3246  0.6243
 6712TIP3    H241552   6.225   2.814  16.158 -1.0352  0.0946  1.3920
 6713TIP3   OH241553   5.674   4.679   5.703  0.0834  0.2771 -0.8326
 6713TIP3    H141554   5.649   4.671   5.795 -0.0748  1.7498 -0.7199
 6713TIP3    H241555   5.606   4.631   5.656 -0.9468  1.1409 -0.2919
 6714TIP3   OH241556   2.366   6.096   2.918 -0.1823 -0.7702 -0.4611
 6714TIP3    H141557   2.387   6.168   2.858 -1.5436 -1.2790 -1.5946
 6714TIP3    H241558   2.450   6.073   2.958  0.7890 -0.4784 -2.2390
 6715TIP3   OH241559   4.870   1.887  15.691  0.1600  0.4955  1.0779
 6715TIP3    H141560   4.837   1.963  15.643 -0.2299 -0.0890  0.4062
 6715TIP3    H241561   4.793   1.833  15.708  0.5211 -0.0697  0.9598
 6716TIP3   OH241562   2.059   2.102  16.158  0.1583  0.1952  0.3251
 6716TIP3    H141563   2.065   2.111  16.062  1.2400  1.1798  0.4679
 6716TIP3    H241564   2.015   2.182  16.186 -0.5054 -0.2662  0.6395
 6717TIP3   OH241565   2.397   3.380   5.772  0.1023  0.5977  0.5097
 6717TIP3    H141566   2.345   3.432   5.833 -1.7363 -0.1887 -0.3053
 6717TIP3    H241567   2.408   3.295   5.816  1.0574  0.8762  0.8354
 6718TIP3   OH241568   5.671   2.493  16.702 -0.2568 -0.1709  0.2864
 6718TIP3    H141569   5.583   2.457  16.691 -0.9046  1.3132  0.3894
 6718TIP3    H241570   5.661   2.586  16.681  1.2304  0.0711  0.5981
 6719TIP3   OH241571   0.817   6.171   1.923  0.1697 -0.1251 -0.4603
 6719TIP3    H141572   0.862   6.106   1.976  0.5410 -0.9351 -1.7271
 6719TIP3    H241573   0.738   6.192   1.973  0.4665 -0.9137  0.3667
 6720TIP3   OH241574   1.863   6.387  11.479 -0.5240  0.4423 -0.3056
 6720TIP3    H141575   1.902   6.458  11.427  0.7833 -0.3186 -0.3953
 6720TIP3    H241576   1.855   6.425  11.567  0.4997  0.6123 -0.2665
 6721TIP3   OH241577   5.381   6.643   5.439 -0.3372  0.2306 -0.3096
 6721TIP3    H141578   5.399   6.549   5.435  1.1918  0.5200 -0.9598
 6721TIP3    H241579   5.438   6.681   5.372 -2.0506  1.4788 -1.1460
 6722TIP3   OH241580   6.133   1.326   1.174 -0.3437 -0.6024  0.1141
 6722TIP3    H141581   6.175   1.248   1.209 -0.0070 -1.2877 -1.7012
 6722TIP3    H241582   6.204   1.374   1.131 -1.1951 -1.4311 -2.3929
 6723TIP3   OH241583   5.433   3.601   1.762  0.9471  0.5263 -0.2929
 6723TIP3    H141584   5.410   3.692   1.777 -0.7029 -0.0409  0.9013
 6723TIP3    H241585   5.528   3.602   1.746  1.6450  2.0919  3.0452
 6724TIP3   OH241586   1.116   3.799  16.338  0.1654 -0.1472  0.4796
 6724TIP3    H141587   1.194   3.801  16.392  0.7812 -2.5669 -0.1901
 6724TIP3    H241588   1.121   3.715  16.290 -1.9081  0.4391 -0.9475
 6725TIP3   OH241589   4.733   0.262  14.945 -0.2163 -0.1730 -0.1347
 6725TIP3    H141590   4.728   0.291  15.036 -1.1943  0.0194 -0.2426
 6725TIP3    H241591   4.760   0.340  14.896  2.3664 -0.7594  0.2139
 6726TIP3   OH241592   4.535   2.856   2.545 -0.8175  0.3157  0.1310
 6726TIP3    H141593   4.583   2.793   2.491 -1.4331  1.1209 -1.4205
 6726TIP3    H241594   4.457   2.877   2.494 -1.6940  0.7531  1.5786
 6727TIP3   OH241595   2.214   1.425  15.350  0.0977 -0.5821  0.2332
 6727TIP3    H141596   2.230   1.353  15.411  0.9516  1.1960  2.2279
 6727TIP3    H241597   2.118   1.430  15.344 -0.0532 -0.0242  2.4627
 6728TIP3   OH241598   1.545   2.346   0.940 -0.1160 -0.0883 -0.4410
 6728TIP3    H141599   1.567   2.321   0.851  1.0982  3.1026 -1.1895
 6728TIP3    H241600   1.621   2.396   0.970  0.3496 -2.6048  3.1646
 6729TIP3   OH241601   3.531   1.286  13.253  0.3642 -0.2718  0.1270
 6729TIP3    H141602   3.544   1.195  13.226 -0.0843 -0.4304  0.4245
 6729TIP3    H241603   3.569   1.338  13.182  0.4996 -0.6907 -0.1111
 6730TIP3   OH241604   0.542   2.085  13.824 -0.0168  0.2831 -0.1776
 6730TIP3    H141605   0.518   2.142  13.751  1.6074  0.2479 -0.7715
 6730TIP3    H241606   0.490   2.118  13.898 -0.2118  1.5770 -0.8692
 6731TIP3   OH241607   1.243   1.225   2.791 -0.4761  0.7192  0.4076
 6731TIP3    H141608   1.249   1.277   2.711 -0.6659 -1.0083 -0.7848
 6731TIP3    H241609   1.308   1.156   2.779 -1.8062 -0.6627  0.8704
 6732TIP3   OH241610   0.133   5.704   5.579  0.2917 -0.0238 -0.3997
 6732TIP3    H141611   0.069   5.738   5.643 -0.0744 -1.0969 -0.1743
 6732TIP3    H241612   0.205   5.673   5.633  0.1741 -0.5342 -0.5385
 6733TIP3   OH241613   3.352   3.443  12.464  0.0071 -0.4543  0.1098
 6733TIP3    H141614   3.308   3.444  12.549  1.3031  0.5910  0.8065
 6733TIP3    H241615   3.294   3.391  12.408 -0.9418 -1.0542  1.5811
 6734TIP3   OH241616   2.053   6.535  16.687 -0.0520  0.4597  0.0142
 6734TIP3    H141617   2.148   6.541  16.696  0.2045  0.3256 -2.1667
 6734TIP3    H241618   2.027   6.473  16.755  1.1155  2.0502  2.0321
 6735TIP3   OH241619   0.875   0.790   3.630  0.8358 -0.9679  0.3617
 6735TIP3    H141620   0.902   0.816   3.718 -0.5853  2.5174 -0.0568
 6735TIP3    H241621   0.951   0.807   3.575  0.4880  1.0120  0.3875
 6736TIP3   OH241622   2.042   0.238   3.280 -0.0242 -0.2160  0.3286
 6736TIP3    H141623   2.079   0.299   3.216  0.2225  0.5757  1.2047
 6736TIP3    H241624   1.994   0.174   3.228  1.1112 -0.2407 -0.7264
 6737TIP3   OH241625   3.009   2.209  11.740  0.0855 -0.2956  0.2113
 6737TIP3    H141626   3.046   2.259  11.813  2.4421  0.0584 -1.1004
 6737TIP3    H241627   2.979   2.127  11.779  1.0209  0.0004  1.6170
 6738TIP3   OH241628   5.094   4.227  15.649  0.1817 -0.3445  0.3179
 6738TIP3    H141629   5.009   4.251  15.611 -0.4477 -0.6929  1.4648
 6738TIP3    H241630   5.154   4.224  15.574 -0.7980 -0.0107 -0.4977
 6739TIP3   OH241631   0.392   6.018  13.461  0.3523 -0.1759 -0.0258
 6739TIP3    H141632   0.378   5.924  13.451  0.5484 -0.2236  0.1312
 6739TIP3    H241633   0.459   6.024  13.529 -1.1957  0.1282  1.5538
 6740TIP3   OH241634   1.285   6.371  15.776  0.0823  0.1882  0.0516
 6740TIP3    H141635   1.225   6.327  15.716 -1.1294 -2.5851  3.0084
 6740TIP3    H241636   1.361   6.393  15.722 -1.4181 -0.9239 -2.7141
 6741TIP3   OH241637   0.747   0.865  16.313 -0.3513 -0.3618  0.1137
 6741TIP3    H141638   0.833   0.848  16.275 -0.4505 -1.2739  0.2556
 6741TIP3    H241639   0.686   0.825  16.251 -0.8840  2.2675 -1.2012
 6742TIP3   OH241640   3.447   5.466  14.221 -0.4444  0.6604 -0.2629
 6742TIP3    H141641   3.430   5.554  14.186  0.6983  0.8445 -0.4104
 6742TIP3    H241642   3.485   5.482  14.308  0.5285  0.3543 -0.6176
 6743TIP3   OH241643   4.992   3.857  13.945  0.0129  0.3272 -0.4708
 6743TIP3    H141644   4.919   3.889  13.998 -0.8804 -0.3849 -1.2163
 6743TIP3    H241645   4.981   3.762  13.944  1.8460  0.0620  0.6258
 6744TIP3   OH241646   2.558   5.463   4.777  0.3084 -0.2620  0.0073
 6744TIP3    H141647   2.629   5.402   4.796  0.1293 -1.2604 -2.1850
 6744TIP3    H241648   2.581   5.543   4.824  3.6147 -0.0777 -1.6289
 6745TIP3   OH241649   0.069   1.777   3.879 -0.3317  0.4396  0.3554
 6745TIP3    H141650   0.105   1.695   3.844 -0.7343  0.2477  0.3883
 6745TIP3    H241651   0.096   1.843   3.815 -0.9748  0.1080 -0.2732
 6746TIP3   OH241652   0.962   3.850   0.593 -0.3604  0.0015 -0.7464
 6746TIP3    H141653   0.909   3.801   0.531  0.6730 -0.1336 -1.5586
 6746TIP3    H241654   1.014   3.783   0.639 -0.1053  0.2017 -0.7364
 6747TIP3   OH241655   1.853   0.813  15.634 -0.5717  0.6737  0.1935
 6747TIP3    H141656   1.867   0.908  15.635 -3.0137  1.1129  2.4854
 6747TIP3    H241657   1.826   0.794  15.544 -0.0275  2.1277 -0.3089
 6748TIP3   OH241658   3.498   3.653  12.602  0.9700 -0.1123  0.2266
 6748TIP3    H141659   3.433   3.636  12.670 -0.7378  0.1668 -1.2377
 6748TIP3    H241660   3.538   3.568  12.585 -0.1538 -0.6420  0.0980
 6749TIP3   OH241661   5.957   4.074  15.081  0.3257  0.1823  0.3914
 6749TIP3    H141662   5.919   4.070  14.993 -0.5129  1.8944  0.6340
 6749TIP3    H241663   6.000   3.989  15.092 -2.7051 -1.5932 -0.2537
 6750TIP3   OH241664   1.458   0.031  13.436  0.3729 -0.5164  0.2999
 6750TIP3    H141665   1.453   0.040  13.532 -0.3941  0.2752  0.2026
 6750TIP3    H241666   1.495   0.114  13.407  1.3214 -1.0464 -0.0523
 6751TIP3   OH241667   6.136   0.404   3.693 -0.9194  0.0975  0.1675
 6751TIP3    H141668   6.122   0.369   3.781  0.0087 -0.5805  0.0673
 6751TIP3    H241669   6.068   0.364   3.640 -0.8549 -0.3055  0.3848
 6752TIP3   OH241670   0.306   4.757   3.865 -0.1788  0.4787 -0.7171
 6752TIP3    H141671   0.352   4.702   3.802 -2.6650 -2.3306 -0.2991
 6752TIP3    H241672   0.283   4.836   3.816  2.1131  0.5330 -1.8288
 6753TIP3   OH241673   4.432   5.601  16.394  0.0490  0.0910 -0.0358
 6753TIP3    H141674   4.355   5.621  16.341  0.4788 -0.4428 -0.8759
 6753TIP3    H241675   4.501   5.582  16.331  1.8564  3.7585  0.5592
 6754TIP3   OH241676   2.214   4.587   5.111  0.0697  0.1132  0.1532
 6754TIP3    H141677   2.207   4.651   5.181  1.6754 -0.9192  1.3240
 6754TIP3    H241678   2.141   4.526   5.126  1.5797 -1.3011  2.2925
 6755TIP3   OH241679   6.526   2.830  12.340 -0.3147 -0.0611 -0.4357
 6755TIP3    H141680   6.537   2.785  12.256 -1.2737  1.7239 -1.5949
 6755TIP3    H241681   6.432   2.824  12.358 -0.9083  3.0928 -1.7239
 6756TIP3   OH241682   3.550   3.066  11.987  0.4577  0.2644 -0.8105
 6756TIP3    H141683   3.642   3.086  12.007  0.0905  2.4456 -1.0628
 6756TIP3    H241684   3.542   3.082  11.893 -0.2630  0.5155 -0.7155
 6757TIP3   OH241685   0.935   5.090  16.316  0.0315  0.4553 -0.3290
 6757TIP3    H141686   0.968   5.111  16.229 -0.5258  0.5767 -0.5125
 6757TIP3    H241687   1.012   5.098  16.373  0.4677  0.0932 -0.8444
 6758TIP3   OH241688   3.992   2.533   0.264  0.0626 -0.8564  0.7475
 6758TIP3    H141689   4.087   2.543   0.273 -0.0594 -0.6029  2.0469
 6758TIP3    H241690   3.957   2.574   0.344 -1.1312 -1.0359  0.3270
 6759TIP3   OH241691   6.207   5.516   0.300  0.7035  0.2121 -0.1394
 6759TIP3    H141692   6.294   5.489   0.329  1.0880  1.1066 -0.4446
 6759TIP3    H241693   6.204   5.491   0.207  0.8274  0.6492 -0.2615
 6760TIP3   OH241694   3.657   5.330  12.697 -0.2398 -0.2113 -0.1327
 6760TIP3    H141695   3.744   5.298  12.675 -0.2199 -0.3995  0.2113
 6760TIP3    H241696   3.644   5.407  12.641  0.3711  0.1490  0.2207
 6761TIP3   OH241697   1.890   4.858  12.939  0.4310 -0.0553 -0.2919
 6761TIP3    H141698   1.811   4.895  12.978  0.4952  0.8576 -0.9869
 6761TIP3    H241699   1.958   4.871  13.005 -0.1947 -1.8343  0.7612
 6762TIP3   OH241700   6.435   1.462   5.360  0.1296  0.0006  0.1361
 6762TIP3    H141701   6.348   1.462   5.398  0.4020  0.0247  0.7679
 6762TIP3    H241702   6.447   1.551   5.327  0.7519  0.6623  2.0224
 6763TIP3   OH241703   3.675   0.526   4.134 -0.2519  0.4954  0.1253
 6763TIP3    H141704   3.763   0.505   4.166 -0.5581 -1.2534 -0.0827
 6763TIP3    H241705   3.667   0.476   4.053 -1.8538 -0.3557  0.7541
 6764TIP3   OH241706   0.786   2.977  16.173  0.5143  0.0164  0.0927
 6764TIP3    H141707   0.880   2.990  16.184  0.1933  2.1329  0.7822
 6764TIP3    H241708   0.757   2.941  16.256  0.6232 -0.2203  0.0321
 6765TIP3   OH241709   0.833   0.348  16.504 -0.0949  0.0012 -0.0655
 6765TIP3    H141710   0.748   0.372  16.467 -0.0119  0.0796 -0.2077
 6765TIP3    H241711   0.895   0.360  16.432 -0.1200 -1.1466 -0.2854
 6766TIP3   OH241712   2.577   2.546   4.814  0.1347  0.0503 -0.3328
 6766TIP3    H141713   2.669   2.520   4.819  0.2170 -0.0400 -1.8930
 6766TIP3    H241714   2.532   2.487   4.874  1.1338  0.3965  0.8096
 6767TIP3   OH241715   3.290   3.029  12.442  0.3034 -0.4488  0.3180
 6767TIP3    H141716   3.373   2.983  12.425  1.6316  1.2616  1.7618
 6767TIP3    H241717   3.265   3.000  12.530 -0.2976 -0.4474  0.1508
 6768TIP3   OH241718   3.086   4.084   4.825  0.2269  0.1797  0.0925
 6768TIP3    H141719   3.046   4.136   4.755  0.6286 -0.0849 -0.3424
 6768TIP3    H241720   3.048   3.997   4.816 -0.7952  0.5022  1.1155
 6769TIP3   OH241721   3.923   0.699   6.059  0.4691 -0.8270  0.0309
 6769TIP3    H141722   3.849   0.644   6.086 -0.6039  0.2949 -0.5394
 6769TIP3    H241723   3.962   0.728   6.141 -0.4134 -0.5398  0.3611
 6770TIP3   OH241724   3.002   0.639   2.104 -0.8584  0.2778  0.1155
 6770TIP3    H141725   3.062   0.710   2.125 -0.4290 -0.3178  0.9514
 6770TIP3    H241726   2.941   0.637   2.178 -0.2143 -0.9202  0.6244
 6771TIP3   OH241727   5.475   2.093  15.974 -0.2588 -0.0847 -0.0605
 6771TIP3    H141728   5.513   2.093  15.887  2.4386 -0.0301  1.0365
 6771TIP3    H241729   5.549   2.101  16.034 -1.9891 -0.1743  2.2730
 6772TIP3   OH241730   3.480   6.546  14.405 -0.1287  0.0131 -0.5245
 6772TIP3    H141731   3.537   6.479  14.443 -0.7180 -0.0403  0.2890
 6772TIP3    H241732   3.539   6.616  14.377  0.4130 -0.4611 -0.5706
 6773TIP3   OH241733   5.669   2.061  11.244  0.1666 -0.3838 -0.1863
 6773TIP3    H141734   5.744   2.074  11.186  1.2426  1.0479  1.4346
 6773TIP3    H241735   5.622   2.144  11.242  0.7079 -0.0045  1.6209
 6774TIP3   OH241736   6.480   3.347   2.080  0.1429  0.2997  0.0659
 6774TIP3    H141737   6.517   3.311   1.999 -1.3402 -0.5848 -0.2534
 6774TIP3    H241738   6.468   3.440   2.061 -1.1693 -0.0834 -1.1335
 6775TIP3   OH241739   1.400   3.177   6.242  0.1689 -0.2427  0.3103
 6775TIP3    H141740   1.312   3.141   6.252  0.7977 -2.9063 -2.4367
 6775TIP3    H241741   1.454   3.127   6.303  0.0836  0.3995  0.9378
 6776TIP3   OH241742   0.405   5.532   5.991  0.2348  0.2090 -0.0880
 6776TIP3    H141743   0.467   5.546   6.063  0.5177  3.8084 -0.8042
 6776TIP3    H241744   0.459   5.498   5.919  0.5000 -0.7782  0.5708
 6777TIP3   OH241745   0.878   6.005   2.260  0.1907  0.1942 -0.2469
 6777TIP3    H141746   0.922   6.089   2.270 -0.4981  0.6710 -1.0454
 6777TIP3    H241747   0.796   6.015   2.310 -0.0355  0.1144 -0.5983
 6778TIP3   OH241748   6.334   3.205  16.569 -0.0304  0.2566 -0.2344
 6778TIP3    H141749   6.280   3.178  16.644  1.6133  0.9449  1.2839
 6778TIP3    H241750   6.283   3.273  16.526 -0.6821  0.4005  0.7307
 6779TIP3   OH241751   1.271   0.637  13.881  0.1262 -0.7297  0.3949
 6779TIP3    H141752   1.206   0.575  13.917  0.3725 -1.5244 -0.4872
 6779TIP3    H241753   1.235   0.723  13.900 -0.8417 -1.1540  0.5531
 6780TIP3   OH241754   5.273   4.289  11.323  0.1416 -0.5115 -0.6121
 6780TIP3    H141755   5.293   4.329  11.238 -1.3599  1.5778 -0.0570
 6780TIP3    H241756   5.285   4.360  11.386 -3.2260 -0.6357  0.3578
 6781TIP3   OH241757   5.470   6.746  11.005 -0.1211 -0.3988  0.4077
 6781TIP3    H141758   5.392   6.802  11.000  0.1470 -0.1363 -1.3596
 6781TIP3    H241759   5.438   6.659  10.980  0.0160 -0.4309  0.3450
 6782TIP3   OH241760   0.860   5.004   4.465  0.3816 -0.7808 -0.1342
 6782TIP3    H141761   0.887   4.961   4.384 -1.3406 -0.7541 -0.7687
 6782TIP3    H241762   0.909   5.086   4.466  1.9849 -1.7097 -0.0719
 6783TIP3   OH241763   4.447   3.095   1.425 -0.4731 -0.6147  0.1301
 6783TIP3    H141764   4.505   3.157   1.470 -0.3985  0.9896 -2.0210
 6783TIP3    H241765   4.359   3.131   1.438 -0.5504 -0.7229 -0.0863
 6784TIP3   OH241766   1.909   6.696   1.324  0.2083  0.2170 -0.1009
 6784TIP3    H141767   1.883   6.780   1.286  1.1338 -0.0775 -1.4362
 6784TIP3    H241768   1.827   6.659   1.356 -0.1212  1.9708  1.2892
 6785TIP3   OH241769   3.942   0.604   0.884  0.0160 -0.4333 -0.0521
 6785TIP3    H141770   3.984   0.588   0.969  1.4686 -0.4322 -0.7281
 6785TIP3    H241771   4.007   0.575   0.820 -1.0279 -0.3782 -1.1697
 6786TIP3   OH241772   5.947   6.038   5.836  0.0935  0.2497 -0.3646
 6786TIP3    H141773   5.879   6.035   5.904  1.4197 -0.9422  1.0026
 6786TIP3    H241774   5.988   5.951   5.840  1.4097  0.7914 -1.4427
 6787TIP3   OH241775   4.709   1.949  13.674  0.4237 -0.5716  0.2375
 6787TIP3    H141776   4.669   1.938  13.760  1.5731  0.8679  1.0016
 6787TIP3    H241777   4.797   1.912  13.683  0.5151 -0.5094 -0.3516
 6788TIP3   OH241778   6.463   0.611   3.635  0.0227 -0.3792 -0.1315
 6788TIP3    H141779   6.450   0.641   3.725  0.8914 -1.1062  0.2474
 6788TIP3    H241780   6.454   0.516   3.640  0.4983 -0.4583 -0.7381
 6789TIP3   OH241781   0.702   1.626   3.930 -0.0561 -0.1082  0.2912
 6789TIP3    H141782   0.785   1.614   3.975  1.0754 -1.5536 -1.9958
 6789TIP3    H241783   0.708   1.714   3.892 -0.1753  0.3178  1.2239
 6790TIP3   OH241784   0.634   0.561  14.406  0.0148 -0.4360 -0.6743
 6790TIP3    H141785   0.551   0.535  14.446  0.5709 -0.5527  0.4346
 6790TIP3    H241786   0.640   0.655  14.424  1.0959 -0.8000  1.1461
 6791TIP3   OH241787   4.835   6.542  12.154 -0.0644 -0.9178  0.0888
 6791TIP3    H141788   4.846   6.456  12.195  0.2629 -0.4966  0.9139
 6791TIP3    H241789   4.756   6.534  12.101 -0.6064 -1.4284  0.9548
 6792TIP3   OH241790   3.502   6.378  15.468 -0.0356 -0.3627 -0.0412
 6792TIP3    H141791   3.516   6.456  15.522 -1.9795 -1.1067  1.6513
 6792TIP3    H241792   3.575   6.320  15.490 -0.1812 -0.1893  0.9100
 6793TIP3   OH241793   1.270   4.311   3.000  0.3706  0.6732 -0.5983
 6793TIP3    H141794   1.310   4.279   2.919 -1.3437  0.0802 -1.2569
 6793TIP3    H241795   1.176   4.292   2.990 -0.1355  2.1876  0.7730
 6794TIP3   OH241796   6.753   6.034   2.189  0.7958  0.1377 -0.2899
 6794TIP3    H141797   6.723   6.057   2.276  2.9464  4.3048 -0.3890
 6794TIP3    H241798   6.843   6.004   2.201  0.9999  0.4153 -1.0422
 6795TIP3   OH241799   0.771   6.467  14.446  0.1022  0.3003  0.2309
 6795TIP3    H141800   0.801   6.554  14.473 -0.2846  1.1502 -1.8890
 6795TIP3    H241801   0.697   6.448  14.503  0.5676  1.0827  1.1205
 6796TIP3   OH241802   1.695   4.114  14.561  0.2491 -0.6134 -0.2604
 6796TIP3    H141803   1.616   4.086  14.607 -1.1478  1.2528 -1.3913
 6796TIP3    H241804   1.729   4.186  14.615 -0.2545  0.2402 -1.0634
 6797TIP3   OH241805   2.344   6.669  16.227 -0.6280 -0.7170  0.4898
 6797TIP3    H141806   2.376   6.700  16.311 -0.7956  0.4825  0.1436
 6797TIP3    H241807   2.385   6.727  16.163  0.9450 -2.7555 -0.4361
 6798TIP3   OH241808   4.992   0.986   0.896 -0.0098  0.7706  0.4510
 6798TIP3    H141809   4.978   0.906   0.845 -0.8004  1.8667 -1.1167
 6798TIP3    H241810   4.930   1.049   0.861 -0.0977  1.8169  2.3274
 6799TIP3   OH241811   0.946   2.705   0.508  0.2416 -0.0697 -0.2414
 6799TIP3    H141812   0.907   2.789   0.484  0.4434 -0.1334 -0.7954
 6799TIP3    H241813   0.873   2.643   0.508  0.1364  0.0523 -0.0780
 6800TIP3   OH241814   6.748   4.062   5.005 -0.1001  0.3962 -0.0716
 6800TIP3    H141815   6.720   4.038   4.917  1.7544 -1.2775 -0.2956
 6800TIP3    H241816   6.736   4.157   5.010  0.3751  0.6348 -2.3780
 6801TIP3   OH241817   1.693   4.053   3.108  0.3675  0.2563 -0.1581
 6801TIP3    H141818   1.709   3.994   3.182 -0.5392 -0.7230 -0.7312
 6801TIP3    H241819   1.654   4.131   3.149  1.1213  0.2937  0.5378
 6802TIP3   OH241820   6.151   5.255  16.810  0.0594 -0.3281  0.0355
 6802TIP3    H141821   6.119   5.302  16.733 -0.0364 -1.5630 -0.7085
 6802TIP3    H241822   6.131   5.313  16.884 -1.6096  0.0334 -0.6586
 6803TIP3   OH241823   1.362   0.152   2.794  0.0981  0.4382  0.0889
 6803TIP3    H141824   1.335   0.150   2.703 -1.4003  3.7803  0.3161
 6803TIP3    H241825   1.304   0.090   2.838 -0.5346  0.2844 -0.9399
 6804TIP3   OH241826   2.861   4.802   5.033  0.4955  0.0409 -0.1008
 6804TIP3    H141827   2.947   4.824   5.070 -0.1416 -0.3958  1.7493
 6804TIP3    H241828   2.807   4.782   5.109 -0.7865 -1.3641 -1.3237
 6805TIP3   OH241829   2.563   1.681  12.767  0.2433 -0.0500 -0.1902
 6805TIP3    H141830   2.594   1.762  12.807  0.9874  0.8418 -2.4285
 6805TIP3    H241831   2.575   1.694  12.673  0.3856 -2.7660 -0.6294
 6806TIP3   OH241832   4.188   5.473  16.067  0.0033 -0.4080 -0.4213
 6806TIP3    H141833   4.144   5.432  16.141  2.8656 -2.9257  0.0826
 6806TIP3    H241834   4.173   5.411  15.994  0.6217 -0.0355 -0.8701
 6807TIP3   OH241835   2.644   3.923  16.738 -0.0881 -0.0042  0.2109
 6807TIP3    H141836   2.734   3.953  16.752 -0.5270  0.5616  1.9970
 6807TIP3    H241837   2.601   3.995  16.693  0.2195 -0.0850 -0.2207
 6808TIP3   OH241838   5.973   2.892   0.217  0.4863 -0.0019 -0.1070
 6808TIP3    H141839   5.914   2.889   0.142 -1.9645 -0.1949  1.6883
 6808TIP3    H241840   6.009   2.980   0.216 -0.4475  0.3928 -0.8541
 6809TIP3   OH241841   4.816   0.844  17.079  0.3447  0.6579 -0.5022
 6809TIP3    H141842   4.880   0.819  17.145 -0.4206 -2.5428 -0.8024
 6809TIP3    H241843   4.762   0.911  17.122  0.4745 -0.6064  1.7929
 6810TIP3   OH241844   1.013   1.435  11.963  0.4155 -0.3636  0.4589
 6810TIP3    H141845   1.041   1.343  11.960 -2.7782 -1.5199 -3.4528
 6810TIP3    H241846   0.957   1.440  12.041  0.7475 -1.7064  0.8197
 6811TIP3   OH241847   3.726   3.103   0.715  0.1686 -0.1838  0.1759
 6811TIP3    H141848   3.709   3.195   0.695 -1.2882 -0.5737 -0.5611
 6811TIP3    H241849   3.791   3.076   0.650 -0.0823  0.0998 -0.1995
 6812TIP3   OH241850   6.094   3.599   4.269 -0.2304  0.1781 -0.1645
 6812TIP3    H141851   6.116   3.521   4.218 -1.4954 -0.2876 -0.0581
 6812TIP3    H241852   6.109   3.574   4.360  1.0981  0.6842 -0.2279
 6813TIP3   OH241853   6.751   0.093  14.655  0.3512  0.1295  0.5428
 6813TIP3    H141854   6.825   0.035  14.635 -0.2498 -0.0948 -1.2174
 6813TIP3    H241855   6.677   0.033  14.669  0.0780  0.4204  0.3483
 6814TIP3   OH241856   4.400   6.759  14.972 -0.6299 -0.4179  0.4663
 6814TIP3    H141857   4.468   6.800  14.920  0.3013 -1.2903  0.9645
 6814TIP3    H241858   4.334   6.731  14.909  0.1079 -0.7599 -0.1623
 6815TIP3   OH241859   5.621   4.737  15.516  0.1438  0.0944  0.1265
 6815TIP3    H141860   5.691   4.677  15.539 -1.2725 -0.8066  2.4513
 6815TIP3    H241861   5.661   4.824  15.521  0.8093 -0.2544  3.1644
 6816TIP3   OH241862   4.627   5.982   5.843 -0.0737  0.3030  0.7231
 6816TIP3    H141863   4.711   6.028   5.851  0.9950 -1.3028 -0.6580
 6816TIP3    H241864   4.628   5.945   5.755 -1.9761 -0.2965  0.9094
 6817TIP3   OH241865   0.933   5.104  17.235 -0.0761 -0.2024 -0.0890
 6817TIP3    H141866   0.935   5.198  17.219 -2.0931 -0.6049 -3.7818
 6817TIP3    H241867   1.015   5.085  17.281  1.2048  3.0860 -0.7900
 6818TIP3   OH241868   5.967   0.258   5.363  0.6142 -0.2982  0.1896
 6818TIP3    H141869   6.021   0.327   5.323  1.9915 -2.3189 -1.6477
 6818TIP3    H241870   5.936   0.297   5.445 -0.8516  3.4732 -1.8750
 6819TIP3   OH241871   0.993   4.008  16.221 -0.1265  0.3145 -0.2219
 6819TIP3    H141872   0.905   3.994  16.256 -0.5653 -2.1244 -2.0478
 6819TIP3    H241873   1.044   3.933  16.252  0.3037 -0.2286 -2.0898
 6820TIP3   OH241874   2.704   6.356   2.089  0.1318  0.1148 -0.4614
 6820TIP3    H141875   2.742   6.375   2.003 -0.6423 -0.4463 -0.9315
 6820TIP3    H241876   2.613   6.332   2.071 -0.6942  2.0873  0.7004
 6821TIP3   OH241877   5.885   4.489  12.141 -0.1586  0.1128 -0.0932
 6821TIP3    H141878   5.948   4.560  12.133  0.3254 -0.4850 -2.2280
 6821TIP3    H241879   5.801   4.532  12.156  0.6235  0.9319  2.4289
 6822TIP3   OH241880   3.170   4.734  16.799  0.5018  0.2729  0.1931
 6822TIP3    H141881   3.153   4.648  16.836  2.2539 -0.7233 -1.1818
 6822TIP3    H241882   3.221   4.780  16.865 -0.1536  0.1466  0.7929
 6823TIP3   OH241883   2.213   5.318  11.920  0.1872  0.2549 -0.1420
 6823TIP3    H141884   2.263   5.366  11.986  0.5848  0.2796 -0.4578
 6823TIP3    H241885   2.245   5.352  11.836 -2.3108  2.3369 -0.3901
 6824TIP3   OH241886   0.038   6.172   0.641 -0.0841  0.4579  0.5851
 6824TIP3    H141887  -0.008   6.125   0.711  0.5480  0.4577  1.0004
 6824TIP3    H241888   0.103   6.225   0.686  0.0772  0.7457  0.0212
 6825TIP3   OH241889   0.663   6.025   3.564 -0.1122 -0.2471 -0.8408
 6825TIP3    H141890   0.736   6.034   3.502  0.2687  2.5079 -0.1113
 6825TIP3    H241891   0.700   5.973   3.635  0.3348 -0.9980 -1.5958
 6826TIP3   OH241892   1.152   3.751   3.350 -0.1467  0.8021  0.1286
 6826TIP3    H141893   1.247   3.755   3.356 -0.0789 -1.1328  1.2186
 6826TIP3    H241894   1.121   3.814   3.416  0.3827  0.8515  0.3347
 6827TIP3   OH241895   1.901   1.408  12.013 -0.4434  0.1271 -0.0852
 6827TIP3    H141896   1.855   1.483  12.050  0.1584  1.0963 -1.2059
 6827TIP3    H241897   1.988   1.411  12.055 -1.3280 -1.7425  2.0875
 6828TIP3   OH241898   3.115   5.356   4.512  0.0412  0.2303  0.0533
 6828TIP3    H141899   3.126   5.371   4.418 -2.3034  0.0976 -0.3125
 6828TIP3    H241900   3.033   5.401   4.534  1.1320  1.2658  2.3167
 6829TIP3   OH241901   4.121   1.549  13.357 -0.0053  0.2683 -0.6279
 6829TIP3    H141902   4.041   1.497  13.353  0.5613 -0.5572 -2.2969
 6829TIP3    H241903   4.125   1.593  13.272 -0.0519  2.4640  0.4399
 6830TIP3   OH241904   3.135   2.742   5.352 -0.2510 -0.0051  0.2918
 6830TIP3    H141905   3.180   2.790   5.283 -2.1880  1.6314  0.0668
 6830TIP3    H241906   3.060   2.797   5.374 -0.0698 -0.7723  3.2599
 6831TIP3   OH241907   5.142   3.526   6.322 -0.0561  0.2839  0.1252
 6831TIP3    H141908   5.063   3.488   6.361 -2.0318  2.4465 -1.5030
 6831TIP3    H241909   5.147   3.614   6.358  1.8534  0.1165  0.4009
 6832TIP3   OH241910   0.416   4.378   4.804 -0.6325 -0.4197  0.5846
 6832TIP3    H141911   0.350   4.317   4.838 -1.9226 -0.0300 -1.0570
 6832TIP3    H241912   0.365   4.442   4.755  1.0187 -0.3368 -1.1142
 6833TIP3   OH241913   3.047   5.395   6.397  0.0475 -1.0118  0.1649
 6833TIP3    H141914   3.095   5.475   6.376  0.5691 -1.8124 -1.9291
 6833TIP3    H241915   2.972   5.424   6.449 -0.5430  1.0329 -1.7031
 6834TIP3   OH241916   6.451   3.485   0.768 -0.2461 -0.5355 -0.1362
 6834TIP3    H141917   6.538   3.454   0.744 -0.0179  0.3902 -0.5345
 6834TIP3    H241918   6.391   3.436   0.711  0.1129 -0.1828 -0.8230
 6835TIP3   OH241919   5.146   4.859  12.595  0.6816 -0.2765 -0.3027
 6835TIP3    H141920   5.072   4.878  12.653  1.7169  0.3834  0.8434
 6835TIP3    H241921   5.145   4.764  12.583  0.3521 -0.3976  0.6618
 6836TIP3   OH241922   4.708   0.369  11.796 -0.5203  0.3385 -0.1770
 6836TIP3    H141923   4.616   0.352  11.774 -0.5653 -1.0059  0.9199
 6836TIP3    H241924   4.717   0.340  11.886  0.5245  2.3730  0.4217
 6837TIP3   OH241925   3.172   0.415   0.111 -0.9457 -0.0110  0.1959
 6837TIP3    H141926   3.249   0.470   0.129 -0.3943 -0.3273 -1.1378
 6837TIP3    H241927   3.202   0.326   0.128 -1.7628  0.0226  2.0858
 6838TIP3   OH241928   6.070   2.361   4.850 -0.4748 -0.2970  0.0831
 6838TIP3    H141929   5.988   2.329   4.815 -0.2382  0.3029 -1.0605
 6838TIP3    H241930   6.114   2.283   4.885 -0.2391 -1.1234 -1.9401
 6839TIP3   OH241931   6.477   5.508  16.028 -0.3835  0.1670 -0.2977
 6839TIP3    H141932   6.545   5.572  16.008  0.2617 -0.7336 -1.0914
 6839TIP3    H241933   6.451   5.527  16.118  1.8257 -0.2482  0.4782
 6840TIP3   OH241934   0.522   2.128  15.392  0.4760 -1.0241 -0.0316
 6840TIP3    H141935   0.613   2.135  15.363  0.6188  0.1587  0.6521
 6840TIP3    H241936   0.528   2.094  15.482  0.3335  0.1826  0.4566
 6841TIP3   OH241937   5.016   4.270  14.022  0.6188 -0.0581  0.4056
 6841TIP3    H141938   4.931   4.293  14.059  0.9204 -0.2441  1.2358
 6841TIP3    H241939   5.052   4.353  13.991 -0.1966 -0.0897 -0.7021
 6842TIP3   OH241940   0.095   3.299  16.081  0.2501  0.4385  0.3514
 6842TIP3    H141941   0.168   3.292  16.019 -0.3947  0.4424 -0.4239
 6842TIP3    H241942   0.068   3.391  16.077 -1.0528  0.0414 -0.8614
 6843TIP3   OH241943   6.669   5.122   0.008  0.1894  0.1048 -0.2507
 6843TIP3    H141944   6.730   5.178   0.056  0.4017 -1.1157  0.9624
 6843TIP3    H241945   6.675   5.037   0.052 -0.7708 -0.6369 -1.4887
 6844TIP3   OH241946   4.247   3.689  13.118 -0.2993 -0.1210 -0.0187
 6844TIP3    H141947   4.252   3.784  13.131 -1.6811 -0.1950  1.3741
 6844TIP3    H241948   4.228   3.654  13.205 -0.2184 -1.6365 -0.5900
 6845TIP3   OH241949   1.863   1.965   1.188 -0.6685 -0.1653 -0.2428
 6845TIP3    H141950   1.914   2.009   1.256 -0.9225  1.7292 -1.2311
 6845TIP3    H241951   1.872   2.021   1.111 -0.7444 -2.0269 -1.6820
 6846TIP3   OH241952   1.943   4.756   2.236 -0.2678  0.8299  0.3679
 6846TIP3    H141953   1.948   4.800   2.151 -1.0071  0.2338  0.0004
 6846TIP3    H241954   1.855   4.719   2.238  0.8488 -2.1318 -0.0866
 6847TIP3   OH241955   1.265   4.781   6.448 -0.3087  0.4383 -0.2577
 6847TIP3    H141956   1.344   4.784   6.501 -0.3180 -1.0998 -0.1024
 6847TIP3    H241957   1.197   4.750   6.508 -1.3146  2.7849 -0.1024
 6848TIP3   OH241958   3.643   4.792  14.842 -0.1176  0.3532 -0.0157
 6848TIP3    H141959   3.563   4.836  14.814 -0.7023 -0.5608  0.1907
 6848TIP3    H241960   3.635   4.787  14.938  1.4490  2.6594  0.3346
 6849TIP3   OH241961   2.277   3.682   2.257  0.0166 -0.4305 -0.6071
 6849TIP3    H141962   2.266   3.598   2.213  0.6346 -0.6122 -0.4286
 6849TIP3    H241963   2.337   3.731   2.200  0.1037 -0.3250 -0.4259
 6850TIP3   OH241964   5.155   3.019  16.203 -0.2743  0.2090 -0.4976
 6850TIP3    H141965   5.126   3.065  16.282 -0.9193 -0.4404 -0.3529
 6850TIP3    H241966   5.139   2.927  16.222 -1.1177  0.1078 -1.6698
 6851TIP3   OH241967   6.208   5.450   0.605 -0.4963  0.0202  0.3622
 6851TIP3    H141968   6.239   5.506   0.534  0.5663  1.1215  1.6398
 6851TIP3    H241969   6.268   5.375   0.604 -0.3766  0.1162  0.2027
 6852TIP3   OH241970   4.046   2.348   3.047  0.1917 -0.2529 -0.0299
 6852TIP3    H141971   4.000   2.268   3.074 -0.4715 -0.4084 -1.5210
 6852TIP3    H241972   4.087   2.380   3.128 -0.2535 -1.6120  0.7807
 6853TIP3   OH241973   3.031   6.466  13.584 -0.4744 -0.2021  0.2375
 6853TIP3    H141974   2.961   6.460  13.649 -0.1136  1.9683  0.9157
 6853TIP3    H241975   3.095   6.526  13.624  0.5889 -0.2071 -1.3871
 6854TIP3   OH241976   6.599   6.660  11.853 -0.1545  0.1443  0.3762
 6854TIP3    H141977   6.571   6.718  11.783 -0.4613 -0.0205  0.3591
 6854TIP3    H241978   6.695   6.658  11.847 -0.2277 -0.6543 -0.6617
 6855TIP3   OH241979   0.583   2.937  16.979  0.1036 -0.0162  0.2427
 6855TIP3    H141980   0.548   2.928  16.891  0.9969 -2.5438  0.0615
 6855TIP3    H241981   0.607   2.848  17.005 -0.5760  0.5465  3.2403
 6856TIP3   OH241982   4.871   5.657   1.232 -0.2785 -0.4035 -0.3535
 6856TIP3    H141983   4.911   5.586   1.283  1.2960  1.3467  0.9790
 6856TIP3    H241984   4.920   5.657   1.150 -0.0533 -0.6363 -0.2234
 6857TIP3   OH241985   2.676   0.921   5.894  0.1348  0.1752  0.5032
 6857TIP3    H141986   2.639   0.912   5.982 -1.2256  3.1536  0.3585
 6857TIP3    H241987   2.601   0.908   5.835  0.7523 -0.4125 -0.1681
 6858TIP3   OH241988   5.972   1.147   5.044  0.5633  0.6730 -0.1608
 6858TIP3    H141989   5.969   1.236   5.079  2.8385  0.9392 -0.4474
 6858TIP3    H241990   5.935   1.155   4.956 -3.2819  0.3956  1.2673
 6859TIP3   OH241991   3.603   5.703   5.102  0.0799  0.1597  0.2466
 6859TIP3    H141992   3.625   5.734   5.190 -0.4967  0.3124  0.3398
 6859TIP3    H241993   3.527   5.645   5.115  0.2230 -0.1126 -0.1051
 6860TIP3   OH241994   2.357   3.636  16.711 -0.3280  0.2691 -0.3965
 6860TIP3    H141995   2.321   3.591  16.634  1.2240 -0.6495 -0.6442
 6860TIP3    H241996   2.291   3.624  16.779 -0.8665 -0.6183 -1.0529
 6861TIP3   OH241997   5.133   1.163  15.979 -0.0757  0.5129 -0.3193
 6861TIP3    H141998   5.120   1.250  15.941 -1.0742 -0.5626 -2.6089
 6861TIP3    H241999   5.122   1.103  15.906  1.6991 -1.5187  0.9597
 6862TIP3   OH242000   2.992   1.047  16.348 -0.2514  0.9285 -0.2440
 6862TIP3    H142001   2.909   1.061  16.394  0.5707  0.2131  1.5107
 6862TIP3    H242002   3.005   0.953  16.349  2.5932  1.1700  3.3554
 6863TIP3   OH242003   3.498   2.729  13.469  0.8221 -0.3888  0.7085
 6863TIP3    H142004   3.500   2.673  13.547 -0.8412 -0.1421  0.9482
 6863TIP3    H242005   3.440   2.685  13.408  1.6350 -0.2702 -0.1862
 6864TIP3   OH242006   2.800   4.077   5.079 -0.2644 -0.3432 -0.6735
 6864TIP3    H142007   2.718   4.123   5.063  0.6036  0.6667 -2.4467
 6864TIP3    H242008   2.777   3.984   5.074 -1.3537 -0.0786 -0.7988
 6865TIP3   OH242009   1.338   4.956  14.488 -0.1589 -0.0158 -0.5460
 6865TIP3    H142010   1.339   5.050  14.501  1.2756  0.1645 -1.6325
 6865TIP3    H242011   1.299   4.920  14.568 -0.7790  1.4858 -0.1538
 6866TIP3   OH242012   2.971   6.118  11.935  0.0220  0.4684  0.3189
 6866TIP3    H142013   2.918   6.122  12.015 -0.7719 -0.7047 -0.1165
 6866TIP3    H242014   2.907   6.102  11.866  0.9848 -1.9624 -0.1209
 6867TIP3   OH242015   0.681   1.662  12.144  0.6460  0.2397 -0.2200
 6867TIP3    H142016   0.650   1.622  12.063  0.0205 -0.6576  0.4391
 6867TIP3    H242017   0.739   1.596  12.183  0.6620  0.5150  0.2330
 6868TIP3   OH242018   5.021   4.607  14.254 -0.1478 -0.0190 -0.5129
 6868TIP3    H142019   5.044   4.626  14.345 -0.5302 -2.3652  0.1426
 6868TIP3    H242020   5.092   4.646  14.203  0.1628  1.1944  0.7765
 6869TIP3   OH242021   2.741   6.017  10.750  0.2483  0.2579  0.1082
 6869TIP3    H142022   2.795   6.055  10.819 -1.9359  0.1383  2.0124
 6869TIP3    H242023   2.790   5.940  10.721  2.2196  1.5068 -0.0375
 6870TIP3   OH242024   3.408   2.787   2.599 -0.5963 -0.6263  0.3232
 6870TIP3    H142025   3.345   2.747   2.659 -1.4466  1.3030  0.8222
 6870TIP3    H242026   3.492   2.750   2.623 -1.0459 -0.5170  2.1762
 6871TIP3   OH242027   2.026   6.287  11.889 -0.4218  0.3146 -0.0240
 6871TIP3    H142028   1.983   6.261  11.970  0.4178 -0.0496  0.3138
 6871TIP3    H242029   2.114   6.248  11.894 -0.7224 -0.6521 -1.6067
 6872TIP3   OH242030   2.488   4.664  14.133  0.0429  0.0864  0.0463
 6872TIP3    H142031   2.502   4.725  14.206 -1.3289  0.3259  0.1258
 6872TIP3    H242032   2.437   4.593  14.171  1.1635 -0.8723 -0.1800
 6873TIP3   OH242033   4.782   2.422   4.913 -0.2478 -0.1400  0.5021
 6873TIP3    H142034   4.719   2.420   4.841  0.0039  0.7751  0.2458
 6873TIP3    H242035   4.807   2.330   4.926  1.0505 -0.1970 -1.7851
 6874TIP3   OH242036   5.127   5.065   5.752  0.6083 -0.3680  0.3540
 6874TIP3    H142037   5.149   5.149   5.712 -1.3828  0.5021  0.9492
 6874TIP3    H242038   5.033   5.070   5.769  0.4648 -2.6682  0.5707
 6875TIP3   OH242039   1.211   2.621   2.277 -0.6813  0.1351 -0.0335
 6875TIP3    H142040   1.181   2.606   2.187 -1.7094  2.3751 -0.1484
 6875TIP3    H242041   1.197   2.715   2.291  0.2434  0.0007  2.1967
 6876TIP3   OH242042   5.309   4.095   4.299  0.2029  0.6691 -0.5739
 6876TIP3    H142043   5.272   4.150   4.230 -1.6836  0.1748 -0.0120
 6876TIP3    H242044   5.317   4.008   4.260  1.0155  0.8097 -0.7496
 6877TIP3   OH242045   0.621   6.542  13.719 -0.0673 -0.1508 -0.6546
 6877TIP3    H142046   0.591   6.453  13.739 -1.7176  0.5977  0.5107
 6877TIP3    H242047   0.704   6.552  13.766  1.3293 -1.7674 -2.6325
 6878TIP3   OH242048   3.031   5.100  16.087 -0.1225 -0.4759 -0.1161
 6878TIP3    H142049   3.010   5.171  16.149  0.3842 -1.2437  0.9665
 6878TIP3    H242050   3.048   5.145  16.005  0.1605  0.6711  0.5418
 6879TIP3   OH242051   0.186   0.327   0.225  1.0838  0.2467  0.0410
 6879TIP3    H142052   0.105   0.342   0.178  1.3559 -0.4140 -0.6492
 6879TIP3    H242053   0.177   0.379   0.305 -0.9110 -1.4868  1.0342
 6880TIP3   OH242054   1.019   2.692  10.845 -0.2533 -0.0900  0.3073
 6880TIP3    H142055   1.107   2.675  10.811  0.1766  0.6036  1.0425
 6880TIP3    H242056   0.998   2.615  10.898 -1.4201 -1.7784 -2.3465
 6881TIP3   OH242057   1.211   2.959   0.704  0.2852 -0.4675  0.1607
 6881TIP3    H142058   1.167   2.971   0.788  0.5977 -0.0492  0.2629
 6881TIP3    H242059   1.210   3.046   0.664  0.7975 -0.5126  0.0523
 6882TIP3   OH242060   4.235   2.057  12.831  0.0522 -0.5914  0.3287
 6882TIP3    H142061   4.259   1.978  12.782  0.8116  1.7232 -3.3658
 6882TIP3    H242062   4.144   2.073  12.807  0.7199  1.1047 -1.2307
 6883TIP3   OH242063   6.209   6.275   0.612  0.1873  0.5317  0.0195
 6883TIP3    H142064   6.158   6.273   0.694  0.7901  0.0163  0.3892
 6883TIP3    H242065   6.176   6.201   0.562 -0.3911  1.0265 -0.3341
 6884TIP3   OH242066   2.509   2.839  14.714 -0.6398 -0.1102  0.0652
 6884TIP3    H142067   2.428   2.807  14.675  0.7636 -2.3503 -1.2105
 6884TIP3    H242068   2.551   2.761  14.750  0.8381  1.0324  0.9328
 6885TIP3   OH242069   3.429   0.848   4.481 -0.4734  0.3106 -0.4085
 6885TIP3    H142070   3.375   0.888   4.549  1.0984  1.7462  0.0821
 6885TIP3    H242071   3.394   0.884   4.399 -0.6764  0.7232 -0.1458
 6886TIP3   OH242072   2.807   0.782  16.193 -0.0937  0.7213  0.1326
 6886TIP3    H142073   2.837   0.692  16.180  2.5397  1.3270  1.5038
 6886TIP3    H242074   2.848   0.832  16.123 -0.9085  1.0203 -0.1496
 6887TIP3   OH242075   1.233   1.854   3.524 -0.0464 -0.1222 -0.2009
 6887TIP3    H142076   1.326   1.837   3.510  0.3773  1.3081  0.7394
 6887TIP3    H242077   1.230   1.911   3.601 -1.7698 -1.0082  0.4534
 6888TIP3   OH242078   2.334   1.369  10.310  0.7119  0.1420 -0.1354
 6888TIP3    H142079   2.363   1.404  10.225 -1.8825 -0.9549 -1.6127
 6888TIP3    H242080   2.302   1.281  10.289 -1.3646  0.3755  1.6654
 6889TIP3   OH242081   2.009   2.384  14.353 -0.0671 -0.3760 -0.3434
 6889TIP3    H142082   1.930   2.337  14.379 -2.2331  3.0223 -0.0241
 6889TIP3    H242083   2.072   2.367  14.424 -1.0709 -1.8675  0.2421
 6890TIP3   OH242084   6.187   1.654   2.297  0.6333  0.6098 -0.2464
 6890TIP3    H142085   6.143   1.619   2.375  1.1334  0.7621  0.1095
 6890TIP3    H242086   6.124   1.715   2.259 -0.3351 -0.7675 -0.9693
 6891TIP3   OH242087   5.573   2.398   4.346 -0.2255  0.2361  0.6509
 6891TIP3    H142088   5.660   2.412   4.308 -0.6739 -0.3411 -0.6386
 6891TIP3    H242089   5.515   2.449   4.289 -1.2430 -2.6445 -1.0979
 6892TIP3   OH242090   1.745   0.129   1.199 -0.1650 -0.1165 -0.6763
 6892TIP3    H142091   1.797   0.203   1.233 -0.3069 -0.5458  0.5302
 6892TIP3    H242092   1.657   0.145   1.233 -0.1591 -0.9258 -0.2740
 6893TIP3   OH242093   0.406   2.667  13.318  0.0658  0.0181  0.5081
 6893TIP3    H142094   0.366   2.692  13.235 -1.9780 -1.6398  0.9186
 6893TIP3    H242095   0.500   2.675  13.303 -0.2941  2.4592 -1.0377
 6894TIP3   OH242096   2.303   0.850   3.758  0.2651 -0.8199  0.5290
 6894TIP3    H142097   2.226   0.905   3.774 -0.0175 -0.9874 -0.1817
 6894TIP3    H242098   2.372   0.889   3.811  0.6251  1.4371 -1.4015
 6895TIP3   OH242099   1.406   5.140   6.305 -0.0177  0.0796  0.1214
 6895TIP3    H142100   1.422   5.182   6.389 -0.9543 -0.4999  0.6028
 6895TIP3    H242101   1.396   5.213   6.243 -1.1084  0.5758  0.8498
 6896TIP3   OH242102   5.255   3.229   2.996 -0.1907  0.0181 -0.4309
 6896TIP3    H142103   5.271   3.185   3.080  1.4786 -0.6923 -1.0954
 6896TIP3    H242104   5.216   3.161   2.941  0.8961 -0.1896 -0.9544
 6897TIP3   OH242105   3.575   2.844   3.584 -0.2158  0.1845  0.3317
 6897TIP3    H142106   3.659   2.871   3.622  0.3889 -0.1759 -0.7084
 6897TIP3    H242107   3.571   2.750   3.599 -0.2732  0.1440  0.0646
 6898TIP3   OH242108   2.693   4.342  15.337  0.0086  0.2852  0.5735
 6898TIP3    H142109   2.718   4.433  15.323 -0.7921  0.5048  0.5147
 6898TIP3    H242110   2.736   4.294  15.266  0.1109  0.6769  0.3672
 6899TIP3   OH242111   5.407   2.569   0.449 -0.5566  0.1869  0.4082
 6899TIP3    H142112   5.370   2.487   0.416  0.9300 -0.1677 -0.4596
 6899TIP3    H242113   5.474   2.543   0.511  0.4173  0.6899 -0.3932
 6900TIP3   OH242114   1.650   0.236  14.532  0.1336 -0.4078 -0.0567
 6900TIP3    H142115   1.680   0.303  14.593  0.6318 -1.7131  1.1906
 6900TIP3    H242116   1.607   0.170  14.587 -0.3175 -1.1422 -1.2313
 6901TIP3   OH242117   2.355   1.938   4.501 -0.2378  0.6985  0.3070
 6901TIP3    H142118   2.383   1.862   4.553 -1.2418 -1.9423 -2.7382
 6901TIP3    H242119   2.435   1.970   4.461 -0.1601 -0.6113 -0.6334
 6902TIP3   OH242120   1.950   3.158  12.907  0.1871 -0.6426 -0.9965
 6902TIP3    H142121   1.928   3.239  12.861 -0.2476 -0.2001 -0.0478
 6902TIP3    H242122   2.045   3.157  12.910  0.2684  1.4721  1.6399
 6903TIP3   OH242123   1.120   4.545  11.475  0.6952  0.0885 -0.7534
 6903TIP3    H142124   1.123   4.569  11.568 -0.6071 -0.2640 -0.6007
 6903TIP3    H242125   1.102   4.451  11.474  3.7194 -0.5694 -1.3708
 6904TIP3   OH242126   3.508   6.491   5.240 -0.0769  0.8387  0.3862
 6904TIP3    H142127   3.438   6.431   5.213 -0.2564  1.5038 -0.7300
 6904TIP3    H242128   3.552   6.446   5.312 -0.4471 -0.4538 -0.1583
 6905TIP3   OH242129   5.822   3.412   4.944 -0.0075  0.4245 -0.6795
 6905TIP3    H142130   5.768   3.405   4.865 -1.0872  0.2225  0.0511
 6905TIP3    H242131   5.764   3.453   5.009  0.2038 -1.2053  0.5896
 6906TIP3   OH242132   3.229   5.376  17.059 -0.3069 -0.5651 -0.0124
 6906TIP3    H142133   3.186   5.459  17.078 -0.2147 -0.8141  1.4090
 6906TIP3    H242134   3.299   5.398  16.998  1.3071  0.8556  2.2217
 6907TIP3   OH242135   4.809   3.599  14.061 -0.6519  0.1997 -0.4135
 6907TIP3    H142136   4.785   3.657  14.133 -3.2822 -1.0024 -0.2181
 6907TIP3    H242137   4.782   3.645  13.982 -1.3273 -0.0894 -0.3572
 6908TIP3   OH242138   6.577   0.131   0.684 -0.6253 -0.4626 -0.2919
 6908TIP3    H142139   6.490   0.146   0.721  1.0479  1.0769  3.6151
 6908TIP3    H242140   6.606   0.218   0.656 -0.2244 -0.9024 -1.2714
 6909TIP3   OH242141   4.861   0.551  14.317  0.1301 -0.7234 -0.0125
 6909TIP3    H142142   4.945   0.554  14.271  0.5516 -0.8205  0.7322
 6909TIP3    H242143   4.826   0.640  14.308  0.7685 -0.4078  0.4859
 6910TIP3   OH242144   0.167   2.878   3.627 -0.1526  0.3457 -0.2529
 6910TIP3    H142145   0.204   2.859   3.714 -2.6958  0.2078  0.8777
 6910TIP3    H242146   0.119   2.960   3.639 -0.0778  0.6239 -1.7052
 6911TIP3   OH242147   0.232   4.752  15.422  0.5053 -0.1739  0.3672
 6911TIP3    H142148   0.290   4.711  15.358  0.7692 -0.6647  0.9127
 6911TIP3    H242149   0.242   4.699  15.501 -0.0200  0.2645  0.7350
 6912TIP3   OH242150   5.350   2.111   6.215 -0.2926 -0.3909 -0.5437
 6912TIP3    H142151   5.426   2.055   6.231 -0.7792 -1.1781 -0.9088
 6912TIP3    H242152   5.320   2.135   6.303  0.3382 -0.1279 -0.3964
 6913TIP3   OH242153   6.498   0.678  12.418 -0.1211 -0.2288 -0.1538
 6913TIP3    H142154   6.482   0.706  12.328 -1.2187  0.4202  0.2251
 6913TIP3    H242155   6.593   0.666  12.424  0.0218  0.3432 -1.2106
 6914TIP3   OH242156   1.900   4.298  14.179  0.8592 -0.0649  0.0136
 6914TIP3    H142157   1.882   4.248  14.099  0.1638  0.7092 -0.3258
 6914TIP3    H242158   1.819   4.295  14.229  1.6973 -1.7403  1.4081
 6915TIP3   OH242159   3.830   0.845  14.765  0.3029  0.1637  0.3480
 6915TIP3    H142160   3.882   0.875  14.691  1.5614 -0.7390  0.8239
 6915TIP3    H242161   3.781   0.923  14.793  0.3154  0.6820 -0.9902
 6916TIP3   OH242162   0.035   2.387   0.231  0.3499 -0.4122 -0.0756
 6916TIP3    H142163   0.074   2.384   0.143 -0.6754 -1.1668 -0.5286
 6916TIP3    H242164   0.055   2.302   0.269  0.4462 -0.2346  0.2759
 6917TIP3   OH242165   0.706   1.617   3.570  0.1565 -0.3342  0.3495
 6917TIP3    H142166   0.793   1.645   3.598 -0.6703  0.7643  1.9975
 6917TIP3    H242167   0.654   1.698   3.569 -0.6426 -0.7940 -1.5655
 6918TIP3   OH242168   1.779   6.421  16.887 -0.3427 -0.3044 -0.2485
 6918TIP3    H142169   1.779   6.336  16.931  0.0454 -0.6503 -0.8956
 6918TIP3    H242170   1.714   6.472  16.935 -0.9770 -1.1386 -0.1804
 6919TIP3   OH242171   3.681   2.032   5.714 -0.5161 -0.0858  0.1775
 6919TIP3    H142172   3.712   2.110   5.669 -0.0829 -0.5553 -0.3614
 6919TIP3    H242173   3.625   2.065   5.784  0.1399  0.7312  0.3384
 6920TIP3   OH242174   5.324   6.681   3.296  0.2659  0.1876 -0.0579
 6920TIP3    H142175   5.240   6.687   3.250  0.3685 -2.0210 -0.6522
 6920TIP3    H242176   5.371   6.611   3.251  1.3177 -0.4845  1.9585
 6921TIP3   OH242177   0.180   0.088   2.985  0.5147  0.4160 -0.0938
 6921TIP3    H142178   0.207   0.064   2.896  2.6246 -2.2835  1.1139
 6921TIP3    H242179   0.086   0.070   2.987  0.6623 -0.7519 -1.4601
 6922TIP3   OH242180   3.819   2.808   6.633  0.1162 -0.1163 -0.3602
 6922TIP3    H142181   3.796   2.805   6.540 -1.0920 -1.7001 -0.0507
 6922TIP3    H242182   3.779   2.889   6.665 -1.0954 -0.5095 -0.8271
 6923TIP3   OH242183   4.214   0.799   0.850  0.5816  0.1753 -0.2147
 6923TIP3    H142184   4.253   0.714   0.828 -1.6572 -0.8155 -0.6543
 6923TIP3    H242185   4.257   0.861   0.790  0.9174 -0.9833 -1.2155
 6924TIP3   OH242186   2.217   3.145  16.213  0.2380 -0.0069  0.4738
 6924TIP3    H142187   2.175   3.060  16.222 -0.3747  0.0230 -1.6438
 6924TIP3    H242188   2.173   3.200  16.278 -1.7379 -0.4628 -0.4026
 6925TIP3   OH242189   1.971   5.051   5.112 -0.1790 -0.3565 -0.3833
 6925TIP3    H142190   1.897   5.049   5.172  0.8374  2.0296  1.0902
 6925TIP3    H242191   1.965   5.135   5.067  0.0629 -1.3610 -2.3972
 6926TIP3   OH242192   3.257   3.310   3.468  0.3170 -0.1775 -0.6294
 6926TIP3    H142193   3.323   3.378   3.483 -0.2970  0.7563 -1.9565
 6926TIP3    H242194   3.228   3.286   3.556  0.3926  1.4527 -0.1137
 6927TIP3   OH242195   3.317   1.566  13.062 -0.2453 -0.5570 -0.0185
 6927TIP3    H142196   3.292   1.496  13.123 -0.4386 -0.8284 -0.4044
 6927TIP3    H242197   3.378   1.620  13.112  0.3854 -1.3437  0.0980
 6928TIP3   OH242198   6.504   4.136   2.471 -0.4794 -0.3865 -0.4553
 6928TIP3    H142199   6.581   4.139   2.415  0.5018 -1.0792  0.8043
 6928TIP3    H242200   6.480   4.228   2.483  0.8979 -0.0795  0.1117
 6929TIP3   OH242201   6.079   3.638  15.720  0.0001 -0.9960 -0.3720
 6929TIP3    H142202   6.140   3.673  15.784  0.5493  0.4520 -1.6552
 6929TIP3    H242203   6.134   3.606  15.648 -0.6165 -2.4770 -0.2410
 6930TIP3   OH242204   6.050   1.107  13.675 -0.0012  0.0702 -0.3478
 6930TIP3    H142205   5.985   1.042  13.701 -0.3095  1.2500  2.0283
 6930TIP3    H242206   6.090   1.070  13.595 -0.9799 -2.4266  0.2318
 6931TIP3   OH242207   5.677   3.657   4.199 -0.2106 -0.0937  0.0163
 6931TIP3    H142208   5.596   3.691   4.159 -0.7234 -0.5268  0.6566
 6931TIP3    H242209   5.711   3.594   4.136 -1.4453 -1.3768  0.5921
 6932TIP3   OH242210   4.442   4.025  13.997  0.0685 -0.4369 -0.0095
 6932TIP3    H142211   4.486   4.110  13.990  1.3196 -1.0850 -0.2279
 6932TIP3    H242212   4.377   4.026  13.927 -0.4218  0.6107  0.4321
 6933TIP3   OH242213   4.774   5.405   3.139 -1.0176  0.2295 -0.1928
 6933TIP3    H142214   4.753   5.479   3.082 -3.3572  0.2684  0.6134
 6933TIP3    H242215   4.838   5.441   3.201  1.2116  0.3081 -2.4011
 6934TIP3   OH242216   3.616   4.481   5.106  0.0000 -0.6706 -0.0982
 6934TIP3    H142217   3.563   4.550   5.065  0.1885  0.1266  0.9610
 6934TIP3    H242218   3.552   4.425   5.151  0.0380  0.5327  1.5378
 6935TIP3   OH242219   3.226   1.483   1.274  0.5009  0.3557 -0.5322
 6935TIP3    H142220   3.173   1.560   1.253 -1.2217 -0.3071  1.0836
 6935TIP3    H242221   3.231   1.434   1.192 -3.1585 -0.5384 -0.3627
 6936TIP3   OH242222   2.469   1.279   1.585  0.5536 -0.6777  0.0162
 6936TIP3    H142223   2.553   1.307   1.622  0.5054 -1.5634  0.8336
 6936TIP3    H242224   2.404   1.329   1.634  0.4609 -2.2246  1.5566
 6937TIP3   OH242225   6.610   5.165   5.839  0.1016 -0.0331 -0.5595
 6937TIP3    H142226   6.601   5.204   5.926  2.5070  1.8866 -1.0639
 6937TIP3    H242227   6.539   5.205   5.788 -1.6735 -1.5959  0.5606
 6938TIP3   OH242228   0.594   4.181  17.102 -0.2497  0.4738  0.4587
 6938TIP3    H142229   0.685   4.209  17.098 -0.0846 -0.0632  0.2977
 6938TIP3    H242230   0.581   4.132  17.020 -0.2087 -0.8162  1.1914
 6939TIP3   OH242231   0.256   5.786   2.318  0.1783 -0.0642  0.6967
 6939TIP3    H142232   0.225   5.834   2.395 -2.0312  0.6907 -0.5689
 6939TIP3    H242233   0.217   5.833   2.244  0.7373 -1.8446 -0.7835
 6940TIP3   OH242234   1.232   4.394   1.745 -0.3876  0.4358 -0.0715
 6940TIP3    H142235   1.147   4.414   1.705 -0.1882  0.8312 -0.3127
 6940TIP3    H242236   1.292   4.457   1.704 -0.2430  1.0967  1.1206
 6941TIP3   OH242237   3.089   0.814   0.323  0.6236  0.0598 -0.1171
 6941TIP3    H142238   3.182   0.831   0.312  0.7763  0.3773  1.4618
 6941TIP3    H242239   3.049   0.901   0.329  0.1261 -0.0575 -1.3076
 6942TIP3   OH242240   1.153   2.048   4.808  0.1378 -0.1146  0.1707
 6942TIP3    H142241   1.167   2.130   4.762  0.8139 -0.1447  0.3155
 6942TIP3    H242242   1.236   2.001   4.799  0.2804 -0.1269  1.3971
 6943TIP3   OH242243   0.377   0.781   4.667  0.4650 -0.1980 -0.4377
 6943TIP3    H142244   0.306   0.769   4.730 -0.5712  0.3116 -1.4682
 6943TIP3    H242245   0.337   0.831   4.596  2.2129  1.2533 -0.4531
 6944TIP3   OH242246   4.545   0.849  16.016 -0.5233 -0.5642  0.4933
 6944TIP3    H142247   4.546   0.924  16.076 -1.6222 -1.0971  1.1959
 6944TIP3    H242248   4.619   0.795  16.044 -0.1267 -0.0721  0.4040
 6945TIP3   OH242249   1.627   1.648   3.153 -0.1989 -0.4883  0.1219
 6945TIP3    H142250   1.595   1.726   3.199  0.1081 -0.8546  0.9917
 6945TIP3    H242251   1.589   1.654   3.066 -1.6245 -0.2709  0.7214
 6946TIP3   OH242252   1.977   2.341  13.666  0.1210 -0.1484 -0.0030
 6946TIP3    H142253   1.961   2.263  13.720 -1.2229  0.8171  1.0704
 6946TIP3    H242254   1.916   2.332  13.593 -3.2886  1.8368  2.2980
 6947TIP3   OH242255   3.519   6.029  11.846 -0.1735  0.6612  0.2826
 6947TIP3    H142256   3.481   5.962  11.903 -0.4329  1.7549  1.4276
 6947TIP3    H242257   3.445   6.061  11.794  0.1959 -0.8674 -1.2844
 6948TIP3   OH242258   5.593   0.765   0.553  0.1764  0.5899  0.5657
 6948TIP3    H142259   5.589   0.671   0.541  1.4826  0.4530  1.0929
 6948TIP3    H242260   5.668   0.793   0.501  0.7801  1.1148  1.6865
 6949TIP3   OH242261   6.145   5.403   1.226 -1.0381  0.5007  0.1583
 6949TIP3    H142262   6.152   5.308   1.241 -1.4585  0.2295 -1.1531
 6949TIP3    H242263   6.228   5.426   1.185 -0.5508  0.8963  1.3591
 6950TIP3   OH242264   5.289   0.856   5.772  0.3565  0.1270 -0.6942
 6950TIP3    H142265   5.290   0.917   5.846  2.5017  1.0878 -1.4262
 6950TIP3    H242266   5.269   0.771   5.811 -1.1009  0.9984  0.5898
 6951TIP3   OH242267   2.873   1.024   3.553 -0.4635  0.8860  0.6459
 6951TIP3    H142268   2.836   0.936   3.543  1.4315  0.1637 -0.3739
 6951TIP3    H242269   2.901   1.029   3.644  1.8425 -0.6263  0.0939
 6952TIP3   OH242270   0.636   6.689  14.211  0.0334  0.1695  0.1256
 6952TIP3    H142271   0.690   6.610  14.210  0.8883  0.7447 -0.8449
 6952TIP3    H242272   0.625   6.712  14.119 -0.0851  1.2637  0.4018
 6953TIP3   OH242273   0.880   0.914  11.085 -0.0248 -0.2647  0.3438
 6953TIP3    H142274   0.911   0.953  11.003 -2.0804 -0.6584 -0.7066
 6953TIP3    H242275   0.926   0.961  11.154  1.1475  0.6492 -1.0220
 6954TIP3   OH242276   1.022   6.429   2.638  0.4265  0.1037 -0.5027
 6954TIP3    H142277   0.993   6.425   2.729 -1.3012  2.6971 -0.8285
 6954TIP3    H242278   1.071   6.511   2.632  1.9174 -0.8337 -1.5751
 6955TIP3   OH242279   6.385   5.911  12.233 -0.2060 -0.3614  0.1416
 6955TIP3    H142280   6.447   5.938  12.165 -3.0342  2.0304 -1.7166
 6955TIP3    H242281   6.342   5.834  12.198  0.2924 -0.8481  0.5679
 6956TIP3   OH242282   3.103   6.228  13.928 -0.1539 -0.6917  0.5200
 6956TIP3    H142283   3.139   6.225  13.839 -3.1099 -1.1721 -0.7806
 6956TIP3    H242284   3.128   6.315  13.960  1.9116 -0.9185 -0.2814
 6957TIP3   OH242285   2.945   2.064  14.307 -0.0028 -0.1456  0.0745
 6957TIP3    H142286   2.922   2.155  14.327  2.4546  0.3213  1.1256
 6957TIP3    H242287   2.992   2.068  14.224 -0.1871 -0.5214 -0.0526
 6958TIP3   OH242288   5.931   6.344  10.968 -0.7162 -0.3250  0.4164
 6958TIP3    H142289   5.891   6.258  10.960 -0.5354 -0.3730  0.0092
 6958TIP3    H242290   5.940   6.375  10.878  1.5776 -0.9619  0.3694
 6959TIP3   OH242291   6.326   1.841  16.851  0.2115  0.1789 -0.0940
 6959TIP3    H142292   6.251   1.799  16.808  0.8373  0.5303 -1.5640
 6959TIP3    H242293   6.288   1.918  16.894 -0.3593  0.0603 -0.3704
 6960TIP3   OH242294   2.243   0.792   5.355  0.1152  0.9537 -0.0783
 6960TIP3    H142295   2.248   0.700   5.382 -0.9630  0.5025 -1.3265
 6960TIP3    H242296   2.160   0.823   5.389  0.6034  1.5619  0.5769
 6961TIP3   OH242297   4.452   2.789   5.046 -0.0124 -0.4094  0.7645
 6961TIP3    H142298   4.441   2.884   5.046 -0.1215 -0.4206  0.5480
 6961TIP3    H242299   4.393   2.758   4.978  0.5773 -0.5658  0.3137
 6962TIP3   OH242300   2.784   2.436   4.348  0.1809 -1.2529  0.2226
 6962TIP3    H142301   2.692   2.461   4.335  0.1138 -1.3130  0.5660
 6962TIP3    H242302   2.793   2.352   4.304  0.2404 -0.9395 -0.3809
 6963TIP3   OH242303   3.289   1.664  11.614  0.0285  0.2146  0.2530
 6963TIP3    H142304   3.354   1.594  11.627 -1.2173 -1.0445 -0.1347
 6963TIP3    H242305   3.253   1.679  11.702  1.8418  1.9974  0.7762
 6964TIP3   OH242306   3.907   5.369  14.424  0.0516 -0.3075  0.2289
 6964TIP3    H142307   3.878   5.409  14.341  1.2938 -0.0944 -0.1181
 6964TIP3    H242308   3.847   5.406  14.490  1.0768  2.1388 -0.0790
 6965TIP3   OH242309   3.309   5.950   2.440  0.3683  0.0178 -0.7837
 6965TIP3    H142310   3.389   5.896   2.441  0.1397 -0.4284 -2.8158
 6965TIP3    H242311   3.257   5.916   2.513  2.1113  0.5254  0.7947
 6966TIP3   OH242312   6.034   2.171   2.837  0.5777  0.0430 -0.5888
 6966TIP3    H142313   6.073   2.141   2.755  1.3152 -0.2217 -0.1497
 6966TIP3    H242314   6.073   2.115   2.904 -1.3005 -0.8974 -0.2296
 6967TIP3   OH242315   1.830   2.006  13.398  0.2583  0.1258  0.1289
 6967TIP3    H142316   1.872   1.955  13.328 -0.5585 -0.0588 -0.2423
 6967TIP3    H242317   1.795   1.940  13.458  0.5913  0.2790  0.4956
 6968TIP3   OH242318   0.369   2.598  14.951 -0.2505  0.4014 -0.0249
 6968TIP3    H142319   0.377   2.542  14.874  0.9917 -1.8652  1.6515
 6968TIP3    H242320   0.288   2.569  14.994  0.4682 -0.2622  0.9225
 6969TIP3   OH242321   3.817   6.696   0.181  0.1739  0.0542 -0.1179
 6969TIP3    H142322   3.829   6.790   0.174 -0.2520  0.1690  0.5853
 6969TIP3    H242323   3.796   6.668   0.091  0.0520  0.6647 -0.2861
 6970TIP3   OH242324   6.722   2.258   4.378  0.2673  0.1392 -0.1727
 6970TIP3    H142325   6.637   2.284   4.413 -0.5038 -1.4133 -0.8091
 6970TIP3    H242326   6.738   2.319   4.306  0.6196  1.6444  1.1186
 6971TIP3   OH242327   3.070   5.027   1.279  0.1342  0.2096 -0.2033
 6971TIP3    H142328   2.997   5.077   1.316  0.2952 -0.6953  1.4592
 6971TIP3    H242329   3.086   5.066   1.193 -0.8968  1.8246  0.3026
 6972TIP3   OH242330   0.762   1.785  14.545  0.4925  0.9751 -0.3797
 6972TIP3    H142331   0.679   1.832  14.547  0.0431  0.3200 -1.8878
 6972TIP3    H242332   0.814   1.824  14.615 -1.5369  0.5231  1.4894
 6973TIP3   OH242333   3.364   6.137   6.004  0.0650  0.1776 -0.2125
 6973TIP3    H142334   3.438   6.192   6.033 -0.7063  1.2113 -0.1367
 6973TIP3    H242335   3.320   6.113   6.085 -0.1824  0.2902 -0.3140
 6974TIP3   OH242336   3.247   4.711  17.136  0.2771  0.6062  0.0494
 6974TIP3    H142337   3.160   4.682  17.110  0.4589 -1.2706  1.3090
 6974TIP3    H242338   3.307   4.663  17.078  0.5023  1.4468 -0.4249
 6975TIP3   OH242339   1.707   2.358   1.862  0.1109 -0.7421 -0.0786
 6975TIP3    H142340   1.710   2.311   1.779 -0.1922 -0.6395 -0.1508
 6975TIP3    H242341   1.618   2.342   1.894 -0.5900  1.2032 -0.9403
 6976TIP3   OH242342   1.795   5.672  17.218  0.4573  0.1872 -0.1259
 6976TIP3    H142343   1.745   5.689  17.298 -1.7726 -0.5066 -1.2995
 6976TIP3    H242344   1.743   5.713  17.149  0.9521 -1.4808 -1.5384
 6977TIP3   OH242345   1.401   3.931   2.523 -0.5799 -0.6687  0.5972
 6977TIP3    H142346   1.410   4.026   2.534 -0.7029 -0.4078 -1.2502
 6977TIP3    H242347   1.442   3.894   2.601  1.3746  0.8529  0.3695
 6978TIP3   OH242348   2.071   6.454   4.963  0.3698 -0.4705  0.3862
 6978TIP3    H142349   2.040   6.521   5.023  1.1312  0.7069 -0.4913
 6978TIP3    H242350   2.007   6.455   4.891 -0.0879 -1.3048  0.7640
 6979TIP3   OH242351   1.863   1.318  13.082 -0.0864 -0.4007 -0.7665
 6979TIP3    H142352   1.839   1.307  12.990  0.8512 -1.0158 -0.9509
 6979TIP3    H242353   1.840   1.235  13.123 -1.6211  0.2847 -0.1716
 6980TIP3   OH242354   5.029   6.360   4.836 -0.0517 -0.6344 -0.8589
 6980TIP3    H142355   4.990   6.279   4.869  0.8594 -1.2848 -1.3469
 6980TIP3    H242356   5.119   6.336   4.816  0.7276  0.9105  0.5613
 6981TIP3   OH242357   4.442   5.644  14.727 -0.3943  0.0252 -0.2223
 6981TIP3    H142358   4.398   5.636  14.811 -1.1829 -0.3004 -0.6550
 6981TIP3    H242359   4.428   5.559  14.684  0.7001 -0.1081 -0.3611
 6982TIP3   OH242360   6.511   4.780  13.254  0.2881 -0.2388 -0.2195
 6982TIP3    H142361   6.521   4.766  13.160 -0.5237 -1.6318 -0.1246
 6982TIP3    H242362   6.443   4.718  13.281 -0.0693  0.6876  1.1532
 6983TIP3   OH242363   5.428   5.831   3.096 -0.2164  0.0207 -0.3319
 6983TIP3    H142364   5.519   5.824   3.069 -0.2248 -0.8326 -0.1450
 6983TIP3    H242365   5.404   5.921   3.074 -0.0496 -0.4477 -2.6330
 6984TIP3   OH242366   0.584   4.440  12.619  0.2814  0.3099  0.7809
 6984TIP3    H142367   0.557   4.362  12.570  0.5764 -0.0430  1.1771
 6984TIP3    H242368   0.504   4.471  12.660 -0.1493  1.0950 -0.5864
 6985TIP3   OH242369   4.192   0.513  13.401 -0.2617 -0.1499 -0.1323
 6985TIP3    H142370   4.265   0.490  13.459 -0.5619 -0.6086  0.0683
 6985TIP3    H242371   4.122   0.454  13.426 -0.1457 -0.8986 -1.4876
 6986TIP3   OH242372   4.581   6.007  11.232  0.0092 -0.4058  0.5260
 6986TIP3    H142373   4.513   6.060  11.191  0.9296 -0.0220 -0.5645
 6986TIP3    H242374   4.663   6.043  11.199  0.7102 -1.5617  0.9290
 6987TIP3   OH242375   1.102   2.914  12.095  0.0819 -0.1819 -0.1828
 6987TIP3    H142376   1.007   2.922  12.092  0.0342 -0.3556  0.7526
 6987TIP3    H242377   1.129   2.917  12.003 -0.9401 -1.5328 -0.5559
 6988TIP3   OH242378   5.608   6.126  10.919  0.3124  0.4365  0.3843
 6988TIP3    H142379   5.699   6.098  10.923  0.2837  0.2656 -0.0482
 6988TIP3    H242380   5.607   6.194  10.852 -0.2674 -1.2217 -1.4118
 6989TIP3   OH242381   2.540   1.745  13.720 -0.1496 -0.4257  0.2862
 6989TIP3    H142382   2.472   1.727  13.785 -1.4697  0.5251 -0.7671
 6989TIP3    H242383   2.498   1.804  13.657  1.7110  0.3031 -0.3334
 6990TIP3   OH242384   6.371   5.185   1.264 -0.0896  0.2394  0.0771
 6990TIP3    H142385   6.432   5.259   1.262 -0.6700  0.7331 -1.3984
 6990TIP3    H242386   6.408   5.124   1.328  0.9856  1.3168  0.5182
 6991TIP3   OH242387   2.320   4.831  13.583  0.6440 -0.4698  0.4050
 6991TIP3    H142388   2.367   4.909  13.556 -0.2485  0.0615  0.3527
 6991TIP3    H242389   2.254   4.863  13.645 -0.9800 -0.8793 -1.0189
 6992TIP3   OH242390   0.582   4.601   3.434  0.4508  0.5656  0.3588
 6992TIP3    H142391   0.510   4.629   3.377 -0.1768  0.9744  1.3344
 6992TIP3    H242392   0.633   4.540   3.380 -1.0557 -0.3383 -0.1093
 6993TIP3   OH242393   1.642   5.822   3.535  0.6369 -0.3479 -0.0755
 6993TIP3    H142394   1.631   5.770   3.455  1.0771  0.5093 -0.7143
 6993TIP3    H242395   1.601   5.770   3.604  0.5140 -1.2398 -0.8098
 6994TIP3   OH242396   5.912   3.975  13.969 -0.3703  0.5212 -0.3215
 6994TIP3    H142397   5.882   3.892  14.007  0.6902 -0.0974 -0.8182
 6994TIP3    H242398   5.835   4.010  13.925 -1.0181  0.1584  0.4879
 6995TIP3   OH242399   5.153   0.252   3.598  0.1060  0.4996 -0.0646
 6995TIP3    H142400   5.244   0.225   3.607 -0.1087  0.2339  1.6149
 6995TIP3    H242401   5.140   0.316   3.668 -1.0353  0.4257 -0.1874
 6996TIP3   OH242402   4.577   1.450   4.747 -0.0703 -0.2449  0.1251
 6996TIP3    H142403   4.501   1.415   4.700 -0.5318 -1.1936  1.5145
 6996TIP3    H242404   4.646   1.386   4.732  0.0756 -0.0490 -0.0515
 6997TIP3   OH242405   4.246   4.360   6.282  0.2263  0.7580  0.3060
 6997TIP3    H142406   4.170   4.407   6.315  0.5062  1.1109  0.4558
 6997TIP3    H242407   4.319   4.421   6.294  0.2918  1.0643 -1.3205
 6998TIP3   OH242408   2.930   0.249   0.706 -0.2483  0.0266  0.3693
 6998TIP3    H142409   2.969   0.293   0.781  0.6558  1.0097 -0.6525
 6998TIP3    H242410   3.005   0.212   0.658 -0.6521  0.7724 -0.8890
 6999TIP3   OH242411   0.758   3.640   2.743 -0.1786 -0.1035 -0.0376
 6999TIP3    H142412   0.798   3.666   2.661 -1.0185 -0.5170 -0.5871
 6999TIP3    H242413   0.821   3.668   2.810 -0.9851  3.3681 -0.5252
 7000TIP3   OH242414   1.690   3.334  16.739  0.3572 -0.0868  0.0517
 7000TIP3    H142415   1.691   3.418  16.785 -0.9983  1.0525 -1.8249
 7000TIP3    H242416   1.598   3.319  16.718  0.7529 -1.2772 -0.9398
 7001TIP3   OH242417   5.691   5.923   5.670 -0.2534 -0.4082  0.9000
 7001TIP3    H142418   5.765   5.949   5.615 -0.3682  2.4308  1.9067
 7001TIP3    H242419   5.726   5.925   5.759 -1.4566  0.8245  1.3777
 7002TIP3   OH242420   6.321   3.515   2.351  0.4129  0.1582 -0.4155
 7002TIP3    H142421   6.411   3.500   2.378 -0.1796 -0.0847  1.6340
 7002TIP3    H242422   6.285   3.428   2.334 -0.2828 -0.0762  1.9175
 7003TIP3   OH242423   0.517   6.046   5.260  0.2030 -0.2045  0.6166
 7003TIP3    H142424   0.447   6.007   5.311 -1.4796  1.5601 -0.2197
 7003TIP3    H242425   0.493   6.139   5.253  1.7202  0.1213 -1.1529
 7004TIP3   OH242426   6.290   6.037   1.633  0.2236  0.1128  0.0865
 7004TIP3    H142427   6.368   6.090   1.615  1.6417 -1.2092  1.9020
 7004TIP3    H242428   6.319   5.947   1.618 -0.6910 -0.4673  1.5890
 7005TIP3   OH242429   0.588   0.837   5.029 -0.6176 -0.4995  0.1406
 7005TIP3    H142430   0.657   0.866   5.090 -0.7640 -2.4856  1.3362
 7005TIP3    H242431   0.631   0.773   4.973 -1.4760 -1.9379  1.0503
 7006TIP3   OH242432   5.989   1.060  14.778 -0.5266  0.0551  0.1569
 7006TIP3    H142433   5.939   1.141  14.784  0.7464  0.8113  1.0453
 7006TIP3    H242434   6.043   1.059  14.857 -0.8868 -1.9277  0.4189
 7007TIP3   OH242435   0.002   6.544  12.164  0.0236  0.5052 -0.3344
 7007TIP3    H142436  -0.069   6.483  12.141  0.2590  0.4033 -0.7770
 7007TIP3    H242437   0.052   6.556  12.084 -0.2447  1.5938 -0.3591
 7008TIP3   OH242438   4.915   4.502   3.587  0.2152 -0.1954  0.3933
 7008TIP3    H142439   4.883   4.558   3.658 -1.3891  0.2619 -0.6317
 7008TIP3    H242440   4.856   4.521   3.514  2.1738 -0.2079 -1.2635
 7009TIP3   OH242441   3.023   0.147   2.648  0.0650  0.2508  0.5213
 7009TIP3    H142442   3.091   0.212   2.633  0.3035 -0.3297 -1.0646
 7009TIP3    H242443   2.965   0.154   2.572 -1.3976  0.3961  1.5953
 7010TIP3   OH242444   2.318   0.089  12.459 -0.2796 -0.1365  0.2836
 7010TIP3    H142445   2.375   0.129  12.525  2.1440 -0.9506 -1.1733
 7010TIP3    H242446   2.278   0.015  12.504  0.0819  0.2451  1.2786
 7011TIP3   OH242447   4.402   3.486   0.826  0.0855  0.0063 -0.6415
 7011TIP3    H142448   4.443   3.572   0.814 -1.4205  0.6349 -1.5733
 7011TIP3    H242449   4.387   3.455   0.736 -2.7777  0.4825 -0.4112
 7012TIP3   OH242450   4.960   2.592   0.677  0.2910  0.6826 -0.0649
 7012TIP3    H142451   4.896   2.658   0.702  0.9868  1.1324  0.6012
 7012TIP3    H242452   4.920   2.544   0.605  0.0148  2.2469 -0.9919
 7013TIP3   OH242453   1.490   1.463   0.230  0.1460 -0.3327 -0.2366
 7013TIP3    H142454   1.495   1.440   0.137 -0.6085  0.6005 -0.5351
 7013TIP3    H242455   1.396   1.468   0.248  0.2735 -1.4256  0.8305
 7014TIP3   OH242456   1.209   0.165   1.320  0.2137  0.1931 -0.1549
 7014TIP3    H142457   1.204   0.094   1.384  0.2249  1.3682  1.2188
 7014TIP3    H242458   1.214   0.244   1.373 -1.4084  1.3526 -1.6277
 7015TIP3   OH242459   1.532   4.875   1.719  0.1383  0.0918  0.0218
 7015TIP3    H142460   1.594   4.859   1.790  0.0289  0.0270  0.1036
 7015TIP3    H242461   1.470   4.938   1.756 -0.6529 -0.8909  0.4179
 7016TIP3   OH242462   4.147   5.683  16.871 -0.3601 -0.3874 -0.2610
 7016TIP3    H142463   4.110   5.746  16.933 -0.5038  0.1300 -0.8669
 7016TIP3    H242464   4.162   5.734  16.791 -1.4853 -1.3617 -1.1185
 7017TIP3   OH242465   4.940   4.974  12.755  0.9041  0.0405 -0.1375
 7017TIP3    H142466   4.981   5.060  12.744 -0.1466  0.5470 -0.2797
 7017TIP3    H242467   4.871   4.972  12.689  0.6101 -0.7226  0.1789
 7018TIP3   OH242468   1.561   1.825  14.239  0.1057 -0.1930 -0.8812
 7018TIP3    H142469   1.517   1.780  14.311 -2.8104  1.0037 -1.7897
 7018TIP3    H242470   1.655   1.812  14.256 -0.5303 -2.0218  1.7295
 7019TIP3   OH242471   2.129   3.511  12.824 -0.4870 -0.0420  0.0701
 7019TIP3    H142472   2.140   3.564  12.744 -1.3628  0.1575  0.0766
 7019TIP3    H242473   2.210   3.526  12.873  0.1987 -0.3972 -0.9069
 7020TIP3   OH242474   0.383   5.496   4.390 -0.5574  0.1728 -0.0885
 7020TIP3    H142475   0.288   5.504   4.401 -0.6573 -0.3440 -0.5298
 7020TIP3    H242476   0.418   5.495   4.479 -0.9969 -0.0244  0.0848
 7021TIP3   OH242477   4.611   3.786   4.446 -0.1663 -0.3511  0.6076
 7021TIP3    H142478   4.676   3.840   4.490 -0.2318 -0.8229  1.3000
 7021TIP3    H242479   4.653   3.759   4.364 -0.4756  1.4954 -0.2137
 7022TIP3   OH242480   3.531   0.308   3.251 -0.1674  0.3039 -0.0502
 7022TIP3    H142481   3.617   0.333   3.218 -0.5316 -1.0420 -2.2070
 7022TIP3    H242482   3.509   0.375   3.316  2.5548  0.5677  0.7156
 7023TIP3   OH242483   4.386   6.230  15.377  0.1255 -0.2090 -0.1711
 7023TIP3    H142484   4.310   6.288  15.374 -0.5818 -1.0848  0.2682
 7023TIP3    H242485   4.453   6.280  15.424 -1.0548 -0.3818  1.7948
 7024TIP3   OH242486   2.564   0.407  11.044 -0.0032 -0.7589  0.6437
 7024TIP3    H142487   2.484   0.362  11.070 -0.7338  0.2572  0.2306
 7024TIP3    H242488   2.615   0.341  10.997 -0.2737 -1.6068  1.5145
 7025TIP3   OH242489   1.900   4.731  13.848 -0.1424  0.0043  0.3737
 7025TIP3    H142490   1.901   4.640  13.877 -3.7418 -0.6066 -0.8665
 7025TIP3    H242491   1.809   4.759  13.861  0.5695  3.0386 -0.4394
 7026TIP3   OH242492   3.349   4.763  15.917 -0.2541 -0.2239  0.4680
 7026TIP3    H142493   3.301   4.839  15.887  1.5200  0.9965  0.5662
 7026TIP3    H242494   3.360   4.777  16.011  2.3235  0.8012  0.0928
 7027TIP3   OH242495   6.203   3.907  13.587  0.0100  0.1766 -0.2036
 7027TIP3    H142496   6.168   3.880  13.502 -1.1486  1.6291 -0.2374
 7027TIP3    H242497   6.233   3.825  13.627  2.2468 -0.3615 -2.6727
 7028TIP3   OH242498   5.447   2.133  12.589  0.3525 -0.3323  0.0110
 7028TIP3    H142499   5.413   2.105  12.674  0.3241 -0.1134  0.0700
 7028TIP3    H242500   5.411   2.220  12.576 -0.2649 -0.6657 -0.5696
 7029TIP3   OH242501   1.841   2.224  15.937 -0.1655  0.6775  0.4551
 7029TIP3    H142502   1.934   2.205  15.925 -0.4380 -0.9417  0.6155
 7029TIP3    H242503   1.812   2.256  15.851  0.3676  0.3871  0.1574
 7030TIP3   OH242504   5.533   0.367   2.665  0.0497  0.6376 -0.0712
 7030TIP3    H142505   5.582   0.432   2.715  0.1409  0.3525  0.2127
 7030TIP3    H242506   5.442   0.394   2.673  0.0025  0.2506  0.7603
 7031TIP3   OH242507   3.210   0.010   1.653 -0.0909 -0.2860  0.5457
 7031TIP3    H142508   3.259   0.013   1.735 -0.6571 -0.4791  0.9003
 7031TIP3    H242509   3.132   0.063   1.670 -0.4138 -0.6652  0.2716
 7032TIP3   OH242510   2.404   5.724  14.494  0.2238  0.0007  0.3818
 7032TIP3    H142511   2.330   5.750  14.549  0.0113 -0.2124  0.1937
 7032TIP3    H242512   2.368   5.721  14.405  0.8959  1.7708  0.0095
 7033TIP3   OH242513   0.527   5.310   0.004 -0.4949 -0.8532 -0.1929
 7033TIP3    H142514   0.593   5.377   0.021 -2.3605  0.6876  1.5500
 7033TIP3    H242515   0.487   5.335  -0.079  0.8157 -1.6248 -1.1039
 7034TIP3   OH242516   4.408   3.153   2.349  0.0531 -0.1275  0.1858
 7034TIP3    H142517   4.450   3.215   2.408  0.9009 -1.0691  0.6003
 7034TIP3    H242518   4.480   3.119   2.295 -0.5524 -0.0181 -0.7219
 7035TIP3   OH242519   1.313   5.753   1.529  0.1169 -0.4716  0.0116
 7035TIP3    H142520   1.226   5.779   1.499 -0.2239 -1.8165 -0.2436
 7035TIP3    H242521   1.324   5.799   1.613  0.0668  1.3695 -0.9460
 7036TIP3   OH242522   3.611   0.068   5.228  0.1256 -0.1825  0.1414
 7036TIP3    H142523   3.538   0.011   5.203 -0.2654  0.9298 -1.4465
 7036TIP3    H242524   3.684   0.008   5.243 -0.9359 -1.2785  1.1743
 7037TIP3   OH242525   2.007   0.609   5.477 -0.5653  0.7404 -0.1554
 7037TIP3    H142526   1.950   0.573   5.410  1.2000  0.0814 -1.3813
 7037TIP3    H242527   2.087   0.556   5.472  0.0537  1.4048  1.6963
 7038TIP3   OH242528   0.642   1.496  12.659 -0.6328 -0.5150  0.6431
 7038TIP3    H142529   0.658   1.441  12.583 -2.4486  0.1798 -0.2999
 7038TIP3    H242530   0.730   1.514  12.695  0.3770 -0.1086 -1.8278
 7039TIP3   OH242531   5.455   4.334  14.184  0.5089  0.1349 -0.0999
 7039TIP3    H142532   5.386   4.308  14.123  1.2319 -0.9764 -0.4821
 7039TIP3    H242533   5.487   4.417  14.150 -2.5562  2.2333  1.7280
 7040TIP3   OH242534   1.909   3.554  16.078  0.3666  0.4800  0.1844
 7040TIP3    H142535   2.004   3.546  16.090  0.7582  3.5450 -0.0201
 7040TIP3    H242536   1.898   3.575  15.985 -0.5729 -0.2476  0.1156
 7041TIP3   OH242537   6.751   4.764  14.370 -0.2827 -0.5056  0.0655
 7041TIP3    H142538   6.692   4.814  14.427 -1.2655 -2.8038  1.2285
 7041TIP3    H242539   6.837   4.773  14.411 -0.0605  1.5922 -0.7486
 7042TIP3   OH242540   5.752   0.659  14.713  0.3854 -0.8507 -0.3756
 7042TIP3    H142541   5.745   0.568  14.741  1.5569 -0.7444  0.3462
 7042TIP3    H242542   5.746   0.656  14.618 -1.9124 -1.4140 -0.2599
 7043TIP3   OH242543   1.175   6.012  11.572 -0.1464  0.2874 -0.0055
 7043TIP3    H142544   1.102   5.951  11.581  0.0290 -0.1529 -1.3468
 7043TIP3    H242545   1.179   6.058  11.656  0.4940 -2.3918  1.5612
 7044TIP3   OH242546   2.638   1.742  15.213 -0.1612 -0.3716 -0.3463
 7044TIP3    H142547   2.717   1.711  15.257  0.4495 -0.5525 -1.5384
 7044TIP3    H242548   2.567   1.693  15.255  0.5346 -1.5158 -0.4549
 7045TIP3   OH242549   1.530   1.969  14.901  0.2266  0.1004  0.3115
 7045TIP3    H142550   1.546   1.892  14.955 -0.1593 -0.8957 -0.9490
 7045TIP3    H242551   1.451   2.008  14.939 -0.3092 -0.8442  0.2050
 7046TIP3   OH242552   2.196   1.830  12.124  0.1384 -0.5554 -0.2081
 7046TIP3    H142553   2.289   1.809  12.136  0.4433  0.9588  0.3832
 7046TIP3    H242554   2.196   1.917  12.084 -0.9431  1.1591  3.1022
 7047TIP3   OH242555   3.311   6.605   3.172 -0.6165 -0.1500  0.3417
 7047TIP3    H142556   3.361   6.596   3.253  0.7254  3.3252  0.0364
 7047TIP3    H242557   3.376   6.608   3.103 -1.7245 -2.5218 -0.9364
 7048TIP3   OH242558   4.298   5.087  12.594 -0.5342 -0.5634 -0.4018
 7048TIP3    H142559   4.311   5.147  12.521 -1.1129  0.3786  0.2620
 7048TIP3    H242560   4.321   5.137  12.672 -0.9237 -1.2362  0.1575
 7049TIP3   OH242561   0.511   6.369  15.595 -0.0061 -0.2971  0.0517
 7049TIP3    H142562   0.540   6.455  15.625 -0.8269 -0.1347  0.4146
 7049TIP3    H242563   0.416   6.374  15.599 -0.1390 -0.4277 -2.1786
 7050TIP3   OH242564   5.420   5.387  15.754 -0.5368 -0.2017 -0.6206
 7050TIP3    H142565   5.326   5.397  15.771 -0.7724 -1.8529 -0.7603
 7050TIP3    H242566   5.437   5.294  15.769  0.8952 -0.1135 -1.5336
 7051TIP3   OH242567   1.620   3.307  12.509  0.1789 -0.1439  0.1176
 7051TIP3    H142568   1.641   3.288  12.600 -0.2708 -0.1500  0.2203
 7051TIP3    H242569   1.644   3.227  12.462  0.3196 -0.1756  0.2406
 7052TIP3   OH242570   0.801   0.741   1.457 -0.4661  0.0393  0.3390
 7052TIP3    H142571   0.788   0.828   1.419 -0.5619 -0.1040  0.0413
 7052TIP3    H242572   0.748   0.741   1.537  1.1009  0.9522  1.4251
 7053TIP3   OH242573   2.572   6.745  11.041 -0.0110  0.1436  0.4749
 7053TIP3    H142574   2.659   6.766  11.074 -0.7884  1.4728  1.8149
 7053TIP3    H242575   2.557   6.807  10.969  0.8487 -1.3509 -1.0653
 7054TIP3   OH242576   3.593   6.435  10.803 -0.9676 -0.5973 -0.0738
 7054TIP3    H142577   3.680   6.466  10.778 -0.4713 -0.3094  1.7980
 7054TIP3    H242578   3.605   6.343  10.825 -1.0602 -0.4991  0.4182
 7055TIP3   OH242579   1.554   6.187  11.689 -0.5589 -0.0036 -0.5427
 7055TIP3    H142580   1.510   6.149  11.613 -0.2816  0.4959 -0.9624
 7055TIP3    H242581   1.491   6.249  11.725 -1.3173 -1.3773  0.6067
 7056TIP3   OH242582   6.083   6.172   4.527  0.4843 -0.0581 -0.4067
 7056TIP3    H142583   6.010   6.234   4.535  1.2104  0.7452  0.1763
 7056TIP3    H242584   6.051   6.093   4.570 -0.1967  0.1445 -0.5243
 7057TIP3   OH242585   4.495   2.424   0.555  0.4879 -0.5445 -0.1999
 7057TIP3    H142586   4.465   2.514   0.540  0.1380 -0.6531 -0.1513
 7057TIP3    H242587   4.562   2.410   0.488 -2.1199 -1.5730 -2.7815
 7058TIP3   OH242588   1.886   5.591   2.093  0.1440  0.0320  0.3452
 7058TIP3    H142589   1.911   5.501   2.113 -1.8304 -1.2712 -2.3758
 7058TIP3    H242590   1.936   5.612   2.014  2.3831  2.3280  2.1951
 7059TIP3   OH242591   2.971   2.814   4.046 -0.2514 -0.2454  0.3048
 7059TIP3    H142592   2.942   2.722   4.051  0.3207 -0.3772  1.9453
 7059TIP3    H242593   3.066   2.809   4.055 -0.2130  0.5093  0.3333
 7060TIP3   OH242594   0.883   3.975  12.120  0.0486  0.0213  0.2579
 7060TIP3    H142595   0.953   3.912  12.102  1.0286  0.4614  2.2552
 7060TIP3    H242596   0.803   3.925  12.107  0.7244 -0.7904 -1.0704
 7061TIP3   OH242597   2.858   4.119  15.217  0.7612  0.3265  0.3845
 7061TIP3    H142598   2.848   4.043  15.160  0.3762 -0.3232  1.2980
 7061TIP3    H242599   2.904   4.086  15.294  1.1852  1.1705  0.5021
 7062TIP3   OH242600   5.405   5.199   0.690  0.2940  0.1309 -0.2354
 7062TIP3    H142601   5.380   5.118   0.734  0.6360  0.7242  1.1156
 7062TIP3    H242602   5.496   5.185   0.664  0.9577  0.6992  1.6198
 7063TIP3   OH242603   0.741   5.688   6.001  0.1900 -0.6416 -0.1868
 7063TIP3    H142604   0.688   5.637   6.061  0.0401 -1.0804 -0.6835
 7063TIP3    H242605   0.823   5.640   5.995  0.5498 -0.1092  0.3703
 7064TIP3   OH242606   6.276   2.330  15.047 -0.2835 -0.3683 -0.3251
 7064TIP3    H142607   6.230   2.246  15.040  0.5371 -0.7853 -0.8234
 7064TIP3    H242608   6.247   2.366  15.130 -1.1198 -0.8602 -0.3893
 7065TIP3   OH242609   1.398   6.746   0.984 -0.2674  0.1955 -0.6149
 7065TIP3    H142610   1.400   6.696   1.065 -2.1590  2.2239  0.8156
 7065TIP3    H242611   1.339   6.697   0.926  0.7353 -1.0258 -0.6463
 7066TIP3   OH242612   0.693   0.246   3.189 -0.5452  0.3121 -0.1822
 7066TIP3    H142613   0.708   0.216   3.100  1.3780  3.9295 -1.2815
 7066TIP3    H242614   0.773   0.224   3.236 -0.4677  0.7219 -0.1120
 7067TIP3   OH242615   4.047   5.625  15.709  0.8212 -0.5089 -0.3512
 7067TIP3    H142616   4.001   5.544  15.730  1.1304 -0.6785 -0.3173
 7067TIP3    H242617   4.064   5.666  15.793 -1.6195  0.8947 -0.4622
 7068TIP3   OH242618   6.502   4.450   1.985  0.3112 -0.0115 -0.5202
 7068TIP3    H142619   6.554   4.429   2.062  1.7576  1.9530 -0.9057
 7068TIP3    H242620   6.546   4.405   1.913 -0.3645 -0.8813 -0.4131
 7069TIP3   OH242621   2.784   0.614  15.031  0.0873 -0.5952  0.0769
 7069TIP3    H142622   2.725   0.543  15.008 -1.9819  0.6552  1.2442
 7069TIP3    H242623   2.771   0.627  15.125  0.1169  1.5187 -0.1563
 7070TIP3   OH242624   0.287   1.186  10.842 -0.0628  0.2196  0.1472
 7070TIP3    H142625   0.270   1.216  10.752  3.1572 -0.3027 -0.7566
 7070TIP3    H242626   0.255   1.096  10.844  0.0965  0.1408 -0.5827
 7071TIP3   OH242627   2.196   3.804  11.568  0.5393 -0.0150 -0.4892
 7071TIP3    H142628   2.106   3.837  11.573  0.6268  0.1283  0.1502
 7071TIP3    H242629   2.250   3.877  11.597  0.8428 -0.2102 -0.5600
 7072TIP3   OH242630   4.213   5.906  11.311  0.1172  0.5756 -0.1871
 7072TIP3    H142631   4.245   5.949  11.232 -1.0981 -0.5787 -1.3520
 7072TIP3    H242632   4.137   5.958  11.337  0.6159  1.0552  0.3453
 7073TIP3   OH242633   1.941   3.050   5.366 -0.5194  0.3803  0.6341
 7073TIP3    H142634   1.858   3.091   5.342 -0.9869 -1.1976 -0.6060
 7073TIP3    H242635   2.007   3.116   5.345 -1.3576  1.1876  0.4459
 7074TIP3   OH242636   3.701   5.795  11.258  0.7993 -0.1325 -0.3076
 7074TIP3    H142637   3.683   5.711  11.302 -0.2553  0.9979  1.5388
 7074TIP3    H242638   3.719   5.770  11.168 -1.5718 -2.2247 -0.3533
 7075TIP3   OH242639   0.192   3.656   1.732  0.0084  0.8678  0.0017
 7075TIP3    H142640   0.219   3.748   1.724  0.5422  0.8528  1.2853
 7075TIP3    H242641   0.128   3.656   1.803  0.6397  0.1498  0.5943
 7076TIP3   OH242642   3.178   3.561   2.753  0.0944  0.1052  0.2353
 7076TIP3    H142643   3.159   3.540   2.661 -1.7510  0.7547  0.4314
 7076TIP3    H242644   3.119   3.505   2.803  0.6076  0.2474  1.0133
 7077TIP3   OH242645   4.606   4.673   2.548 -0.3339 -0.2722  0.1562
 7077TIP3    H142646   4.693   4.666   2.587 -0.1276  0.1245 -0.2273
 7077TIP3    H242647   4.607   4.612   2.475 -0.3916 -0.2958  0.1745
 7078TIP3   OH242648   6.714   0.849  12.688 -0.0089  0.2794 -0.6870
 7078TIP3    H142649   6.758   0.922  12.732 -0.3745 -0.1418  0.3981
 7078TIP3    H242650   6.663   0.807  12.756 -0.8016 -0.2400 -1.5814
 7079TIP3   OH242651   2.323   0.975  11.463  0.2469 -0.0447  0.4262
 7079TIP3    H142652   2.316   0.953  11.370 -1.9829 -0.3991  0.6313
 7079TIP3    H242653   2.360   1.063  11.464 -0.8809  0.4714 -0.8658
 7080TIP3   OH242654   5.088   6.735   1.296 -0.2364 -0.3456  0.4496
 7080TIP3    H142655   5.168   6.756   1.344 -0.8081  1.2448  0.7685
 7080TIP3    H242656   5.089   6.793   1.220 -1.4250  0.2499  0.8587
 7081TIP3   OH242657   0.336   4.631   4.534 -0.3384  0.3121  0.4523
 7081TIP3    H142658   0.292   4.706   4.495 -0.8530  0.1531  0.7232
 7081TIP3    H242659   0.267   4.583   4.580 -0.4402 -1.5235 -1.4756
 7082TIP3   OH242660   1.652   2.380   1.300  0.1141  0.4290 -0.1400
 7082TIP3    H142661   1.735   2.421   1.323 -2.0378  5.8685 -0.5448
 7082TIP3    H242662   1.659   2.360   1.207  1.4901 -1.0247  0.2348
 7083TIP3   OH242663   0.485   2.481   0.918  0.4003  0.3986 -0.3236
 7083TIP3    H142664   0.399   2.520   0.901 -0.1142 -0.8915 -0.8575
 7083TIP3    H242665   0.490   2.408   0.857  0.1148 -2.1071  2.4051
 7084TIP3   OH242666   0.743   2.570   1.636 -0.1294  0.4453 -0.3922
 7084TIP3    H142667   0.730   2.626   1.713  2.2385  0.4730  0.0673
 7084TIP3    H242668   0.699   2.615   1.565 -0.4321  1.5875  0.4959
 7085TIP3   OH242669   1.333   3.588  15.637 -0.0174 -0.0973  1.1916
 7085TIP3    H142670   1.346   3.682  15.644  4.0798 -0.2944 -0.8606
 7085TIP3    H242671   1.311   3.573  15.545 -2.0737 -1.1387  1.7828
 7086TIP3   OH242672   3.547   3.730   4.276  0.3975  0.6110  0.2246
 7086TIP3    H142673   3.572   3.659   4.335  1.1912  0.4585 -0.2801
 7086TIP3    H242674   3.495   3.687   4.208 -1.7265  0.9966  1.5157
 7087TIP3   OH242675   1.108   5.207  16.512 -0.0997 -0.2590 -0.0548
 7087TIP3    H142676   1.067   5.284  16.551  2.2954  1.4328 -0.5995
 7087TIP3    H242677   1.077   5.133  16.565  0.4837  1.5416  3.0315
 7088TIP3   OH242678   6.756   4.521   0.430 -0.0665  0.4180 -0.4732
 7088TIP3    H142679   6.676   4.473   0.412  0.4618 -0.6511 -0.0307
 7088TIP3    H242680   6.815   4.457   0.468  0.7998  1.3272 -0.2351
 7089TIP3   OH242681   4.278   4.677  11.320 -0.2083  0.4439  0.1328
 7089TIP3    H142682   4.265   4.625  11.399  0.5419 -0.2409 -0.1735
 7089TIP3    H242683   4.256   4.766  11.346 -0.9542  0.0730  0.8281
 7090TIP3   OH242684   5.207   2.947   2.951  0.4095 -0.6168  0.2840
 7090TIP3    H142685   5.263   2.917   3.022 -1.9984 -1.1540  2.0663
 7090TIP3    H242686   5.167   2.867   2.917 -1.0972 -0.0521  0.6815
 7091TIP3   OH242687   3.792   4.770   0.059 -0.3390 -0.2741  0.5407
 7091TIP3    H142688   3.838   4.808  -0.015 -0.5224  0.4373  0.7911
 7091TIP3    H242689   3.831   4.683   0.068  0.0618 -0.1657 -0.0455
 7092TIP3   OH242690   2.145   4.626  11.488  0.1175  0.2338  0.0680
 7092TIP3    H142691   2.134   4.681  11.411  1.7496  1.3614  0.5967
 7092TIP3    H242692   2.192   4.549  11.456  2.0741  1.3332  0.1064
 7093TIP3   OH242693   0.837   3.488   0.710 -0.1596  0.4838  0.5652
 7093TIP3    H142694   0.777   3.562   0.720  0.2222  0.8861 -0.0696
 7093TIP3    H242695   0.802   3.438   0.636 -0.4781 -0.0336  1.0611
 7094TIP3   OH242696   1.950   0.816   3.269 -0.4557  0.1266  0.4189
 7094TIP3    H142697   2.025   0.810   3.327 -0.9183 -3.6687  0.9190
 7094TIP3    H242698   1.882   0.858   3.320  0.7398  1.9520  0.5798
 7095TIP3   OH242699   1.711   0.602  12.876 -0.4681 -0.2960 -0.5481
 7095TIP3    H142700   1.775   0.617  12.946 -1.8311 -0.1869  0.7305
 7095TIP3    H242701   1.755   0.631  12.796  0.7187  0.7219  0.4321
 7096TIP3   OH242702   3.999   5.403   4.958 -0.1565 -0.3387  0.3076
 7096TIP3    H142703   4.077   5.458   4.944 -1.2934  1.1416 -0.5863
 7096TIP3    H242704   4.001   5.340   4.886  0.1319 -0.1895  0.1817
 7097TIP3   OH242705   5.547   1.422  11.793 -0.1257 -0.5954  0.2653
 7097TIP3    H142706   5.514   1.332  11.789 -0.0481 -0.8232  2.9994
 7097TIP3    H242707   5.619   1.424  11.730 -0.3566 -2.3359 -0.1114
 7098TIP3   OH242708   0.249   4.911  10.885  0.0968  0.1384  0.5513
 7098TIP3    H142709   0.326   4.954  10.922  1.0683 -2.3775  1.7025
 7098TIP3    H242710   0.257   4.820  10.913 -2.7649 -0.4402 -0.2167
 7099TIP3   OH242711   3.373   0.371   2.992  0.3746 -0.3956  0.0113
 7099TIP3    H142712   3.443   0.348   3.054 -0.3556  1.3125  1.5702
 7099TIP3    H242713   3.310   0.299   3.000  1.5023 -1.5037 -0.7553
 7100TIP3   OH242714   1.661   0.945  14.971 -0.2753  0.3574  0.2952
 7100TIP3    H142715   1.677   0.857  15.004 -0.2273  0.0346 -0.5441
 7100TIP3    H242716   1.741   0.993  14.992  0.8450 -0.5474 -1.5860
 7101TIP3   OH242717   2.999   4.375  12.281  0.2610  0.1740 -0.0706
 7101TIP3    H142718   3.070   4.316  12.306  0.7389  0.9469  0.4586
 7101TIP3    H242719   2.952   4.393  12.363  1.4070  2.1701  0.2179
 7102TIP3   OH242720   1.625   6.760   5.883 -0.4447 -0.0867  0.4777
 7102TIP3    H142721   1.607   6.804   5.799 -1.3856 -0.7483  0.3134
 7102TIP3    H242722   1.682   6.686   5.859 -0.1995  0.0904  0.5138
 7103TIP3   OH242723   0.451   2.765   4.588 -0.0971  0.3169 -0.2673
 7103TIP3    H142724   0.457   2.794   4.679 -0.4399  1.6504 -0.6404
 7103TIP3    H242725   0.528   2.710   4.575 -0.6427 -0.8375  1.1305
 7104TIP3   OH242726   6.466   0.791  11.572  0.5032 -0.7320  0.5012
 7104TIP3    H142727   6.507   0.868  11.612  0.9555 -2.1751  3.0459
 7104TIP3    H242728   6.373   0.814  11.566  0.9303  0.8409 -1.0246
 7105TIP3   OH242729   3.330   2.286  13.085 -1.1226 -0.0415 -0.2307
 7105TIP3    H142730   3.376   2.353  13.034 -1.9962  0.3290 -0.5577
 7105TIP3    H242731   3.345   2.205  13.036 -0.5472  0.0141 -0.1520
 7106TIP3   OH242732   0.365   1.543   0.570  0.4366  0.1802  0.5937
 7106TIP3    H142733   0.285   1.554   0.620  0.5273 -1.1009  1.0462
 7106TIP3    H242734   0.434   1.577   0.627  0.1726  1.9029 -0.0599
 7107TIP3   OH242735   1.624   3.994   5.671 -0.7000 -0.5900  0.1162
 7107TIP3    H142736   1.675   3.913   5.668 -0.4151 -0.4186  0.2463
 7107TIP3    H242737   1.687   4.063   5.653 -0.6486 -0.2813  1.3445
 7108TIP3   OH242738   1.367   0.337   2.177 -0.7131  0.6051 -0.0619
 7108TIP3    H142739   1.344   0.352   2.268 -0.6877  0.9678 -0.1156
 7108TIP3    H242740   1.354   0.243   2.164 -0.1883  0.4586  0.4617
 7109TIP3   OH242741   2.873   1.791   6.379  0.5278  0.1398  0.3211
 7109TIP3    H142742   2.834   1.723   6.434  0.9749  1.0199  1.7692
 7109TIP3    H242743   2.831   1.779   6.294  1.1011 -2.3753  0.3274
 7110TIP3   OH242744   2.264   0.748  16.946  0.7636  0.5234  0.5504
 7110TIP3    H142745   2.214   0.692  16.886  1.8146  2.5829 -2.4891
 7110TIP3    H242746   2.349   0.706  16.953  1.0405  0.9057 -0.4409
 7111TIP3   OH242747   2.616   2.785   2.043  0.6649 -0.2451  0.2767
 7111TIP3    H142748   2.678   2.739   2.100  2.5723  0.5485 -1.0591
 7111TIP3    H242749   2.632   2.878   2.059  0.9455 -0.0106 -1.2103
 7112TIP3   OH242750   5.797   1.292   3.775 -0.0290 -0.3029 -0.0853
 7112TIP3    H142751   5.729   1.224   3.772  1.2226 -1.6922  1.4470
 7112TIP3    H242752   5.775   1.350   3.702 -2.9700 -0.5719  0.4509
 7113TIP3   OH242753   5.220   4.532   6.529  0.3290  0.2467  0.0212
 7113TIP3    H142754   5.217   4.586   6.450  0.6257  1.3149  0.7229
 7113TIP3    H242755   5.135   4.488   6.531  0.0082  0.8244 -0.4677
 7114TIP3   OH242756   5.112   5.770  12.156  0.5723  0.0989 -0.2217
 7114TIP3    H142757   5.193   5.777  12.207  0.9027  1.3893 -0.8697
 7114TIP3    H242758   5.109   5.852  12.106 -0.4545 -0.5191 -1.2090
 7115TIP3   OH242759   0.915   4.742   2.334  0.3766  0.0356 -0.8892
 7115TIP3    H142760   0.948   4.662   2.374 -0.3133 -0.3454 -1.0681
 7115TIP3    H242761   0.900   4.802   2.407 -1.4406 -0.8561 -0.4686
 7116TIP3   OH242762   2.815   3.058   3.561  0.3826  0.1939  0.7792
 7116TIP3    H142763   2.903   3.096   3.567  1.3529 -1.5090 -1.2004
 7116TIP3    H242764   2.827   2.965   3.579 -1.0610 -0.0331  0.7267
 7117TIP3   OH242765   3.300   0.808  12.372  0.3696 -0.5886 -0.0969
 7117TIP3    H142766   3.293   0.875  12.303  1.9473 -0.5376 -0.2434
 7117TIP3    H242767   3.281   0.855  12.453 -0.3734 -0.3887 -0.3817
 7118TIP3   OH242768   6.465   4.353  14.437 -0.0021 -0.3835  0.3645
 7118TIP3    H142769   6.510   4.411  14.499 -0.7788 -1.6655  2.2323
 7118TIP3    H242770   6.503   4.375  14.352  0.6685  1.9017  1.1795
 7119TIP3   OH242771   4.030   1.765   4.317 -0.2621  0.1574  0.3432
 7119TIP3    H142772   4.032   1.746   4.411  1.0236 -2.1205 -0.0692
 7119TIP3    H242773   3.937   1.766   4.294 -0.6119  1.2341  1.6828
 7120TIP3   OH242774   2.586   6.210  14.388 -0.1891  0.1382  0.0431
 7120TIP3    H142775   2.526   6.275  14.422 -0.1592  0.1218  0.1263
 7120TIP3    H242776   2.609   6.156  14.463 -1.4805 -0.9843 -0.3276
 7121TIP3   OH242777   2.339   4.344   5.710 -0.3171 -0.5901  0.3816
 7121TIP3    H142778   2.405   4.289   5.752  0.1978 -1.8058 -1.9066
 7121TIP3    H242779   2.389   4.417   5.672  0.0908 -2.3053 -2.7029
 7122TIP3   OH242780   3.511   4.966  15.046 -0.2139 -0.0896 -0.4788
 7122TIP3    H142781   3.480   4.925  15.126 -0.3652  0.6001 -0.1754
 7122TIP3    H242782   3.454   4.930  14.977  0.0510 -0.8368 -0.3150
 7123TIP3   OH242783   0.102   1.362  12.205  0.5425  0.0971 -0.2043
 7123TIP3    H142784   0.007   1.353  12.216  0.6879 -0.3153  0.8438
 7123TIP3    H242785   0.134   1.272  12.206  1.0787  0.2861  0.8880
 7124TIP3   OH242786   4.719   2.843  14.571 -0.3068 -0.0326 -0.0135
 7124TIP3    H142787   4.713   2.814  14.662 -1.7393 -0.7219 -0.3020
 7124TIP3    H242788   4.778   2.780  14.529  0.7312  0.5577  0.5164
 7125TIP3   OH242789   2.890   6.437  13.155 -0.0568  0.0930 -0.5212
 7125TIP3    H142790   2.922   6.443  13.065  0.9050  0.1727 -0.1858
 7125TIP3    H242791   2.857   6.525  13.174  1.4629  0.6198 -0.1854
 7126TIP3   OH242792   6.546   3.582  16.704  0.1456 -0.6573 -0.7918
 7126TIP3    H142793   6.535   3.512  16.768  1.6253  0.6871  1.0460
 7126TIP3    H242794   6.594   3.650  16.751  0.7373  0.6729 -3.1657
 7127TIP3   OH242795   3.039   6.591   3.574  0.2473  0.0856 -0.3771
 7127TIP3    H142796   3.130   6.579   3.601 -0.1884 -0.1800  1.0712
 7127TIP3    H242797   2.989   6.584   3.656 -1.1454 -0.6014 -1.2502
 7128TIP3   OH242798   6.471   2.451  14.881 -0.0455  0.2058 -0.4891
 7128TIP3    H142799   6.425   2.399  14.946 -1.8819  2.0815 -0.1625
 7128TIP3    H242800   6.418   2.441  14.801 -0.6253  1.7232 -0.3333
 7129TIP3   OH242801   4.446   4.565  16.481 -0.7950  0.1295 -0.2121
 7129TIP3    H142802   4.460   4.639  16.423 -3.9621  0.3395 -0.8691
 7129TIP3    H242803   4.441   4.603  16.569  4.6115 -0.2504  0.6254
 7130TIP3   OH242804   4.051   5.684  14.769  0.7361 -0.2406  0.4005
 7130TIP3    H142805   4.135   5.721  14.796  1.2385 -1.1609  0.1512
 7130TIP3    H242806   4.026   5.628  14.843  1.4230 -1.6605 -0.4018
 7131TIP3   OH242807   3.951   0.475  12.483  0.4329 -0.3458  0.2515
 7131TIP3    H142808   4.024   0.519  12.438  1.8782 -2.6635  0.1515
 7131TIP3    H242809   3.978   0.473  12.575  0.4070 -1.0694  0.2421
 7132TIP3   OH242810   4.995   5.098  13.931  0.3050 -0.1931 -0.2312
 7132TIP3    H142811   5.067   5.058  13.882  0.3783  0.0472 -0.3198
 7132TIP3    H242812   4.925   5.109  13.866  0.2503 -0.2610 -0.1848
 7133TIP3   OH242813   2.451   5.133  13.769  0.2233 -0.2651  0.4108
 7133TIP3    H142814   2.386   5.181  13.717  1.9882  0.6743 -1.0536
 7133TIP3    H242815   2.531   5.186  13.761  1.6637 -2.3115  0.6055
 7134TIP3   OH242816   4.031   6.338  13.441 -0.6010  0.6703 -0.3046
 7134TIP3    H142817   4.017   6.317  13.534  0.0144  0.2507 -0.2980
 7134TIP3    H242818   4.095   6.409  13.442 -2.3139  2.2815 -0.3432
 7135TIP3   OH242819   1.635   5.231   1.617  0.2080  0.1160 -0.5161
 7135TIP3    H142820   1.587   5.196   1.693 -0.2031 -0.7876 -1.1818
 7135TIP3    H242821   1.621   5.326   1.622 -1.5604 -0.1112 -0.6177
 7136TIP3   OH242822   2.366   0.445  16.854 -0.0112  0.3841 -0.1991
 7136TIP3    H142823   2.277   0.478  16.863  0.5149  1.6271  0.7512
 7136TIP3    H242824   2.387   0.456  16.762 -0.3794  1.3342 -0.1764
 7137TIP3   OH242825   6.305   6.304   3.255  0.1704 -0.1490 -0.4177
 7137TIP3    H142826   6.377   6.360   3.225 -0.6844  0.8529 -0.6542
 7137TIP3    H242827   6.297   6.322   3.348 -0.8727  1.0702 -0.7079
 7138TIP3   OH242828   5.999   6.568   1.313 -0.1876  0.7134 -0.1031
 7138TIP3    H142829   6.074   6.577   1.372 -0.2191  0.8035 -0.0756
 7138TIP3    H242830   6.008   6.642   1.253 -0.3845  0.8600  0.0481
 7139TIP3   OH242831   4.530   0.741  14.831 -0.0785  0.2985 -0.3644
 7139TIP3    H142832   4.452   0.696  14.796  0.4709 -0.4920 -0.6085
 7139TIP3    H242833   4.520   0.735  14.926 -1.9097  3.0285 -0.2622
 7140TIP3   OH242834   5.841   3.386  11.081  0.3165  0.0822 -0.3346
 7140TIP3    H142835   5.820   3.470  11.120  1.9587 -0.0392  0.9397
 7140TIP3    H242836   5.761   3.359  11.036 -1.1410  1.0167  1.5811
 7141TIP3   OH242837   5.243   3.375  14.172  0.9410  0.1119  0.6081
 7141TIP3    H142838   5.261   3.448  14.230 -0.1468 -0.4762  1.7599
 7141TIP3    H242839   5.189   3.412  14.102  3.7160  1.1914 -1.0842
 7142TIP3   OH242840   1.394   5.535   0.225  0.0356  0.1496 -0.1815
 7142TIP3    H142841   1.298   5.542   0.231 -0.0112  0.0813 -0.8020
 7142TIP3    H242842   1.420   5.500   0.310 -0.4100  0.9389  0.2998
 7143TIP3   OH242843   4.035   6.730  16.631 -0.7324  0.7768 -0.6896
 7143TIP3    H142844   4.043   6.824  16.616  1.5123  1.0105  1.3313
 7143TIP3    H242845   4.116   6.693  16.595 -1.0768 -0.2198 -0.4638
 7144TIP3   OH242846   3.242   4.268  11.333 -0.0425 -0.4329 -0.5340
 7144TIP3    H142847   3.327   4.259  11.290  0.8512 -0.6093  1.1879
 7144TIP3    H242848   3.250   4.217  11.413 -1.5233  0.1715  0.0363
 7145TIP3   OH242849   2.621   1.891   5.550  0.4824 -0.0162  0.0728
 7145TIP3    H142850   2.661   1.808   5.579  0.4175 -0.6461 -1.5218
 7145TIP3    H242851   2.551   1.864   5.491 -0.2526  1.1773  0.3620
 7146TIP3   OH242852   2.817   4.740   4.626  0.1354  0.0275 -0.2468
 7146TIP3    H142853   2.783   4.767   4.541 -0.4772  2.3679  0.6642
 7146TIP3    H242854   2.869   4.815   4.655  0.9008 -1.0070  1.1536
 7147TIP3   OH242855   5.379   5.492   5.271 -0.0931 -0.3661 -0.6642
 7147TIP3    H142856   5.377   5.587   5.261  0.4211 -0.2887 -0.0843
 7147TIP3    H242857   5.295   5.471   5.313 -0.6933 -0.3024 -1.7958
 7148TIP3   OH242858   6.072   5.742   6.146 -0.2985 -0.5803  0.0417
 7148TIP3    H142859   6.050   5.782   6.230 -0.1712 -1.1001  0.3290
 7148TIP3    H242860   5.998   5.685   6.126 -0.5804 -0.0458 -0.4748
 7149TIP3   OH242861   0.249   4.935   4.446  0.1891  0.7790  0.3260
 7149TIP3    H142862   0.290   4.983   4.374  0.5282  1.5041  0.9883
 7149TIP3    H242863   0.286   4.974   4.525 -0.8422  0.6034  0.9144
 7150TIP3   OH242864   6.421   1.705   5.228 -0.6933  0.2728  0.0913
 7150TIP3    H142865   6.369   1.730   5.151 -1.8525  0.7969  1.0038
 7150TIP3    H242866   6.511   1.726   5.204 -0.9762  0.0650 -1.2596
 7151TIP3   OH242867   5.899   2.920   1.284 -0.7122 -0.0827 -0.1623
 7151TIP3    H142868   5.891   2.835   1.240 -1.4368  0.0015 -0.1977
 7151TIP3    H242869   5.967   2.906   1.350 -1.3628 -0.9155  0.3590
 7152TIP3   OH242870   6.337   2.729  11.451 -0.3399  0.2751  0.2200
 7152TIP3    H142871   6.395   2.801  11.477  0.2901 -0.2216  0.2229
 7152TIP3    H242872   6.249   2.763  11.465 -0.0427  0.7957  0.9010
 7153TIP3   OH242873   0.366   3.515  12.647  0.0745  0.3441  0.3154
 7153TIP3    H142874   0.423   3.582  12.685  0.3060  0.1568  0.2979
 7153TIP3    H242875   0.422   3.438  12.638 -0.5255 -0.2846  1.6114
 7154TIP3   OH242876   1.350   3.552  12.774 -0.6891 -0.2338  0.6366
 7154TIP3    H142877   1.304   3.468  12.770  1.4448 -1.5807  2.0692
 7154TIP3    H242878   1.353   3.572  12.868 -1.8217  1.8770  0.2603
 7155TIP3   OH242879   5.883   2.174   3.372  0.8172  0.2028 -0.8214
 7155TIP3    H142880   5.822   2.239   3.335 -0.7401 -0.8286 -0.1586
 7155TIP3    H242881   5.953   2.168   3.308  0.0223  1.1459 -1.8197
 7156TIP3   OH242882   6.477   4.021   2.726 -0.5619  0.2123 -0.0955
 7156TIP3    H142883   6.504   4.042   2.636 -1.3254 -0.8200 -0.5781
 7156TIP3    H242884   6.386   4.052   2.731 -0.3690  0.7137  0.4952
 7157TIP3   OH242885   2.616   5.324  15.726 -0.8297  0.4422 -0.2608
 7157TIP3    H142886   2.673   5.272  15.669 -2.1519 -1.0050 -0.3212
 7157TIP3    H242887   2.619   5.412  15.689  1.2493  0.3829 -0.3243
 7158TIP3   OH242888   4.291   2.866   6.089 -0.5920  0.3441 -0.3678
 7158TIP3    H142889   4.211   2.818   6.064  0.2320 -0.6780 -1.1832
 7158TIP3    H242890   4.312   2.918   6.012  0.4854 -0.7616 -0.8608
 7159TIP3   OH242891   4.313   0.927   0.252 -0.3571  0.5811  0.1312
 7159TIP3    H142892   4.291   0.836   0.233 -0.5408  0.5484  0.4980
 7159TIP3    H242893   4.312   0.970   0.166  1.4843 -0.1223 -0.2923
 7160TIP3   OH242894   3.296   1.987   5.273  0.8778 -0.2031  0.4554
 7160TIP3    H142895   3.358   1.928   5.229  2.1051  1.3176  0.0713
 7160TIP3    H242896   3.337   2.006   5.357 -1.4677 -3.1144  2.4812
 7161TIP3   OH242897   5.247   4.576  13.428  0.4397  0.1989 -0.1041
 7161TIP3    H142898   5.170   4.520  13.424 -0.0017  0.1928  4.1136
 7161TIP3    H242899   5.321   4.516  13.417 -0.0486 -0.1195 -2.0015
 7162TIP3   OH242900   4.275   4.280  11.392  0.1106 -0.0647 -0.4508
 7162TIP3    H142901   4.237   4.335  11.461 -1.3917 -0.5454 -0.8549
 7162TIP3    H242902   4.267   4.333  11.313  1.9602  0.5418 -0.2882
 7163TIP3   OH242903   0.951   2.189  16.685 -0.2351 -0.0084 -0.1519
 7163TIP3    H142904   0.893   2.258  16.653 -0.5705 -0.4144 -0.4361
 7163TIP3    H242905   0.892   2.119  16.712  0.0667  0.1494  0.9349
 7164TIP3   OH242906   5.647   1.358   3.000  0.0193  0.0031 -0.2525
 7164TIP3    H142907   5.623   1.371   2.908  1.1543  1.8049 -0.3428
 7164TIP3    H242908   5.722   1.300   2.997  0.5036  0.6248 -0.5456
 7165TIP3   OH242909   3.377   5.055  11.648  0.5049 -0.3471 -0.0925
 7165TIP3    H142910   3.318   5.115  11.694  1.1338 -1.0797  1.7663
 7165TIP3    H242911   3.334   4.970  11.654  0.3351 -0.3711 -1.3949
 7166TIP3   OH242912   6.470   5.673  16.251  0.1515 -0.2607 -0.2802
 7166TIP3    H142913   6.540   5.738  16.243 -1.7589  1.9977  0.3035
 7166TIP3    H242914   6.390   5.725  16.260 -1.6707 -2.7231 -1.2231
 7167TIP3   OH242915   5.214   1.084   5.074  0.4797  0.4085 -0.4230
 7167TIP3    H142916   5.127   1.087   5.115  0.2455 -1.2396 -0.7312
 7167TIP3    H242917   5.275   1.072   5.147  0.3354  0.3852 -0.3056
 7168TIP3   OH242918   2.426   6.751  15.398 -0.3506  0.3618 -0.1070
 7168TIP3    H142919   2.348   6.708  15.433 -0.8893  0.8369 -0.6840
 7168TIP3    H242920   2.473   6.783  15.475  0.2383 -1.4936  0.3696
 7169TIP3   OH242921   4.517   2.482  14.422 -0.1940  0.4680 -0.3986
 7169TIP3    H142922   4.585   2.460  14.486 -0.3063  0.7654 -0.1688
 7169TIP3    H242923   4.436   2.487  14.474 -0.2285  1.0608 -0.4965
 7170TIP3   OH242924   1.816   6.320   4.115  0.0504  0.6870  0.1312
 7170TIP3    H142925   1.734   6.287   4.152  0.7871 -2.5491 -0.7410
 7170TIP3    H242926   1.879   6.250   4.132  1.3677  0.7223 -3.6675
 7171TIP3   OH242927   0.923   6.214  15.366  0.1133  0.4004 -0.3601
 7171TIP3    H142928   0.898   6.122  15.364  0.6774  0.2291  0.0311
 7171TIP3    H242929   0.847   6.259  15.402  0.5507 -0.1923  1.4473
 7172TIP3   OH242930   3.918   5.392  13.494 -0.2397  0.3550 -0.2677
 7172TIP3    H142931   4.010   5.393  13.471 -0.6851  2.5231 -2.4063
 7172TIP3    H242932   3.874   5.351  13.419 -1.1590  1.0590 -0.1420
 7173TIP3   OH242933   3.172   0.624   5.553 -0.4526 -0.7651  0.6493
 7173TIP3    H142934   3.088   0.667   5.536 -0.5322 -1.4422 -0.7537
 7173TIP3    H242935   3.216   0.621   5.468  1.4788  0.5247  1.5163
 7174TIP3   OH242936   5.902   2.341  11.249 -0.3385 -0.0829  0.1661
 7174TIP3    H142937   5.986   2.348  11.295 -0.7440 -1.8268  1.3067
 7174TIP3    H242938   5.924   2.353  11.157  0.8369  1.4890  0.6082
 7175TIP3   OH242939   6.070   3.113   6.370 -0.0157 -0.5508  0.2114
 7175TIP3    H142940   6.101   3.105   6.280  0.7467  2.9403  0.0289
 7175TIP3    H242941   5.977   3.092   6.365  0.0900 -0.7963 -1.3001
 7176TIP3   OH242942   6.169   5.258   1.845 -0.2390  0.1793  0.1669
 7176TIP3    H142943   6.181   5.164   1.830  0.4064  0.2026  0.4964
 7176TIP3    H242944   6.195   5.299   1.763  1.5934  0.1966  0.7159
 7177TIP3   OH242945   4.445   1.042   0.900  0.9157  0.4388  0.1272
 7177TIP3    H142946   4.468   1.071   0.812  0.2259  1.2167  0.1892
 7177TIP3    H242947   4.488   0.957   0.910 -0.4769 -0.5174 -1.6200
 7178TIP3   OH242948   5.440   1.162  11.758 -0.1993 -0.2069  0.5033
 7178TIP3    H142949   5.346   1.143  11.758 -0.5441  1.1374 -1.6315
 7178TIP3    H242950   5.478   1.097  11.700 -0.2552  0.8670 -0.7833
 7179TIP3   OH242951   4.372   2.193   5.706  0.6658  0.2850  1.0401
 7179TIP3    H142952   4.279   2.176   5.715  0.5740 -0.5570 -0.9307
 7179TIP3    H242953   4.398   2.232   5.790 -1.5259  0.9931  1.4532
 7180TIP3   OH242954   5.673   0.384  16.644  0.6152 -0.1893  0.1361
 7180TIP3    H142955   5.583   0.356  16.628  0.3463  0.5972  0.2133
 7180TIP3    H242956   5.703   0.418  16.559  0.2989  0.9780  0.4714
 7181TIP3   OH242957   4.992   6.015  11.858  0.0652 -0.9651 -0.8866
 7181TIP3    H142958   5.068   5.982  11.809 -0.2562 -2.9707 -0.1220
 7181TIP3    H242959   4.925   6.028  11.792 -0.0327 -2.6422 -1.1519
 7182TIP3   OH242960   2.011   6.459   0.068 -0.0122 -0.4178  0.3119
 7182TIP3    H142961   2.102   6.430   0.079  0.4392  0.8934  0.2285
 7182TIP3    H242962   1.969   6.438   0.151 -0.1096 -2.5603 -0.2128
 7183TIP3   OH242963   1.067   5.014   3.346 -0.2164  0.1661  0.4261
 7183TIP3    H142964   1.052   5.083   3.281 -2.4331  0.1360  0.8447
 7183TIP3    H242965   1.105   4.942   3.296 -2.6873 -0.1838 -1.0695
 7184TIP3   OH242966   1.986   1.076  14.177 -0.3113  0.3252  0.0728
 7184TIP3    H142967   2.043   1.150  14.199 -0.3490 -0.2331  2.2548
 7184TIP3    H242968   1.897   1.109  14.190 -0.5614  0.9799 -2.6559
 7185TIP3   OH242969   2.237   5.425   3.821  0.1747 -0.0232 -0.1271
 7185TIP3    H142970   2.237   5.377   3.738  0.4271  1.8916 -1.3087
 7185TIP3    H242971   2.307   5.490   3.811 -0.2904  0.7402  1.2916
 7186TIP3   OH242972   1.751   0.117   5.266 -0.7001  0.4519 -0.3612
 7186TIP3    H142973   1.740   0.032   5.307  1.0571  0.2053 -0.3271
 7186TIP3    H242974   1.768   0.178   5.338  0.1548  0.4193 -0.5142
 7187TIP3   OH242975   0.103   4.348   3.391 -0.5739  0.2236  0.8213
 7187TIP3    H142976   0.166   4.276   3.394  0.9460  1.4538 -0.4669
 7187TIP3    H242977   0.086   4.368   3.484  0.2977 -0.6655  1.1909
 7188TIP3   OH242978   2.282   3.672   4.741  0.1365 -0.0972 -0.4868
 7188TIP3    H142979   2.255   3.729   4.813  2.6949 -0.6821  1.0742
 7188TIP3    H242980   2.272   3.726   4.663 -0.9744  1.1971  0.4911
 7189TIP3   OH242981   1.306   6.322   2.531 -0.0513 -0.0478  0.1702
 7189TIP3    H142982   1.361   6.264   2.584 -0.3043  0.3473  0.8718
 7189TIP3    H242983   1.350   6.407   2.535 -0.3435  0.1034  0.1580
 7190TIP3   OH242984   4.694   2.597   0.946 -0.0562 -0.7280 -0.7806
 7190TIP3    H142985   4.742   2.516   0.932  1.3657  0.0828 -0.8208
 7190TIP3    H242986   4.727   2.657   0.879 -0.1570  0.2547  0.0129
 7191TIP3   OH242987   4.799   3.363  13.892 -0.0321 -0.3887 -0.1544
 7191TIP3    H142988   4.778   3.430  13.957 -1.7820 -0.0551 -0.9913
 7191TIP3    H242989   4.789   3.280  13.939 -1.6244 -0.1630 -0.0404
 7192TIP3   OH242990   1.936   1.207   3.542 -0.0269  0.4160 -0.7123
 7192TIP3    H142991   1.979   1.264   3.606  0.4166 -0.5680 -0.1181
 7192TIP3    H242992   1.861   1.170   3.590  0.5324 -0.6319 -0.6132
 7193TIP3   OH242993   6.267   0.709   5.580 -0.2112 -0.0111 -0.1411
 7193TIP3    H142994   6.174   0.720   5.599 -0.0582  2.4029 -0.4650
 7193TIP3    H242995   6.289   0.623   5.615 -2.4524 -0.4507  0.3389
 7194TIP3   OH242996   0.286   1.614  15.401  0.3094  0.2661 -0.3162
 7194TIP3    H142997   0.214   1.665  15.364 -0.6403 -1.2330 -0.6125
 7194TIP3    H242998   0.355   1.618  15.335 -0.4480 -0.3340 -1.1625
 7195TIP3   OH242999   5.132   4.075  14.590  0.1007  0.5139  0.2052
 7195TIP3    H143000   5.059   4.049  14.646  0.3921 -0.2296  0.2522
 7195TIP3    H243001   5.094   4.085  14.503 -0.4395  2.1006  0.5995
 7196TIP3   OH243002   6.470   5.912   4.923 -0.1363  0.0720  0.5383
 7196TIP3    H143003   6.453   5.981   4.986 -0.7964 -0.4000  0.8836
 7196TIP3    H243004   6.515   5.844   4.973  1.7954  0.7891 -0.0916
 7197TIP3   OH243005   4.567   0.707   3.487  0.0058 -0.4198 -0.1046
 7197TIP3    H143006   4.578   0.754   3.569  0.3880 -0.7020  0.0046
 7197TIP3    H243007   4.656   0.694   3.454 -0.1374 -0.4174 -0.5027
 7198TIP3   OH243008   4.208   2.072   5.069 -0.2049 -0.2316 -1.1058
 7198TIP3    H143009   4.303   2.061   5.067 -0.2483 -0.5780 -2.7675
 7198TIP3    H243010   4.194   2.147   5.126  1.1435  0.3974 -1.5491
 7199TIP3   OH243011   3.798   3.920   1.016  0.4572 -0.3158 -0.3609
 7199TIP3    H143012   3.887   3.956   1.015  0.7611 -1.0546 -0.6753
 7199TIP3    H243013   3.806   3.835   0.972 -0.4902 -0.1936 -0.8032
 7200TIP3   OH243014   4.795   0.535  16.781  0.8663  0.1081 -0.2331
 7200TIP3    H143015   4.822   0.592  16.710 -1.1426 -0.1328 -1.2551
 7200TIP3    H243016   4.750   0.592  16.843 -1.1858 -0.2852 -1.2788
 7201TIP3   OH243017   4.660   0.322  16.229 -0.4344 -0.1398 -0.2533
 7201TIP3    H143018   4.657   0.265  16.306  0.4456  1.3596  0.9348
 7201TIP3    H243019   4.752   0.323  16.203 -0.2898  1.2789  0.2070
 7202TIP3   OH243020   1.973   5.728  13.588  0.5024 -0.1209 -0.1139
 7202TIP3    H143021   1.878   5.715  13.584  0.5373 -0.5458  0.3555
 7202TIP3    H243022   1.983   5.821  13.610  0.1721 -0.2981  0.8574
 7203TIP3   OH243023   3.551   3.638  14.763 -0.4804 -0.3237 -0.5329
 7203TIP3    H143024   3.599   3.687  14.696  0.7482 -1.7482 -0.7564
 7203TIP3    H243025   3.617   3.611  14.826 -1.2077 -1.1556 -0.0913
 7204TIP3   OH243026   4.566   0.972   2.002  0.1523  0.2052  0.0531
 7204TIP3    H143027   4.531   0.886   1.982  0.9354  0.3165 -1.9928
 7204TIP3    H243028   4.491   1.031   1.997  0.1038  0.0388 -1.4334
 7205TIP3   OH243029   4.408   2.934  11.630 -0.2919  0.2397  0.2662
 7205TIP3    H143030   4.423   2.853  11.679  1.1173  0.1892 -0.2045
 7205TIP3    H243031   4.332   2.915  11.576 -2.1320  0.4209  2.6342
 7206TIP3   OH243032   2.067   6.309  13.322  0.0290 -0.2152  0.6932
 7206TIP3    H143033   1.999   6.242  13.327 -1.6257  1.4214  1.4687
 7206TIP3    H243034   2.045   6.361  13.245 -0.4738  1.1755  1.7331
 7207TIP3   OH243035   6.750   5.518  10.884 -0.1163 -0.0004 -0.4351
 7207TIP3    H143036   6.689   5.590  10.871  1.0437  0.8362 -1.5899
 7207TIP3    H243037   6.818   5.533  10.818  2.1509 -0.0015  1.7809
 7208TIP3   OH243038   0.203   4.521  16.891  0.1247  0.3354  0.2941
 7208TIP3    H143039   0.121   4.492  16.851  1.3235  1.7512 -3.5762
 7208TIP3    H243040   0.221   4.455  16.959 -2.3616 -2.0677 -1.1813
 7209TIP3   OH243041   5.128   2.238   5.140 -0.0446  0.8156  0.4031
 7209TIP3    H143042   5.059   2.215   5.202  0.1907 -0.8938  0.0885
 7209TIP3    H243043   5.088   2.224   5.054  0.6140  0.0097  0.2178
 7210TIP3   OH243044   6.444   5.651   0.793  0.2663 -0.4577  0.4237
 7210TIP3    H143045   6.491   5.618   0.717 -0.5347 -0.7932  0.0632
 7210TIP3    H243046   6.359   5.677   0.759  0.8143  1.9597  0.6917
 7211TIP3   OH243047   1.899   3.947  16.179 -0.0338 -0.1445  0.7490
 7211TIP3    H143048   1.984   3.905  16.165 -0.2815 -0.2537 -0.6183
 7211TIP3    H243049   1.919   4.041  16.179 -0.1381 -0.0125 -2.1283
 7212TIP3   OH243050   6.738   5.873  13.403  0.8609 -0.0053 -0.3561
 7212TIP3    H143051   6.658   5.821  13.402  0.0378  1.2181 -0.2994
 7212TIP3    H243052   6.749   5.899  13.494  1.0906  0.1618 -0.4311
 7213TIP3   OH243053   0.009   4.697   1.142 -0.5495  0.1850 -0.0613
 7213TIP3    H143054   0.081   4.658   1.191 -1.7479 -2.2679 -0.1167
 7213TIP3    H243055  -0.009   4.779   1.188  0.6504 -0.3303  1.4340
 7214TIP3   OH243056   2.379   4.669  12.674  0.2680 -0.1221 -0.3605
 7214TIP3    H143057   2.408   4.757  12.650  0.1768 -0.5174 -1.9777
 7214TIP3    H243058   2.302   4.684  12.729 -1.3551  0.8303 -2.7494
 7215TIP3   OH243059   4.247   0.977  16.970 -0.1492  0.1503 -0.3058
 7215TIP3    H143060   4.311   1.047  16.960  0.1651 -0.2645 -1.2535
 7215TIP3    H243061   4.177   0.999  16.909 -0.6580  0.2914  0.3036
 7216TIP3   OH243062   6.058   0.144  16.827  0.3477 -0.0193  0.4193
 7216TIP3    H143063   6.126   0.131  16.762  2.1713 -1.6126  2.5133
 7216TIP3    H243064   5.977   0.150  16.776  1.5520 -2.0422 -1.9262
 7217TIP3   OH243065   0.550   4.945   5.900 -0.7862  0.2744 -0.2250
 7217TIP3    H143066   0.537   4.865   5.849 -2.0283 -0.3243  0.9684
 7217TIP3    H243067   0.594   4.916   5.980 -2.4345  0.5061  0.8303
 7218TIP3   OH243068   5.679   0.733  17.114 -0.0306 -0.7886  0.6194
 7218TIP3    H143069   5.733   0.684  17.175 -1.1596 -1.3516  1.1893
 7218TIP3    H243070   5.606   0.674  17.092 -0.7811  0.1824  0.4027
 7219TIP3   OH243071   3.801   4.719  12.835  0.1698 -0.1988  0.5920
 7219TIP3    H143072   3.777   4.632  12.866  1.2247 -0.2639  1.2458
 7219TIP3    H243073   3.803   4.710  12.739 -0.3827 -0.7085  0.6212
 7220TIP3   OH243074   5.731   5.058   1.312  0.7727  0.6696 -0.3125
 7220TIP3    H143075   5.683   5.000   1.371  0.8500  1.1107  0.1917
 7220TIP3    H243076   5.768   5.000   1.246 -3.6210  0.5633 -3.0667
 7221TIP3   OH243077   5.746   2.922   3.177  0.0298  0.3687  0.4594
 7221TIP3    H143078   5.695   2.861   3.231 -1.0485  1.5436  0.8101
 7221TIP3    H243079   5.824   2.872   3.152 -1.9060 -2.0483 -1.3254
 7222TIP3   OH243080   0.238   1.786   5.417  0.1804 -0.9930 -1.2645
 7222TIP3    H143081   0.218   1.716   5.355 -0.6476 -1.2239 -0.7638
 7222TIP3    H243082   0.260   1.740   5.498 -1.1602 -0.6930 -0.6976
 7223TIP3   OH243083   4.757   1.678  12.487 -0.8220 -0.3349 -0.0110
 7223TIP3    H143084   4.730   1.759  12.442  0.2673  1.0075  1.6064
 7223TIP3    H243085   4.710   1.682  12.571 -1.4207 -1.8597 -0.2458
 7224TIP3   OH243086   5.279   4.410  16.226  0.3386 -0.2364  0.7749
 7224TIP3    H143087   5.220   4.462  16.170  1.4086 -0.8189 -0.9692
 7224TIP3    H243088   5.220   4.366  16.287 -0.8101  1.0408  0.6617
 7225TIP3   OH243089   6.436   0.141   0.955 -0.0460 -0.7619 -0.9349
 7225TIP3    H143090   6.363   0.082   0.932  0.7613 -0.9989 -3.2154
 7225TIP3    H243091   6.499   0.085   0.999 -0.3914 -1.0223 -0.7670
 7226TIP3   OH243092   3.005   2.725   2.443 -0.3401  0.1506  0.0180
 7226TIP3    H143093   3.010   2.770   2.358  2.0963  1.5294  0.7932
 7226TIP3    H243094   3.087   2.676   2.448 -1.4469 -1.7550  0.6834
 7227TIP3   OH243095   1.133   1.746  13.153  0.0105  0.2307  0.0793
 7227TIP3    H143096   1.164   1.794  13.077  0.1704 -0.3488 -0.2257
 7227TIP3    H243097   1.101   1.663  13.118 -1.6757  0.7054  0.4064
 7228TIP3   OH243098   0.497   3.587  15.778 -0.0949  0.1252  0.1724
 7228TIP3    H143099   0.589   3.566  15.793  0.1693  0.7207 -0.5766
 7228TIP3    H243100   0.465   3.516  15.722 -0.1674 -0.1986  0.6066
 7229TIP3   OH243101   2.020   3.824  15.600  0.4273 -0.0193  0.5483
 7229TIP3    H143102   2.064   3.874  15.669  0.2712  0.0124  0.6258
 7229TIP3    H243103   1.927   3.828  15.624  0.2493  0.8664 -0.2302
 7230TIP3   OH243104   0.618   3.324   3.933 -0.7000 -0.0168  0.3329
 7230TIP3    H143105   0.662   3.407   3.913 -1.7820  0.9166  1.5395
 7230TIP3    H243106   0.661   3.293   4.013  0.9444 -1.6330 -1.1082
 7231TIP3   OH243107   2.689   5.065  12.208 -0.0042 -0.0769 -0.1106
 7231TIP3    H143108   2.614   5.008  12.191 -1.4130  1.2208  1.4736
 7231TIP3    H243109   2.745   5.014  12.267 -1.2773  0.1452  1.3433
 7232TIP3   OH243110   5.994   0.634   4.037  0.6838 -0.2901  0.4485
 7232TIP3    H143111   5.903   0.661   4.029  0.6487 -0.0081  1.6339
 7232TIP3    H243112   6.038   0.674   3.962 -0.4702 -1.8964 -1.1765
 7233TIP3   OH243113   1.086   3.053  10.480  0.4057  0.4735  0.6474
 7233TIP3    H143114   1.023   3.124  10.467 -0.9416 -0.5277  1.4866
 7233TIP3    H243115   1.171   3.097  10.484 -0.3601  2.0002  0.8517
 7234TIP3   OH243116   2.446   6.198  15.783  0.6286 -0.5577 -0.2277
 7234TIP3    H143117   2.375   6.216  15.721  0.5992 -1.1134 -0.3624
 7234TIP3    H243118   2.450   6.102  15.787 -1.2548 -0.6375  2.7890
 7235TIP3   OH243119   6.282   1.968  13.927  0.3168  0.1570 -0.2603
 7235TIP3    H143120   6.297   1.948  13.834 -0.9544 -0.5873 -0.3305
 7235TIP3    H243121   6.247   1.886  13.964  0.6943  0.4826  0.8532
 7236TIP3   OH243122   6.189   2.984  12.099 -0.2053  0.0126  0.0993
 7236TIP3    H143123   6.219   2.973  12.009  1.3488  0.2991  0.5514
 7236TIP3    H243124   6.269   2.977  12.152 -1.0621  0.0129  1.4451
 7237TIP3   OH243125   4.476   4.712  15.650  0.0849 -0.2190  0.0318
 7237TIP3    H143126   4.519   4.660  15.582 -0.6675  0.4622 -1.0042
 7237TIP3    H243127   4.509   4.801  15.637  0.2739 -0.1689  0.8507
 7238TIP3   OH243128   2.865   0.710   2.990  0.7700 -1.3266 -0.3986
 7238TIP3    H143129   2.857   0.617   3.009 -0.6174 -1.1625 -0.0694
 7238TIP3    H243130   2.811   0.753   3.056  1.0144 -0.3095 -0.8315
 7239TIP3   OH243131   3.752   0.014  15.438  0.8178 -0.0858  0.5925
 7239TIP3    H143132   3.806   0.083  15.400 -0.5036 -0.0623 -1.4005
 7239TIP3    H243133   3.667   0.056  15.453  0.1626 -1.1225 -0.1279
 7240TIP3   OH243134   3.871   1.614   1.307  0.3294 -0.1851  0.5787
 7240TIP3    H143135   3.835   1.703   1.309  0.7731 -0.0135  1.4312
 7240TIP3    H243136   3.888   1.593   1.399  0.9975 -0.8381  0.3157
 7241TIP3   OH243137   6.516   6.420  14.299 -0.3765 -0.5745 -0.0377
 7241TIP3    H143138   6.468   6.491  14.256  0.0620  0.7691  1.5791
 7241TIP3    H243139   6.467   6.404  14.380 -0.8695 -2.6505 -0.6840
 7242TIP3   OH243140   4.676   2.447   0.341 -0.2731 -0.3536  0.6186
 7242TIP3    H143141   4.767   2.451   0.370 -0.4802  1.2508  1.1487
 7242TIP3    H243142   4.671   2.367   0.289  1.8652  0.3796 -0.8509
 7243TIP3   OH243143   4.434   5.889  11.555 -0.2564  0.5268 -0.8513
 7243TIP3    H143144   4.445   5.937  11.637  0.7669 -3.6531  1.7490
 7243TIP3    H243145   4.343   5.859  11.556  0.3678 -1.4998  0.0857
 7244TIP3   OH243146   3.354   4.908  14.289 -0.3183 -0.1588  0.7440
 7244TIP3    H143147   3.329   4.821  14.256 -0.6437  0.0413  0.4615
 7244TIP3    H243148   3.430   4.891  14.344 -0.7425 -0.7037  1.1735
 7245TIP3   OH243149   3.656   1.245   4.138  0.0809  0.5127 -0.6389
 7245TIP3    H143150   3.649   1.242   4.042 -1.0064  0.1845 -0.5582
 7245TIP3    H243151   3.750   1.236   4.155  0.1752 -0.6842 -1.6306
 7246TIP3   OH243152   0.559   6.425   2.642  0.2643 -0.4030 -0.2630
 7246TIP3    H143153   0.592   6.513   2.662  1.1177 -0.6042 -0.7518
 7246TIP3    H243154   0.550   6.383   2.727  0.7320 -0.1507 -0.0835
 7247TIP3   OH243155   6.532   3.140  16.748  0.9340 -0.0722 -0.0613
 7247TIP3    H143156   6.546   3.219  16.800 -0.6075  0.4686 -0.4146
 7247TIP3    H243157   6.471   3.167  16.679 -1.5995 -2.0748  1.1953
 7248TIP3   OH243158   0.354   0.635  15.457 -0.5215  0.2937 -0.2317
 7248TIP3    H143159   0.392   0.635  15.370  0.3395  2.2504  0.0971
 7248TIP3    H243160   0.398   0.563  15.503 -0.2548 -0.1006 -1.0878
 7249TIP3   OH243161   2.438   2.829   4.931 -0.2487  0.2397 -0.1288
 7249TIP3    H143162   2.369   2.764   4.945 -0.0987  0.2704  0.8937
 7249TIP3    H243163   2.446   2.838   4.836 -1.8052  0.4050 -0.2550
 7250TIP3   OH243164   3.005   6.159  12.927  0.8307  0.2137 -0.7190
 7250TIP3    H143165   2.980   6.251  12.927  0.3365  0.1105  1.1276
 7250TIP3    H243166   3.000   6.132  13.018  1.2945 -1.5706 -1.1712
 7251TIP3   OH243167   1.668   6.126  11.944  0.0197  0.0564  1.0571
 7251TIP3    H143168   1.698   6.208  11.983  0.6248 -0.2816  1.3266
 7251TIP3    H243169   1.632   6.151  11.859 -1.0913  0.7714  1.7103
 7252TIP3   OH243170   0.656   2.113   1.000  0.0680  0.3288  0.5302
 7252TIP3    H143171   0.614   2.184   1.048 -1.2724  1.4234 -2.1093
 7252TIP3    H243172   0.747   2.142   0.988  0.3019  0.2391  1.9101
 7253TIP3   OH243173   6.489   5.133  12.948 -0.5146  0.0005 -0.5294
 7253TIP3    H143174   6.579   5.133  12.979 -0.4385 -1.4052 -0.6871
 7253TIP3    H243175   6.444   5.197  13.003  0.1731 -0.5930  0.7461
 7254TIP3   OH243176   2.599   3.015  17.021 -0.0276  0.0366 -0.1707
 7254TIP3    H143177   2.561   3.050  17.103  0.8689  0.3971  0.1041
 7254TIP3    H243178   2.691   3.001  17.042 -0.5118 -3.7702  0.1466
 7255TIP3   OH243179   0.061   4.766   1.690  0.3377 -0.2861 -0.7655
 7255TIP3    H143180   0.140   4.808   1.724 -0.3077  0.1446  0.2657
 7255TIP3    H243181   0.008   4.838   1.656  0.0241 -0.4645 -0.6638
 7256TIP3   OH243182   2.457   6.703   2.692 -0.6277 -0.0580 -0.3590
 7256TIP3    H143183   2.531   6.691   2.753  0.7099  0.3512 -1.8437
 7256TIP3    H243184   2.422   6.789   2.715 -1.1296 -0.5532  0.8278
 7257TIP3   OH243185   1.416   1.218  11.089 -0.2899  0.2444 -0.7957
 7257TIP3    H143186   1.469   1.138  11.079 -2.5368 -1.6138  0.8571
 7257TIP3    H243187   1.345   1.207  11.026  0.1580  1.6976 -1.5747
 7258TIP3   OH243188   1.764   5.651   4.567 -0.3957  0.7633  0.4093
 7258TIP3    H143189   1.855   5.621   4.570 -0.9613 -1.2308 -0.7538
 7258TIP3    H243190   1.738   5.661   4.658  0.1734 -1.3583  0.8476
 7259TIP3   OH243191   5.846   3.683  11.004 -0.5032  0.1939  0.3684
 7259TIP3    H143192   5.889   3.763  10.974  2.8395 -1.7061 -0.4417
 7259TIP3    H243193   5.771   3.673  10.946  0.8551  1.1490 -1.6849
 7260TIP3   OH243194   2.422   1.436  16.055 -0.1993  0.0689 -0.2851
 7260TIP3    H143195   2.372   1.436  15.973  0.6093 -0.0724 -0.7832
 7260TIP3    H243196   2.429   1.528  16.079 -0.2079  0.1303 -0.5170
 7261TIP3   OH243197   1.360   6.144   4.601 -0.0139 -0.3210 -0.0130
 7261TIP3    H143198   1.452   6.118   4.594  0.9494  2.9834 -1.6117
 7261TIP3    H243199   1.352   6.183   4.688  0.2700 -0.0261 -0.1183
 7262TIP3   OH243200   2.383   5.680   0.362 -1.1193 -0.0244 -0.1062
 7262TIP3    H143201   2.468   5.647   0.393 -0.9911  1.2488  0.9794
 7262TIP3    H243202   2.318   5.629   0.411 -0.9844 -0.5600 -0.4734
 7263TIP3   OH243203   2.018   6.339   5.363  0.1135 -0.4978  0.0377
 7263TIP3    H143204   2.071   6.282   5.308 -2.1455 -1.0417 -1.7125
 7263TIP3    H243205   2.052   6.427   5.346  0.9569 -0.9045 -0.4186
 7264TIP3   OH243206   0.877   2.068   4.523  0.9437 -0.0465  0.8936
 7264TIP3    H143207   0.916   2.134   4.466  1.1815 -0.0158  1.0901
 7264TIP3    H243208   0.787   2.099   4.538  0.4510 -0.7097 -0.5026
 7265TIP3   OH243209   5.673   0.909  15.426  0.0912 -0.2727  0.2480
 7265TIP3    H143210   5.628   0.910  15.511  0.9344  2.0149  0.7296
 7265TIP3    H243211   5.761   0.942  15.446  0.5081 -0.3121 -1.4322
 7266TIP3   OH243212   4.073   0.395   5.492  0.2129 -0.2318  0.0416
 7266TIP3    H143213   4.037   0.393   5.581  0.2170 -0.7354  0.0355
 7266TIP3    H243214   4.056   0.307   5.457 -0.1288  0.0832 -0.5944
 7267TIP3   OH243215   0.461   5.055   6.273  0.3707  0.3133  0.5937
 7267TIP3    H143216   0.485   5.142   6.242  1.3846 -0.5420 -1.1782
 7267TIP3    H243217   0.367   5.060   6.288  0.3817  1.6633  0.3819
 7268TIP3   OH243218   0.169   5.859   0.309 -0.0935 -0.1789  0.6069
 7268TIP3    H143219   0.096   5.811   0.270  1.9591 -2.2546 -0.9780
 7268TIP3    H243220   0.215   5.897   0.234  1.4857 -0.5406  1.3505
 7269TIP3   OH243221   3.851   6.474  12.484 -0.2925 -0.4088  0.0975
 7269TIP3    H143222   3.848   6.540  12.415  0.3748 -0.4126  0.0537
 7269TIP3    H243223   3.774   6.491  12.537 -0.8968 -0.5053 -0.7389
 7270TIP3   OH243224   3.828   0.791  10.545 -0.4468  0.0566 -0.1219
 7270TIP3    H143225   3.911   0.771  10.588  0.0882  0.6216 -0.8618
 7270TIP3    H243226   3.853   0.822  10.458 -1.4218  0.4892 -0.2609
 7271TIP3   OH243227   1.717   2.054  16.952 -0.0357 -0.6107 -0.8114
 7271TIP3    H143228   1.763   2.095  16.879 -0.8158  2.2635  0.1838
 7271TIP3    H243229   1.773   2.069  17.028 -1.1626  0.3254 -0.1127
 7272TIP3   OH243230   0.025   1.698  10.548  0.2800  0.3912  0.4694
 7272TIP3    H143231  -0.019   1.670  10.468 -0.0103  0.7438  0.5030
 7272TIP3    H243232   0.109   1.733  10.519  0.5794 -0.3551  0.4121
 7273TIP3   OH243233   0.491   0.421  11.792 -0.2569  0.4188 -0.1183
 7273TIP3    H143234   0.580   0.385  11.790  0.6061  2.2192  1.6708
 7273TIP3    H243235   0.473   0.445  11.701  0.6104 -0.9704 -0.6946
 7274TIP3   OH243236   6.468   5.203  17.068 -0.3555  0.0104 -0.6068
 7274TIP3    H143237   6.541   5.163  17.115 -1.1336 -1.5138 -0.6396
 7274TIP3    H243238   6.392   5.151  17.094 -0.7941 -1.0625 -3.6677
 7275TIP3   OH243239   3.662   1.374  12.053 -0.1744  0.2846  0.8574
 7275TIP3    H143240   3.608   1.440  12.009 -1.4069 -2.6799 -2.5943
 7275TIP3    H243241   3.740   1.366  11.998 -1.2000 -2.7059 -0.3806
 7276TIP3   OH243242   1.363   4.691  13.434  0.3432  0.0398  0.2859
 7276TIP3    H143243   1.296   4.635  13.474 -1.2149  2.4548  1.3314
 7276TIP3    H243244   1.375   4.762  13.497  5.1356 -0.9997  0.8740
 7277TIP3   OH243245   3.951   5.660   1.676  0.2043  0.1369  0.4879
 7277TIP3    H143246   3.935   5.572   1.644  1.1706  0.5517 -1.2666
 7277TIP3    H243247   4.042   5.679   1.650 -0.8040  2.5987 -1.6481
 7278TIP3   OH243248   0.859   3.969  15.552 -0.8340  0.2896 -0.7967
 7278TIP3    H143249   0.916   4.046  15.554  0.5001 -0.5071 -3.4407
 7278TIP3    H243250   0.784   3.997  15.500 -1.2006  0.2985 -0.2711
 7279TIP3   OH243251   3.562   4.968   4.559  0.0675 -0.0971 -0.4759
 7279TIP3    H143252   3.516   5.008   4.633 -0.9514  0.6680 -1.4894
 7279TIP3    H243253   3.573   4.876   4.585  2.3153  0.7264  1.8221
 7280TIP3   OH243254   0.029   4.844  11.595  0.2087  0.3388 -0.2478
 7280TIP3    H143255   0.047   4.819  11.504  0.1968 -1.5945  0.2415
 7280TIP3    H243256  -0.021   4.925  11.588 -0.7972 -0.3783 -2.0325
 7281TIP3   OH243257   2.092   0.530   4.824 -0.2114 -0.7204 -0.1804
 7281TIP3    H143258   2.123   0.519   4.913 -0.8107 -0.0518  0.1280
 7281TIP3    H243259   2.144   0.603   4.789  1.5666 -2.3809 -1.1481
 7282TIP3   OH243260   4.295   1.260   3.362 -0.4515 -0.1185 -0.1628
 7282TIP3    H143261   4.254   1.175   3.352 -0.0575 -0.5527  1.5348
 7282TIP3    H243262   4.336   1.278   3.277 -1.6994 -0.9700 -0.9612
 7283TIP3   OH243263   2.169   5.687  13.241 -0.6134  0.1594 -0.2906
 7283TIP3    H143264   2.137   5.777  13.253  0.4792  0.9785 -2.7492
 7283TIP3    H243265   2.122   5.655  13.165 -2.1885 -2.0781  1.4749
 7284TIP3   OH243266   1.052   3.254  15.277  0.5190  0.5914  0.2204
 7284TIP3    H143267   1.051   3.263  15.372  1.5576 -0.4630  0.3556
 7284TIP3    H243268   1.011   3.169  15.260 -0.3859  1.1237 -0.3411
 7285TIP3   OH243269   2.929   6.273  14.372 -0.2044  1.0285  0.1128
 7285TIP3    H143270   2.920   6.321  14.290 -0.5395  1.6634  0.5195
 7285TIP3    H243271   2.899   6.185  14.351  0.4480  0.9687 -0.6445
 7286TIP3   OH243272   4.462   2.539  16.080  0.2257  1.0454  0.3061
 7286TIP3    H143273   4.383   2.585  16.051 -0.8154  0.5697  2.2072
 7286TIP3    H243274   4.502   2.599  16.144 -0.2598  0.0672  1.5763
 7287TIP3   OH243275   0.674   5.811  15.203  0.2221 -0.2832  0.0896
 7287TIP3    H143276   0.619   5.849  15.272 -0.4401 -1.3038  0.1467
 7287TIP3    H243277   0.745   5.874  15.192  0.0066  0.1986  1.2773
 7288TIP3   OH243278   0.031   2.438  16.877  0.1195  0.0344  0.2820
 7288TIP3    H143279   0.119   2.449  16.912 -0.3137  0.0607  1.4130
 7288TIP3    H243280   0.032   2.485  16.794  1.4734 -0.8813 -0.2423
 7289TIP3   OH243281   4.238   0.462  15.278 -0.6274  0.2319  0.3923
 7289TIP3    H143282   4.302   0.452  15.348 -0.5208 -0.7448  0.1840
 7289TIP3    H243283   4.184   0.536  15.303  0.3540  0.8295  0.7579
 7290TIP3   OH243284   4.943   2.140   0.238  0.2956 -0.1134  0.4565
 7290TIP3    H143285   4.941   2.044   0.239 -0.8566 -0.0987  1.6182
 7290TIP3    H243286   5.036   2.161   0.236  0.7240 -1.2892  2.9922
 7291TIP3   OH243287   4.870   4.763  12.899 -0.0414 -0.5384 -0.2160
 7291TIP3    H143288   4.804   4.728  12.839 -0.6954 -0.2877  0.3416
 7291TIP3    H243289   4.897   4.846  12.859  0.4761 -0.9793 -0.8098
 7292TIP3   OH243290   2.252   1.256   4.528  0.5234 -0.0843 -0.3096
 7292TIP3    H143291   2.196   1.333   4.523  0.0692 -0.4649 -1.3016
 7292TIP3    H243292   2.256   1.235   4.622  0.4763  1.0026 -0.0572
 7293TIP3   OH243293   5.298   1.969  11.851 -0.1197  0.3298 -0.3441
 7293TIP3    H143294   5.346   1.976  11.934  0.4367  3.4685 -0.8044
 7293TIP3    H243295   5.365   1.985  11.784 -0.9042 -0.3836 -1.3269
 7294TIP3   OH243296   2.166   6.128   2.590  0.1648  0.1697 -0.3012
 7294TIP3    H143297   2.167   6.220   2.565 -0.3872 -0.5803 -3.5311
 7294TIP3    H243298   2.243   6.090   2.549 -0.5093 -1.1236 -0.4245
 7295TIP3   OH243299   4.961   5.091   1.013 -0.3792  0.0817  0.0085
 7295TIP3    H143300   4.929   5.041   1.089 -1.8330  0.8547 -0.0633
 7295TIP3    H243301   5.047   5.124   1.040 -0.1293 -1.0626  0.6688
 7296TIP3   OH243302   1.455   4.651   6.055  0.3559  0.6565 -0.3699
 7296TIP3    H143303   1.493   4.685   6.135 -0.4654  1.9106 -0.4993
 7296TIP3    H243304   1.522   4.667   5.988  1.0315 -0.3731  0.0291
 7297TIP3   OH243305   4.220   2.126   3.121 -0.3959  0.2957  0.2027
 7297TIP3    H143306   4.246   2.202   3.173 -0.9425  0.4094  0.3214
 7297TIP3    H243307   4.252   2.145   3.033 -0.7648  0.7916  0.1738
 7298TIP3   OH243308   0.395   0.379   5.538 -0.0036  0.2738  0.2585
 7298TIP3    H143309   0.360   0.406   5.453 -0.8211 -0.8037  0.2211
 7298TIP3    H243310   0.383   0.284   5.540 -0.4881  0.3207  1.7735
 7299TIP3   OH243311   2.524   2.963   2.578 -0.4179 -0.2453  0.1737
 7299TIP3    H143312   2.526   2.947   2.483  1.1663  3.3819 -0.5670
 7299TIP3    H243313   2.430   2.963   2.600 -0.8393 -0.7101 -1.4923
 7300TIP3   OH243314   3.786   0.559   3.412  0.1342  0.1451  0.3208
 7300TIP3    H143315   3.769   0.577   3.504 -0.5014 -0.0167  0.2392
 7300TIP3    H243316   3.757   0.637   3.366 -0.7425 -0.2790  0.1465
 7301TIP3   OH243317   4.118   4.407  14.091  0.3941  0.3668 -0.5754
 7301TIP3    H143318   4.210   4.389  14.114  0.5318 -0.4937 -1.7016
 7301TIP3    H243319   4.103   4.354  14.013 -1.5533 -0.7750  0.5104
 7302TIP3   OH243320   2.339   1.031   1.666  0.3276 -0.2632 -0.0182
 7302TIP3    H143321   2.406   1.082   1.621 -0.0722 -0.2593 -0.6276
 7302TIP3    H243322   2.375   0.943   1.672 -0.4950 -0.8757 -2.4635
 7303TIP3   OH243323   1.586   0.500  11.217 -0.5890  0.0021  0.1003
 7303TIP3    H143324   1.610   0.424  11.271 -1.1060 -0.7369 -0.6681
 7303TIP3    H243325   1.504   0.473  11.174  0.3162  0.1346 -1.8217
 7304TIP3   OH243326   0.500   2.813  16.309  0.2028  0.4700  0.6452
 7304TIP3    H143327   0.592   2.808  16.335  0.0654  0.6651  1.1845
 7304TIP3    H243328   0.452   2.774  16.383  0.0076 -2.2280 -0.7875
 7305TIP3   OH243329   5.067   4.234  10.607 -0.0397 -0.1427 -0.0331
 7305TIP3    H143330   5.012   4.168  10.564  2.1255 -1.2437 -1.2500
 7305TIP3    H243331   5.047   4.315  10.560 -1.2766 -0.2975  0.1791
 7306TIP3   OH243332   1.452   5.132   2.611  0.0338  0.3726 -0.0947
 7306TIP3    H143333   1.490   5.046   2.597  1.4109  0.3964  2.7440
 7306TIP3    H243334   1.378   5.116   2.670  0.0770  1.0808  0.1617
 7307TIP3   OH243335   0.366   6.559  14.185 -0.1254  0.3204 -0.1902
 7307TIP3    H143336   0.457   6.583  14.201 -0.1995  1.3439 -1.1883
 7307TIP3    H243337   0.330   6.633  14.136 -1.1970 -0.5491 -0.7586
 7308TIP3   OH243338   0.779   1.042  15.131  0.4153 -0.3798 -0.1498
 7308TIP3    H143339   0.864   0.999  15.119  0.3585  0.0171 -2.3765
 7308TIP3    H243340   0.768   1.094  15.052 -0.5310  2.0061  1.4464
 7309TIP3   OH243341   4.557   5.022   4.364  0.3719 -0.0266 -0.2600
 7309TIP3    H143342   4.592   4.987   4.447  0.0198 -3.0289 -1.2528
 7309TIP3    H243343   4.632   5.064   4.323  0.8055  0.6013  1.1196
 7310TIP3   OH243344   3.122   6.300   0.404  0.3736 -0.6310  0.0329
 7310TIP3    H143345   3.043   6.352   0.422 -0.9396 -1.7843 -2.0733
 7310TIP3    H243346   3.111   6.222   0.458 -0.2504 -1.0512 -0.6781
 7311TIP3   OH243347   0.005   5.452  11.912  0.3683  0.0566 -0.4525
 7311TIP3    H143348   0.053   5.532  11.892  2.0532 -1.3077 -2.1575
 7311TIP3    H243349  -0.039   5.471  11.995  0.7172  2.7172 -0.7880
 7312TIP3   OH243350   5.681   6.424   6.419 -0.1276  0.0147  0.4554
 7312TIP3    H143351   5.684   6.350   6.480 -3.4882 -0.3216  0.4355
 7312TIP3    H243352   5.728   6.394   6.342 -0.0477 -1.4891  1.0559
 7313TIP3   OH243353   0.876   0.791  11.966 -0.0703  0.0628  0.0745
 7313TIP3    H143354   0.890   0.864  12.028  0.5371 -0.2973  0.3764
 7313TIP3    H243355   0.790   0.757  11.988  0.7713 -1.0892  1.8477
 7314TIP3   OH243356   2.517   6.624   4.922  0.4518  0.0816  0.0962
 7314TIP3    H143357   2.526   6.654   5.013 -0.4399 -0.2044  0.2855
 7314TIP3    H243358   2.483   6.535   4.929  0.9268 -0.1514 -0.5116
 7315TIP3   OH243359   2.980   0.395  16.541 -0.8559 -0.0950  0.0334
 7315TIP3    H143360   3.005   0.305  16.523 -1.6680 -0.2463 -0.4413
 7315TIP3    H243361   2.884   0.395  16.535 -0.8858  0.7398  0.2940
 7316TIP3   OH243362   2.880   1.477  10.945  0.1961  0.5354  0.0801
 7316TIP3    H143363   2.897   1.498  10.854 -0.7824  0.3974 -0.1416
 7316TIP3    H243364   2.818   1.404  10.942 -1.0230  1.5008  0.8514
 7317TIP3   OH243365   4.248   2.155   0.894 -0.1470 -0.3539 -0.0635
 7317TIP3    H143366   4.162   2.196   0.893 -0.2895 -0.2763  3.1542
 7317TIP3    H243367   4.308   2.225   0.870 -0.8029  0.3314  0.2498
 7318TIP3   OH243368   6.454   0.927  16.163  0.3015 -0.7701  0.0359
 7318TIP3    H143369   6.418   0.912  16.075 -1.0342 -1.0118  0.5980
 7318TIP3    H243370   6.548   0.936  16.149  0.1655 -1.2423 -1.3703
 7319TIP3   OH243371   5.810   6.413   1.716 -0.0551  0.2119 -0.0882
 7319TIP3    H143372   5.896   6.373   1.729 -0.9409 -1.8520 -0.2692
 7319TIP3    H243373   5.819   6.502   1.752  2.6418  0.6929 -1.7126
 7320TIP3   OH243374   6.671   0.062  13.495  0.4077 -0.2922 -0.1361
 7320TIP3    H143375   6.660   0.126  13.564 -1.5666 -0.7484  0.0558
 7320TIP3    H243376   6.717   0.108  13.425  0.6326  0.7694  0.6978
 7321TIP3   OH243377   0.292   4.623   2.428  0.2859  0.1798 -0.3819
 7321TIP3    H143378   0.358   4.691   2.443 -0.9684  1.0898  1.4616
 7321TIP3    H243379   0.321   4.578   2.349  2.3071  1.4856 -0.4563
 7322TIP3   OH243380   4.116   2.324  12.655  0.0733 -0.2890  0.1358
 7322TIP3    H143381   4.138   2.417  12.648 -0.4658 -0.2632 -2.0175
 7322TIP3    H243382   4.201   2.279  12.651  0.3272  0.0920  1.0818
 7323TIP3   OH243383   1.627   2.961  12.536 -0.3922  0.2662  0.2661
 7323TIP3    H143384   1.683   2.896  12.578 -0.5574 -0.1059 -0.0840
 7323TIP3    H243385   1.542   2.953  12.580 -0.5994 -0.2054 -0.2121
 7324TIP3   OH243386   1.868   4.559   4.596 -0.1471 -0.1906 -0.4794
 7324TIP3    H143387   1.804   4.612   4.642  0.1838 -1.1316  1.1618
 7324TIP3    H243388   1.953   4.591   4.628  0.2350  0.8489 -2.4044
 7325TIP3   OH243389   1.465   4.709  14.414 -0.0086 -0.0219  0.0893
 7325TIP3    H143390   1.406   4.680  14.344  1.7649  0.9396 -1.9095
 7325TIP3    H243391   1.435   4.798  14.435 -0.5625 -0.3231  0.6030
 7326TIP3   OH243392   2.862   0.100  15.689  0.3367  0.3818  0.0815
 7326TIP3    H143393   2.923   0.027  15.699 -1.3470 -1.5701 -2.4535
 7326TIP3    H243394   2.788   0.078  15.745  0.5880  1.1557  0.7441
 7327TIP3   OH243395   1.509   1.741  15.029  0.1727 -0.2014 -0.3080
 7327TIP3    H143396   1.597   1.703  15.032  0.5813  0.5892 -1.4952
 7327TIP3    H243397   1.464   1.690  14.962  0.3089  0.5527 -0.9810
 7328TIP3   OH243398   0.577   2.087   2.870 -0.1631 -0.4486 -0.7983
 7328TIP3    H143399   0.658   2.049   2.836 -0.0935 -1.3001  0.2394
 7328TIP3    H243400   0.521   2.011   2.886 -0.1282 -0.1320  1.0712
 7329TIP3   OH243401   5.813   6.637   1.919 -0.1152 -0.2481 -0.1128
 7329TIP3    H143402   5.821   6.553   1.963 -0.9745  0.1075  0.7584
 7329TIP3    H243403   5.899   6.678   1.929  0.4897 -1.2493 -1.0624
 7330TIP3   OH243404   0.321   0.479   3.870 -0.2195  0.0905  0.4005
 7330TIP3    H143405   0.300   0.386   3.858  1.3513 -0.0219 -2.0679
 7330TIP3    H243406   0.408   0.480   3.909 -0.6993  0.5715  1.5146
 7331TIP3   OH243407   4.750   0.749  16.326 -0.0385  0.5854  0.1017
 7331TIP3    H143408   4.815   0.800  16.279  1.2146 -0.7831  0.2625
 7331TIP3    H243409   4.713   0.690  16.260  0.6654 -0.3123  0.4737
 7332TIP3   OH243410   2.158   4.935   3.746  0.1302  0.2020 -0.4613
 7332TIP3    H143411   2.196   4.878   3.678  0.8323 -0.6571  0.6119
 7332TIP3    H243412   2.234   4.980   3.783 -0.3539  1.3496 -0.8363
 7333TIP3   OH243413   1.834   6.561  13.743  0.3536  0.1718  0.0374
 7333TIP3    H143414   1.754   6.603  13.775  0.2463 -1.5800  2.3389
 7333TIP3    H243415   1.834   6.579  13.649 -2.2889  0.9846  0.0937
 7334TIP3   OH243416   3.148   1.905  16.652 -0.6155 -0.2582 -0.6422
 7334TIP3    H143417   3.200   1.861  16.585  0.4576 -1.5293  0.9501
 7334TIP3    H243418   3.161   1.998  16.635  1.4446 -0.5472 -0.8642
 7335TIP3   OH243419   4.701   0.267   5.839 -0.1974  0.2285  0.3896
 7335TIP3    H143420   4.616   0.244   5.875 -1.5168  1.2723 -1.8689
 7335TIP3    H243421   4.723   0.351   5.879 -1.3875  1.1088 -0.7311
 7336TIP3   OH243422   6.415   2.416   3.147  0.1438  0.8440 -0.0163
 7336TIP3    H143423   6.446   2.350   3.209 -0.4442  2.3133  1.9267
 7336TIP3    H243424   6.465   2.495   3.168 -0.5441  1.5624 -0.9824
 7337TIP3   OH243425   6.234   3.099  13.209 -0.0670  0.2525  0.1781
 7337TIP3    H143426   6.280   3.167  13.160  0.9953 -0.4533  0.1472
 7337TIP3    H243427   6.147   3.136  13.226  0.5842  1.7268  0.4469
 7338TIP3   OH243428   2.134   0.583   5.750 -0.0659 -0.5765  0.1568
 7338TIP3    H143429   2.089   0.640   5.687  0.0541 -1.4914 -0.7893
 7338TIP3    H243430   2.226   0.586   5.723 -0.0930 -1.3957 -0.0654
 7339TIP3   OH243431   4.750   1.837   2.240 -0.2962 -0.2677 -0.6884
 7339TIP3    H143432   4.768   1.834   2.333  0.8304 -1.3598 -0.9223
 7339TIP3    H243433   4.834   1.861   2.200 -0.9419  0.9302 -1.3778
 7340TIP3   OH243434   4.526   0.949   3.988 -0.4399  0.0918 -0.5338
 7340TIP3    H143435   4.532   1.033   3.941 -2.5937  0.9623  0.6078
 7340TIP3    H243436   4.446   0.957   4.040 -0.4584 -2.5387 -0.0588
 7341TIP3   OH243437   0.258   3.503  10.645  0.1858 -0.4382  0.0054
 7341TIP3    H143438   0.192   3.461  10.701 -0.9623 -0.6179 -1.4059
 7341TIP3    H243439   0.207   3.558  10.586  1.1011 -2.0293 -2.3949
 7342TIP3   OH243440   4.858   3.584  15.206 -0.1591 -0.2018 -0.3755
 7342TIP3    H143441   4.944   3.592  15.248 -0.8446  1.0561  0.8582
 7342TIP3    H243442   4.868   3.629  15.122  0.0652  1.0347  0.2902
 7343TIP3   OH243443   5.841   2.210  13.383 -1.0298 -0.2487  0.1301
 7343TIP3    H143444   5.924   2.176  13.351  1.0990  0.2940  4.2836
 7343TIP3    H243445   5.855   2.305  13.390 -2.8595  0.1551 -1.0725
 7344TIP3   OH243446   1.211   1.916   0.821 -0.0652  0.0985  0.1823
 7344TIP3    H143447   1.122   1.884   0.809 -1.0875  3.2477 -1.8137
 7344TIP3    H243448   1.217   1.935   0.914 -1.6485  0.2267  0.2893
 7345TIP3   OH243449   2.749   3.919   3.144  0.5407  0.6935 -0.3119
 7345TIP3    H143450   2.813   3.849   3.157 -1.4193 -1.4538 -1.5263
 7345TIP3    H243451   2.672   3.889   3.191 -0.0779  2.5166 -0.1106
 7346TIP3   OH243452   1.190   3.205  14.091  0.0689 -0.0326  0.4592
 7346TIP3    H143453   1.125   3.166  14.150  2.0964 -0.6448  2.4526
 7346TIP3    H243454   1.272   3.203  14.142  1.3521  2.0369 -1.3812
 7347TIP3   OH243455   2.061   4.618  15.105  0.0266  0.0554 -0.6736
 7347TIP3    H143456   1.965   4.619  15.100 -0.1390  1.1715  1.5426
 7347TIP3    H243457   2.086   4.708  15.124  1.3414 -0.5571  0.7601
 7348TIP3   OH243458   3.607   1.295   0.948  0.2836  0.3066  0.0156
 7348TIP3    H143459   3.584   1.213   0.906  0.7914  0.7509 -1.1665
 7348TIP3    H243460   3.679   1.272   1.006  0.0939 -0.1694  0.0712
 7349TIP3   OH243461   4.450   0.089   6.499  0.1972  0.3618  0.1384
 7349TIP3    H143462   4.533   0.133   6.483  0.1822  1.0810  1.8108
 7349TIP3    H243463   4.469  -0.004   6.486  1.1966  0.5433  0.2570
 7350TIP3   OH243464   3.025   6.126   5.372 -0.2052  0.2740  0.7790
 7350TIP3    H143465   3.015   6.069   5.448 -0.4922 -0.2570  0.3495
 7350TIP3    H243466   3.115   6.111   5.342 -0.5010 -0.4678  0.2581
 7351TIP3   OH243467   1.977   1.508  15.470 -0.1716 -0.8328 -0.4066
 7351TIP3    H143468   1.934   1.576  15.522  1.5315 -1.3615  1.8635
 7351TIP3    H243469   1.966   1.428  15.522  0.4980 -1.6655 -1.4969
 7352TIP3   OH243470   1.507   4.867   3.494 -0.0315  0.4592 -0.0298
 7352TIP3    H143471   1.511   4.771   3.495  0.5626  0.4794  1.0780
 7352TIP3    H243472   1.425   4.888   3.539  0.0819  0.4709  0.1744
 7353TIP3   OH243473   2.966   0.189  10.539  0.0636  0.4687 -0.0670
 7353TIP3    H143474   3.043   0.200  10.594  1.8223  2.1990 -2.6309
 7353TIP3    H243475   2.945   0.096  10.544  3.2094 -0.3449 -0.3405
 7354TIP3   OH243476   2.249   4.832   3.494  0.7226 -0.0645  0.3517
 7354TIP3    H143477   2.292   4.765   3.441  1.2983 -0.2205  1.0068
 7354TIP3    H243478   2.299   4.912   3.477 -0.0407  0.2549 -0.5288
 7355TIP3   OH243479   5.594   2.878   2.786  0.1336  0.3834 -0.1483
 7355TIP3    H143480   5.539   2.847   2.858 -0.5733  0.9120 -0.4516
 7355TIP3    H243481   5.673   2.823   2.791 -1.2604 -1.8438 -0.9837
 7356TIP3   OH243482   5.892   2.518   0.608  0.5112  0.0851 -0.2763
 7356TIP3    H143483   5.966   2.533   0.667  0.4336  1.0877 -0.4244
 7356TIP3    H243484   5.883   2.599   0.559  0.1720 -0.5150 -1.2301
 7357TIP3   OH243485   1.796   6.032   4.363 -0.2036 -0.1718  0.3070
 7357TIP3    H143486   1.881   6.016   4.321 -0.3423 -0.4760  0.1348
 7357TIP3    H243487   1.795   5.972   4.437 -0.9161 -1.3326 -0.6037
 7358TIP3   OH243488   0.621   2.615   1.131  0.3841  0.2922  0.7658
 7358TIP3    H143489   0.698   2.559   1.136  0.7750  0.8587  1.2233
 7358TIP3    H243490   0.558   2.565   1.079  1.2278  0.0166 -0.0195
 7359TIP3   OH243491   1.448   2.396  15.479 -0.2636  0.4052  0.5431
 7359TIP3    H143492   1.429   2.302  15.484  0.6711  0.0881 -1.0669
 7359TIP3    H243493   1.415   2.431  15.561 -0.8494 -1.2938  1.0899
 7360TIP3   OH243494   5.682   4.847   5.992  0.1662  0.4473  0.0927
 7360TIP3    H143495   5.618   4.776   5.983 -0.5254  0.9349  0.9355
 7360TIP3    H243496   5.662   4.886   6.077  0.7639  1.4287 -0.2029
 7361TIP3   OH243497   1.069   6.147   5.457 -0.4799 -0.0410  0.4331
 7361TIP3    H143498   1.004   6.207   5.420 -1.7714 -0.7763  1.4098
 7361TIP3    H243499   1.153   6.186   5.436 -1.2674  1.5731  0.1557
 7362TIP3   OH243500   0.584   0.289  11.304 -0.3896  0.0719 -0.2151
 7362TIP3    H143501   0.516   0.241  11.351 -0.7882 -0.3275 -1.1861
 7362TIP3    H243502   0.597   0.239  11.223  0.0203  0.9572 -0.7032
 7363TIP3   OH243503   6.173   5.097  13.140  0.5859  0.3578 -0.1785
 7363TIP3    H143504   6.081   5.101  13.167  0.5559 -0.5113 -0.1177
 7363TIP3    H243505   6.208   5.021  13.186  1.3887  0.7770 -0.0718
 7364TIP3   OH243506   2.692   4.464   3.763  0.1954  0.0839  0.4097
 7364TIP3    H143507   2.605   4.425   3.751 -0.0504  0.9211 -0.7732
 7364TIP3    H243508   2.692   4.495   3.853 -0.2303 -1.0861  0.8382
 7365TIP3   OH243509   3.874   1.000   0.152  0.2328 -0.5116  0.0855
 7365TIP3    H143510   3.963   1.028   0.172  0.2292 -1.1912  1.1486
 7365TIP3    H243511   3.868   1.004   0.057  1.0144  0.6680  0.0678
 7366TIP3   OH243512   5.567   0.369   4.804  0.6170  0.1877 -0.6641
 7366TIP3    H143513   5.529   0.282   4.793 -1.5840  0.5055  2.7403
 7366TIP3    H243514   5.506   0.428   4.760  0.0744  0.2548  0.1533
 7367TIP3   OH243515   6.602   6.511   2.653 -0.1123 -0.0552  0.3905
 7367TIP3    H143516   6.603   6.420   2.683 -1.1965  0.5180  2.3267
 7367TIP3    H243517   6.548   6.557   2.718 -1.1048  1.6437 -1.5393
 7368TIP3   OH243518   2.009   4.511  13.570  0.0845  0.6126  0.0571
 7368TIP3    H143519   2.059   4.522  13.489 -0.5797  2.1131 -0.1684
 7368TIP3    H243520   2.071   4.534  13.640  0.0836  1.1959 -0.1374
 7369TIP3   OH243521   2.493   0.838   1.398 -0.3415  0.1838 -0.5397
 7369TIP3    H143522   2.439   0.796   1.331  1.0104 -1.6746 -0.5281
 7369TIP3    H243523   2.581   0.806   1.381  0.1080 -0.0197  1.8634
 7370TIP3   OH243524   2.322   1.845   5.291 -0.3014 -0.2621  0.0819
 7370TIP3    H143525   2.378   1.810   5.223 -0.8644 -2.1894  0.5559
 7370TIP3    H243526   2.235   1.809   5.273 -0.3989 -1.1269  1.9747
 7371TIP3   OH243527   6.351   2.251  12.468 -0.3126  0.2126  0.2356
 7371TIP3    H143528   6.371   2.343  12.486  1.8880 -0.2905  0.6748
 7371TIP3    H243529   6.268   2.253  12.420 -1.6814  2.2319  2.4534
 7372TIP3   OH243530   1.544   0.782   4.215 -0.3004  0.4816 -0.1925
 7372TIP3    H143531   1.569   0.811   4.127  0.1743  0.0449 -0.2025
 7372TIP3    H243532   1.618   0.730   4.246 -1.3937 -1.3203 -0.4531
 7373TIP3   OH243533   6.330   6.168   0.879 -0.0575  0.2275  0.1577
 7373TIP3    H143534   6.403   6.227   0.896 -0.5548  0.3478  2.1606
 7373TIP3    H243535   6.368   6.094   0.832  1.2689  0.4735  0.8176
 7374TIP3   OH243536   5.684   5.145   0.140 -0.4595  0.0820 -0.0600
 7374TIP3    H143537   5.758   5.204   0.122 -2.6817  2.3302 -2.7565
 7374TIP3    H243538   5.640   5.184   0.215 -1.7108  1.8313 -1.6088
 7375TIP3   OH243539   3.572   3.897   4.929  0.4952  0.0803  0.2060
 7375TIP3    H143540   3.612   3.978   4.898  1.1770 -0.2351  0.2393
 7375TIP3    H243541   3.478   3.913   4.926  0.6117  1.7744  2.5676
 7376TIP3   OH243542   4.051   2.088   2.777  0.1936  0.0580 -0.2522
 7376TIP3    H143543   4.017   2.004   2.747  1.3464  0.3371 -2.5227
 7376TIP3    H243544   4.007   2.103   2.861 -2.1113 -1.4823 -1.1001
 7377TIP3   OH243545   4.894   1.945  11.059  0.2190  0.2011  0.6610
 7377TIP3    H143546   4.881   1.871  11.000  0.4127  1.4926 -1.1019
 7377TIP3    H243547   4.973   1.923  11.108  0.0416 -0.9245  0.4567
 7378TIP3   OH243548   3.082   4.204   1.308 -0.1664 -0.4256 -0.3361
 7378TIP3    H143549   3.077   4.245   1.222 -0.0398  0.5111  0.0876
 7378TIP3    H243550   3.134   4.265   1.360  0.7773 -1.5403  0.0873
 7379TIP3   OH243551   6.725   6.728  14.271  0.1227 -0.0063 -0.2021
 7379TIP3    H143552   6.681   6.762  14.349  0.1691 -0.5137  0.0437
 7379TIP3    H243553   6.780   6.801  14.242  0.7999 -0.1153  0.7664
 7380TIP3   OH243554   1.719   5.466  16.972 -0.6679 -0.1324  0.0439
 7380TIP3    H143555   1.713   5.391  17.031 -0.9520 -1.4159 -1.5407
 7380TIP3    H243556   1.627   5.487  16.952 -0.5721 -0.2508 -0.5546
 7381TIP3   OH243557   5.024   4.068  13.790 -0.5905 -0.2199  0.5697
 7381TIP3    H143558   5.035   3.987  13.841 -2.8898  0.4990  2.3873
 7381TIP3    H243559   5.061   4.137  13.845 -0.1999  0.2176 -0.2110
 7382TIP3   OH243560   6.221   6.234   1.914 -0.0305 -0.1450 -0.9879
 7382TIP3    H143561   6.312   6.222   1.888  0.3731  0.9355 -0.1251
 7382TIP3    H243562   6.218   6.205   2.005  0.5914  4.0742  0.6098
 7383TIP3   OH243563   3.155   6.381   1.638  0.0048  0.0386 -0.0704
 7383TIP3    H143564   3.071   6.342   1.662 -1.9322  3.0781 -1.2522
 7383TIP3    H243565   3.177   6.436   1.713  0.5428 -0.1836 -0.0675
 7384TIP3   OH243566   3.372   4.976  14.557 -0.0498 -0.5066  0.4781
 7384TIP3    H143567   3.341   5.038  14.490 -0.1073 -0.8878  0.1504
 7384TIP3    H243568   3.431   5.028  14.611 -0.5063 -0.0205  0.5236
 7385TIP3   OH243569   1.697   4.967  11.420 -0.5050  0.3492 -0.8439
 7385TIP3    H143570   1.699   4.997  11.329  0.7571  1.6025 -0.4359
 7385TIP3    H243571   1.615   4.918  11.427 -1.4898  1.6764 -2.2236
 7386TIP3   OH243572   5.457   5.670   1.144  0.1026 -0.1819 -0.1094
 7386TIP3    H143573   5.478   5.762   1.165 -1.3627 -0.1341  1.3698
 7386TIP3    H243574   5.387   5.647   1.206  1.5025 -2.7908  0.6477
 7387TIP3   OH243575   5.910   1.251   4.292 -0.1097 -0.2302 -0.3756
 7387TIP3    H143576   5.908   1.243   4.197 -0.5221  0.8292 -0.4709
 7387TIP3    H243577   5.894   1.344   4.308 -2.2761 -0.7436  0.8085
 7388TIP3   OH243578   2.253   0.540   4.424  0.8816  0.6728  0.2676
 7388TIP3    H143579   2.204   0.526   4.343  0.3143  1.0754  0.5381
 7388TIP3    H243580   2.238   0.460   4.475  1.1999  0.4395 -0.0052
 7389TIP3   OH243581   4.417   2.681   0.402  0.6024  0.3323 -0.1821
 7389TIP3    H143582   4.512   2.695   0.407  0.5816  1.0442 -1.3183
 7389TIP3    H243583   4.381   2.769   0.391 -0.2059  0.0774  0.3491
 7390TIP3   OH243584   1.858   4.849  13.592 -0.2016 -0.2939  0.2987
 7390TIP3    H143585   1.893   4.785  13.654 -1.8224 -1.1619  0.3707
 7390TIP3    H243586   1.865   4.933  13.638 -1.0396 -0.8727  1.5556
 7391TIP3   OH243587   0.225   0.617   3.091  0.0481 -0.0418  0.3716
 7391TIP3    H143588   0.144   0.587   3.050  0.4629 -1.6243  0.6078
 7391TIP3    H243589   0.251   0.543   3.147  0.7817  1.0897  1.5699
 7392TIP3   OH243590   1.351   5.269  16.681 -0.1755 -0.1102 -0.6106
 7392TIP3    H143591   1.266   5.312  16.674 -0.9891 -1.4351  0.4977
 7392TIP3    H243592   1.364   5.228  16.596 -0.3863  0.5659 -0.9729
 7393TIP3   OH243593   0.722   0.053  10.473  0.1519  0.1803  0.2207
 7393TIP3    H143594   0.748   0.142  10.452 -0.5976  0.1343 -0.9761
 7393TIP3    H243595   0.803   0.011  10.502  0.7662  0.8993 -0.4165
 7394TIP3   OH243596   1.345   5.891  16.675  0.5046 -0.1548 -0.1927
 7394TIP3    H143597   1.405   5.846  16.615 -0.0934 -0.7224 -0.3811
 7394TIP3    H243598   1.265   5.905  16.623  0.8524  1.6196 -0.3070
 7395TIP3   OH243599   1.966   4.726   0.368 -0.6290 -0.4319  0.1984
 7395TIP3    H143600   2.038   4.757   0.422 -0.8887  0.4341  0.0622
 7395TIP3    H243601   1.996   4.740   0.278 -1.6149  1.5530  0.1327
 7396TIP3   OH243602   5.685   0.957   2.454 -0.1119  0.2757 -0.8609
 7396TIP3    H143603   5.755   0.932   2.514 -0.7962  0.9443  0.2567
 7396TIP3    H243604   5.721   1.030   2.404 -0.5443  1.8849  0.9980
 7397TIP3   OH243605   1.039   6.067   1.023 -0.1694  0.6329 -0.5929
 7397TIP3    H143606   0.977   6.043   1.092 -0.8586 -0.7366 -1.6246
 7397TIP3    H243607   1.122   6.029   1.052 -0.1087  1.3099  0.1519
 7398TIP3   OH243608   3.957   0.929  15.592 -0.2666  0.5408  0.4894
 7398TIP3    H143609   3.920   0.843  15.573  2.8416 -1.2634  1.7854
 7398TIP3    H243610   3.931   0.984  15.518 -1.2232 -1.8762 -1.0838
 7399TIP3   OH243611   5.477   3.343  15.890 -0.0198  0.0524  0.1004
 7399TIP3    H143612   5.570   3.364  15.898 -0.0327  0.3828 -0.5297
 7399TIP3    H243613   5.448   3.326  15.979  0.2962  1.4303  0.4860
 7400TIP3   OH243614   0.950   1.120  16.220 -0.0377 -0.3429 -0.0929
 7400TIP3    H143615   0.992   1.173  16.289 -3.8936 -0.3931  2.6277
 7400TIP3    H243616   0.988   1.033  16.231  2.3162  0.5129 -0.8539
 7401TIP3   OH243617   6.545   5.021  16.539  0.1045  0.6422  0.5865
 7401TIP3    H143618   6.458   5.027  16.577  0.5568  0.6676  1.6436
 7401TIP3    H243619   6.544   4.939  16.490 -0.3178  0.3402  1.0891
 7402TIP3   OH243620   4.431   4.867   0.696  0.1303 -0.5374  0.2216
 7402TIP3    H143621   4.488   4.822   0.759 -0.0586 -0.4952  0.4192
 7402TIP3    H243622   4.353   4.891   0.745  0.2306  0.0178  0.1185
 7403TIP3   OH243623   2.077   4.267  13.199 -0.4409 -0.2548  0.1723
 7403TIP3    H143624   2.109   4.350  13.235 -0.3795 -0.2256  0.0524
 7403TIP3    H243625   1.992   4.253  13.242 -1.1585  0.6225 -0.8959
 7404TIP3   OH243626   2.903   5.224  12.680 -0.1157 -0.5149  0.3098
 7404TIP3    H143627   2.946   5.152  12.634 -1.3069  0.7957 -3.2201
 7404TIP3    H243628   2.810   5.202  12.677 -0.4301  0.8118 -0.1988
 7405TIP3   OH243629   0.803   3.355   4.587 -0.2165  0.5599  1.0089
 7405TIP3    H143630   0.854   3.435   4.601  1.1234 -0.2166  0.7438
 7405TIP3    H243631   0.867   3.284   4.598 -1.3963 -0.4824  1.3338
 7406TIP3   OH243632   0.112   0.396   5.235 -0.1492 -0.1126  0.0349
 7406TIP3    H143633   0.195   0.444   5.233 -0.5853  0.7148  0.9195
 7406TIP3    H243634   0.092   0.385   5.327 -1.2279  0.0657 -0.1627
 7407TIP3   OH243635   1.939   2.448  11.658  0.5811 -0.5902  0.1460
 7407TIP3    H143636   2.018   2.476  11.704  0.0512 -1.5321  1.7143
 7407TIP3    H243637   1.893   2.393  11.721  0.1859 -2.6265 -1.8069
 7408TIP3   OH243638   1.499   3.151   2.199  0.0350  0.0124  0.4247
 7408TIP3    H143639   1.537   3.114   2.120 -1.2522 -0.3589 -0.0427
 7408TIP3    H243640   1.514   3.084   2.266  2.1818  0.8193  0.8326
 7409TIP3   OH243641   0.878   0.181  15.228 -0.1303  0.0949 -0.4446
 7409TIP3    H143642   0.905   0.132  15.305 -0.5962  1.4110  0.5790
 7409TIP3    H243643   0.951   0.172  15.167  2.0171  2.1934  1.6108
 7410TIP3   OH243644   4.788   4.558   1.509 -0.0312 -0.0202 -0.3413
 7410TIP3    H143645   4.793   4.480   1.563  0.1725 -0.5761 -1.1509
 7410TIP3    H243646   4.856   4.546   1.442 -0.1523  0.7378 -0.6138
 7411TIP3   OH243647   4.034   2.175   0.124  0.0296  0.1502  0.2036
 7411TIP3    H143648   4.084   2.186   0.204 -0.3853 -0.7510  0.5877
 7411TIP3    H243649   3.946   2.207   0.146 -0.5073 -1.5101  0.5873
 7412TIP3   OH243650   6.479   3.126  14.807 -0.1525  1.0801 -0.0833
 7412TIP3    H143651   6.525   3.120  14.723 -0.4276  2.0895 -0.3221
 7412TIP3    H243652   6.396   3.080  14.792 -0.0322  0.9127 -0.2409
 7413TIP3   OH243653   1.783   5.394   0.037 -0.2780  0.6858  0.3824
 7413TIP3    H143654   1.692   5.410   0.012 -0.3550  1.3917  1.0961
 7413TIP3    H243655   1.829   5.475   0.014 -0.1663  0.9791  1.6078
 7414TIP3   OH243656   5.163   1.740  11.952 -0.6136  0.2903 -0.2072
 7414TIP3    H143657   5.221   1.801  11.908  0.0765 -0.0407  0.2251
 7414TIP3    H243658   5.205   1.654  11.939 -1.3899 -0.0526 -0.5226
 7415TIP3   OH243659   1.511   0.264  13.332  0.2371  0.2637  0.1090
 7415TIP3    H143660   1.496   0.295  13.243  0.0002  2.9767  0.9779
 7415TIP3    H243661   1.467   0.329  13.388 -0.9642 -2.1489  2.2154
 7416TIP3   OH243662   6.672   3.845   0.376  0.2169 -0.3623 -0.1025
 7416TIP3    H143663   6.758   3.817   0.408 -0.8637 -2.3404  1.2437
 7416TIP3    H243664   6.611   3.816   0.444 -1.4848  1.5176 -0.7468
 7417TIP3   OH243665   2.248   3.806   0.785 -0.0813 -0.4998 -0.7459
 7417TIP3    H143666   2.171   3.843   0.829 -0.8883 -3.0420  0.1585
 7417TIP3    H243667   2.320   3.824   0.845 -0.3452  0.0667 -0.5906
 7418TIP3   OH243668   1.600   5.470   1.989 -0.0931 -0.3617 -0.4536
 7418TIP3    H143669   1.578   5.560   2.012 -2.0781 -0.8512 -0.1886
 7418TIP3    H243670   1.631   5.432   2.071  0.2480 -0.0664 -0.4424
 7419TIP3   OH243671   2.150   3.809   1.710 -0.1775 -0.4207 -0.1539
 7419TIP3    H143672   2.151   3.714   1.716  0.5574 -0.3680  0.8648
 7419TIP3    H243673   2.243   3.834   1.704 -0.3556  0.2262 -0.2945
 7420TIP3   OH243674   0.985   2.420  15.335  0.6539 -0.3233 -0.6133
 7420TIP3    H143675   0.913   2.456  15.387 -0.6924 -2.5084 -0.8476
 7420TIP3    H243676   1.011   2.492  15.277 -2.1408  0.2098 -1.3347
 7421TIP3   OH243677   5.770   3.311  15.901 -0.2878  0.2010  0.0659
 7421TIP3    H143678   5.865   3.307  15.895 -0.2981 -1.0106  0.3206
 7421TIP3    H243679   5.742   3.220  15.887 -1.4086  0.5605 -0.0903
 7422TIP3   OH243680   2.673   3.330  11.788  0.4079  0.0247  0.4315
 7422TIP3    H143681   2.600   3.319  11.727  0.0962  2.0328  0.3854
 7422TIP3    H243682   2.740   3.375  11.737 -0.1685  2.4944  1.7079
 7423TIP3   OH243683   1.531   3.667  13.935 -0.0334 -0.0843  0.5687
 7423TIP3    H143684   1.532   3.718  13.854 -0.2817 -0.8561  0.0624
 7423TIP3    H243685   1.621   3.668  13.966 -0.2569  1.7117  1.2648
 7424TIP3   OH243686   1.639   3.834   0.771  0.3745  0.2243  0.0826
 7424TIP3    H143687   1.590   3.771   0.824 -0.3482  0.4807 -0.2619
 7424TIP3    H243688   1.645   3.912   0.825  1.3547 -0.1620  0.5476
 7425TIP3   OH243689   1.467   5.504   3.920  0.5533  0.1261 -0.3448
 7425TIP3    H143690   1.423   5.438   3.973  0.3836  1.0315  0.6873
 7425TIP3    H243691   1.520   5.553   3.982 -0.2357  1.7144 -0.8536
 7426TIP3   OH243692   2.039   2.660  16.306 -0.0020 -0.2204  0.5654
 7426TIP3    H143693   1.956   2.617  16.328  0.7400 -1.6781  0.6285
 7426TIP3    H243694   2.018   2.753  16.304 -1.3190 -0.4519  2.0158
 7427TIP3   OH243695   0.258   4.076   3.397 -0.0156  0.2375  0.1274
 7427TIP3    H143696   0.338   4.049   3.442 -0.5782  0.3740  1.2429
 7427TIP3    H243697   0.189   4.022   3.435 -1.0115  2.4887  1.7501
 7428TIP3   OH243698   2.338   5.620  16.016 -0.0102  0.8180  0.4816
 7428TIP3    H143699   2.352   5.561  15.943 -0.6471  0.1650  0.8766
 7428TIP3    H243700   2.374   5.574  16.092  0.3414  1.3433  0.6405
 7429TIP3   OH243701   1.005   1.202   6.295 -0.0115  0.3477  0.6234
 7429TIP3    H143702   0.992   1.296   6.280 -0.3081  0.1179 -0.6515
 7429TIP3    H243703   1.034   1.197   6.386  0.2698  1.6985  0.6396
 7430TIP3   OH243704   6.152   0.655  15.842 -0.4267 -0.4140 -0.4323
 7430TIP3    H143705   6.184   0.590  15.780  0.9339 -0.6738  0.4887
 7430TIP3    H243706   6.083   0.702  15.795  0.4153 -0.7353 -2.0527
 7431TIP3   OH243707   0.978   1.166  16.489  0.0530 -0.1648 -0.4262
 7431TIP3    H143708   0.959   1.074  16.509  0.0679  0.4122  2.7978
 7431TIP3    H243709   1.073   1.173  16.492  0.0380  0.0063 -0.2811
 7432TIP3   OH243710   6.252   0.435   2.819  0.2044  0.0724 -0.1560
 7432TIP3    H143711   6.320   0.465   2.879  0.6894 -2.2068  0.5115
 7432TIP3    H243712   6.254   0.340   2.825 -2.5352 -0.1051 -0.7244
 7433TIP3   OH243713   6.089   4.858   4.113  0.5049 -1.0196  0.2611
 7433TIP3    H143714   6.110   4.931   4.171 -0.3805 -1.2476  0.9011
 7433TIP3    H243715   6.022   4.893   4.054  0.0984 -1.3025  0.5520
 7434TIP3   OH243716   6.330   0.436  10.529  0.4746 -0.3345  0.1726
 7434TIP3    H143717   6.347   0.455  10.621  0.7330  2.0811 -0.3062
 7434TIP3    H243718   6.414   0.450  10.485 -0.2710  1.4445 -0.7862
 7435TIP3   OH243719   5.722   3.681  13.437  0.0983 -0.6084 -0.1450
 7435TIP3    H143720   5.773   3.747  13.484  0.6622  0.6675 -2.3708
 7435TIP3    H243721   5.728   3.708  13.345  0.9289 -4.1416 -1.2832
 7436TIP3   OH243722   4.613   0.073  14.813 -0.1956  0.7632  0.3602
 7436TIP3    H143723   4.654   0.117  14.887  1.6421 -1.2542  0.6289
 7436TIP3    H243724   4.634   0.127  14.737  0.1565  1.4656  0.9533
 7437TIP3   OH243725   2.346   5.159   2.916 -0.6154 -0.3629 -0.1115
 7437TIP3    H143726   2.277   5.180   2.853 -1.5315 -1.0970  0.6196
 7437TIP3    H243727   2.360   5.065   2.905  1.0326 -0.0545 -0.9742
 7438TIP3   OH243728   0.590   2.728   1.405 -0.1969  0.1533 -0.6367
 7438TIP3    H143729   0.555   2.800   1.354  0.3249  0.2850 -0.8105
 7438TIP3    H243730   0.573   2.650   1.352 -0.4697  0.1819 -0.5937
 7439TIP3   OH243731   6.652   4.607   2.951  0.1218 -0.0991  0.1801
 7439TIP3    H143732   6.654   4.702   2.951  1.8954 -0.1040  0.2044
 7439TIP3    H243733   6.713   4.581   3.021  1.4060 -1.2141 -1.2554
 7440TIP3   OH243734   0.218   6.154  11.512  0.3142  0.9969 -0.1883
 7440TIP3    H143735   0.132   6.162  11.552  0.2828 -0.4243  0.0904
 7440TIP3    H243736   0.210   6.197  11.427 -0.5675  1.1820 -0.0137
 7441TIP3   OH243737   2.655   5.415  17.093 -0.4731 -0.4598 -0.4142
 7441TIP3    H143738   2.627   5.340  17.041 -1.6040 -2.4620  2.7342
 7441TIP3    H243739   2.717   5.378  17.156 -2.7788  0.6012  2.7331
 7442TIP3   OH243740   1.543   3.041  11.577  0.4459  0.2445  0.6444
 7442TIP3    H143741   1.564   2.976  11.645  3.5212  1.5181  1.1096
 7442TIP3    H243742   1.514   2.990  11.502  0.3291 -1.4701  1.8093
 7443TIP3   OH243743   5.915   2.754  11.219 -0.1770 -0.3204 -0.0208
 7443TIP3    H143744   5.830   2.712  11.229 -0.6021  0.6462  0.5695
 7443TIP3    H243745   5.915   2.787  11.129 -0.8692  0.6048  0.3082
 7444TIP3   OH243746   0.183   2.706   0.008  0.5430 -0.1865  0.1157
 7444TIP3    H143747   0.172   2.761   0.086 -1.4694  0.9532 -0.8855
 7444TIP3    H243748   0.248   2.752  -0.045 -0.4162  0.7600 -0.2732
 7445TIP3   OH243749   0.014   6.066   1.621 -0.6935  0.2616  0.4183
 7445TIP3    H143750   0.010   6.037   1.712 -0.0263 -0.9155  0.0995
 7445TIP3    H243751  -0.075   6.050   1.587 -0.3944 -1.3268  0.3028
 7446TIP3   OH243752   4.720   2.052  13.420  0.4358 -0.4322  0.1391
 7446TIP3    H143753   4.708   2.001  13.500  1.8164 -0.8067  0.1341
 7446TIP3    H243754   4.795   2.011  13.377  1.1811  1.2028 -0.1898
 7447TIP3   OH243755   5.178   5.306   5.643  0.2631 -0.3857  0.2028
 7447TIP3    H143756   5.228   5.283   5.565 -2.3666 -0.7225 -1.5422
 7447TIP3    H243757   5.115   5.372   5.612  1.4370  2.2586  2.9366
 7448TIP3   OH243758   2.042   6.747  13.366 -0.4704  0.3744  0.1727
 7448TIP3    H143759   2.095   6.669  13.352 -0.2454  0.8330 -1.9589
 7448TIP3    H243760   2.004   6.766  13.280  0.1653  3.0786  0.3969
 7449TIP3   OH243761   5.644   0.866  12.867 -0.4182  0.2836  0.0537
 7449TIP3    H143762   5.599   0.916  12.800 -0.5154  0.4933  0.2749
 7449TIP3    H243763   5.714   0.821  12.820 -1.5713 -0.9874 -0.5101
 7450TIP3   OH243764   1.385   4.536  15.546  0.5024 -0.1506  0.2940
 7450TIP3    H143765   1.416   4.455  15.507  0.4881  0.0222 -0.0864
 7450TIP3    H243766   1.380   4.598  15.472 -0.7295 -0.1660  0.3282
 7451TIP3   OH243767   5.129   0.380  13.755  0.6666 -0.2584  0.1437
 7451TIP3    H143768   5.073   0.452  13.724 -0.7780 -1.4060  0.0122
 7451TIP3    H243769   5.094   0.357  13.841  0.0625 -1.8931 -0.5204
 7452TIP3   OH243770   1.644   6.587  11.875  0.4587  0.0644 -0.0290
 7452TIP3    H143771   1.668   6.593  11.782  0.6790 -0.2910  0.0016
 7452TIP3    H243772   1.713   6.635  11.920 -0.4842  1.5988 -0.1579
 7453TIP3   OH243773   4.769   2.206   2.403  0.4948  0.3184 -0.0509
 7453TIP3    H143774   4.837   2.162   2.353  1.1472 -0.0533  1.1051
 7453TIP3    H243775   4.688   2.185   2.358  1.2094  1.6564 -2.0838
 7454TIP3   OH243776   4.524   5.634   2.072 -0.0102  0.6088 -0.6311
 7454TIP3    H143777   4.545   5.547   2.105 -2.7512 -0.0534 -0.4215
 7454TIP3    H243778   4.586   5.648   2.000 -0.3276 -2.0719 -1.5450
 7455TIP3   OH243779   5.075   4.246   2.041  0.1187  0.1045 -0.5536
 7455TIP3    H143780   4.987   4.283   2.050 -0.4471 -1.0382 -1.1081
 7455TIP3    H243781   5.076   4.174   2.105  1.1131  0.8975  0.3550
 7456TIP3   OH243782   1.651   3.920   3.588  1.4339 -0.4846  0.2868
 7456TIP3    H143783   1.601   3.864   3.648 -1.7332  2.1680  0.3768
 7456TIP3    H243784   1.663   4.002   3.636  2.9050  0.1320 -1.0693
 7457TIP3   OH243785   4.989   2.422  12.126  0.0371  0.4060 -0.0938
 7457TIP3    H143786   5.071   2.444  12.083 -0.1854 -0.0842 -0.8068
 7457TIP3    H243787   4.923   2.474  12.080 -0.1717  0.0672 -0.1858
 7458TIP3   OH243788   1.108   2.972   1.021 -0.3589  0.5571  0.1649
 7458TIP3    H143789   1.016   2.994   1.008 -0.0594  1.5216 -0.4092
 7458TIP3    H243790   1.155   3.054   1.008  0.6480 -0.0711 -0.2976
 7459TIP3   OH243791   3.241   3.299  16.757  0.0365  0.0472 -0.0499
 7459TIP3    H143792   3.239   3.237  16.830  0.4740  0.4112  0.2789
 7459TIP3    H243793   3.262   3.245  16.681  0.8977 -0.1579  0.3112
 7460TIP3   OH243794   6.059   2.102   4.699 -0.0206 -0.1605  0.2128
 7460TIP3    H143795   5.974   2.071   4.667  0.0336  0.1455 -0.2248
 7460TIP3    H243796   6.073   2.185   4.654 -0.6871  1.1123  2.2061
 7461TIP3   OH243797   4.694   1.196   2.245 -0.2539 -0.1422 -0.0689
 7461TIP3    H143798   4.601   1.199   2.226 -0.4311  0.9413  0.8149
 7461TIP3    H243799   4.737   1.222   2.163 -0.8579  1.7538  0.1669
 7462TIP3   OH243800   2.009   1.272  14.869 -0.5681  0.1415  0.7637
 7462TIP3    H143801   2.080   1.336  14.870 -2.8031  2.8258  0.9023
 7462TIP3    H243802   1.968   1.284  14.783 -0.7207 -1.5807  0.5574
 7463TIP3   OH243803   1.809   0.884  11.334 -0.1258  0.2059  0.2001
 7463TIP3    H143804   1.794   0.885  11.428 -0.6611 -3.4419  0.3128
 7463TIP3    H243805   1.902   0.903  11.324  0.2161 -0.6178  1.5873
 7464TIP3   OH243806   3.104   5.133   6.458  0.1740  0.1781  0.1971
 7464TIP3    H143807   3.200   5.139   6.457  0.1446  0.6925 -0.4774
 7464TIP3    H243808   3.074   5.221   6.436 -0.4829  0.2636  1.3450
 7465TIP3   OH243809   3.012   3.315  11.210  0.5819 -0.1827  0.0476
 7465TIP3    H143810   2.945   3.382  11.215 -0.5089 -1.1534 -1.0175
 7465TIP3    H243811   3.034   3.296  11.302  1.5104  2.1515  0.3650
 7466TIP3   OH243812   6.054   4.719  11.131  1.0654 -0.3730 -0.7975
 7466TIP3    H143813   5.991   4.767  11.077 -0.2723 -1.7906 -0.5530
 7466TIP3    H243814   6.128   4.704  11.072  0.7141  0.3518 -1.4419
 7467TIP3   OH243815   5.635   6.249  10.695 -0.0808 -0.3181  0.6120
 7467TIP3    H143816   5.631   6.165  10.650  0.8119 -0.7749  1.3338
 7467TIP3    H243817   5.703   6.298  10.649  0.3729 -0.5356  1.0357
 7468TIP3   OH243818   6.058   2.494  13.013  0.7531  0.3132  0.9309
 7468TIP3    H143819   6.089   2.446  13.090 -0.6785  0.0084  1.3434
 7468TIP3    H243820   6.094   2.582  13.024  0.8085  0.1959  1.8046
 7469TIP3   OH243821   6.504   6.523   4.220  0.0065  0.6904  0.8111
 7469TIP3    H143822   6.543   6.556   4.301  1.3536  0.9532  0.0757
 7469TIP3    H243823   6.501   6.428   4.232 -2.2517  0.8558  2.2085
 7470TIP3   OH243824   4.758   5.272  13.621 -0.2200 -0.3621 -0.3969
 7470TIP3    H143825   4.826   5.334  13.646 -1.1014 -0.3202  2.2289
 7470TIP3    H243826   4.785   5.189  13.660 -1.5851 -0.3505  0.6761
 7471TIP3   OH243827   0.804   3.378  16.669 -0.5016 -0.7670  0.4314
 7471TIP3    H143828   0.747   3.437  16.719  0.1631 -0.0203  0.3139
 7471TIP3    H243829   0.752   3.354  16.592 -0.1653  1.0164 -0.3934
 7472TIP3   OH243830   0.851   6.593   3.208  0.1116  0.8094 -0.4214
 7472TIP3    H143831   0.872   6.540   3.130  1.3550 -0.7209  0.8908
 7472TIP3    H243832   0.876   6.538   3.282  1.7440  3.3147  1.0487
 7473TIP3   OH243833   6.213   3.116  11.349  0.0147 -0.0043 -0.0436
 7473TIP3    H143834   6.285   3.130  11.412  0.4342 -0.7393 -0.3462
 7473TIP3    H243835   6.205   3.199  11.303  0.4148  0.2108  0.2674
 7474TIP3   OH243836   0.281   2.549  15.419 -0.0222 -0.1831  0.5725
 7474TIP3    H143837   0.252   2.633  15.384 -0.1666 -0.2236  0.5921
 7474TIP3    H243838   0.293   2.494  15.342  1.8984  0.4045  0.4072
 7475TIP3   OH243839   5.907   5.764   6.738  0.0543  0.0080  0.2942
 7475TIP3    H143840   5.888   5.849   6.699 -1.0227 -0.0797  0.5671
 7475TIP3    H243841   5.994   5.741   6.706 -0.3595  0.4091 -1.1948
 7476TIP3   OH243842   2.490   4.530  16.008  0.7358  0.1868 -0.3539
 7476TIP3    H143843   2.480   4.499  16.098 -2.4519  1.3793 -0.1719
 7476TIP3    H243844   2.513   4.623  16.016  1.5768  0.0308 -0.8069
 7477TIP3   OH243845   3.394   5.342   2.194 -0.1301 -0.0762 -0.1011
 7477TIP3    H143846   3.406   5.303   2.281 -1.0308  1.2443  0.6519
 7477TIP3    H243847   3.375   5.434   2.211  3.0113  1.0603 -1.8362
 7478TIP3   OH243848   1.053   5.606  12.231 -0.3509 -0.5723 -0.3691
 7478TIP3    H143849   1.034   5.569  12.317  2.2177 -0.0141  0.5402
 7478TIP3    H243850   1.145   5.582  12.215 -0.4341  0.2980 -2.4461
 7479TIP3   OH243851   6.005   1.581   3.203 -0.0568 -0.0157  0.3972
 7479TIP3    H143852   5.998   1.497   3.248  0.1287  0.1801  0.7943
 7479TIP3    H243853   5.925   1.587   3.150 -0.0512 -0.4580  0.3364
 7480TIP3   OH243854   0.526   5.731   2.322 -0.9603 -0.6236  0.4734
 7480TIP3    H143855   0.435   5.754   2.304 -0.1996  0.6675 -2.3238
 7480TIP3    H243856   0.559   5.804   2.375 -0.9885  0.1814 -0.5640
 7481TIP3   OH243857   6.046   5.105  16.510 -0.3588  0.5198  0.1295
 7481TIP3    H143858   5.973   5.044  16.517  0.4853 -0.4994  0.1697
 7481TIP3    H243859   6.023   5.176  16.570 -0.0536 -1.1071  2.2692
 7482TIP3   OH243860   3.670   1.820  11.242  0.1425 -0.0891  0.0744
 7482TIP3    H143861   3.674   1.837  11.148  0.3684 -1.6475 -0.2128
 7482TIP3    H243862   3.576   1.817  11.262  0.0769 -1.2243 -0.3881
 7483TIP3   OH243863   5.278   6.773   5.681  0.2855 -0.2580 -0.1249
 7483TIP3    H143864   5.292   6.862   5.712  1.0520 -0.0879 -0.9475
 7483TIP3    H243865   5.348   6.757   5.619 -0.3547 -1.1254 -0.6530
 7484TIP3   OH243866   6.359   2.439   6.077  0.2332 -0.1582 -0.3863
 7484TIP3    H143867   6.289   2.501   6.099 -0.3364 -0.8269 -0.2745
 7484TIP3    H243868   6.341   2.362   6.131  1.6703  0.0431  0.4330
 7485TIP3   OH243869   2.418   3.152  16.844  0.7952  0.6891 -0.3110
 7485TIP3    H143870   2.502   3.113  16.866  0.1482 -0.2997  0.5251
 7485TIP3    H243871   2.432   3.246  16.851  1.3931  0.5062  1.6036
 7486TIP3   OH243872   5.336   5.254   5.410  0.6172 -0.9175  0.3543
 7486TIP3    H143873   5.376   5.311   5.344 -1.2228 -0.3623 -0.3400
 7486TIP3    H243874   5.375   5.168   5.394  1.5341 -0.4073 -0.2612
 7487TIP3   OH243875   0.215   0.145   5.497 -0.0652 -0.1015  0.8437
 7487TIP3    H143876   0.152   0.217   5.504 -0.0703 -0.0056  0.0235
 7487TIP3    H243877   0.161   0.067   5.486 -0.0597  0.0660 -0.5566
 7488TIP3   OH243878   6.763   3.583   3.031  0.3590  0.3846 -0.1358
 7488TIP3    H143879   6.690   3.557   3.087  1.0511  1.5830  1.3914
 7488TIP3    H243880   6.755   3.678   3.023  1.1044  0.4006 -0.9007
 7489TIP3   OH243881   5.855   0.559  15.799  0.2750 -0.0344  0.5458
 7489TIP3    H143882   5.801   0.537  15.875 -0.2586  0.1733  0.2331
 7489TIP3    H243883   5.865   0.476  15.753  0.3939 -0.1136  0.7133
 7490TIP3   OH243884   0.403   3.458  11.803  0.1657 -0.0301  0.0852
 7490TIP3    H143885   0.458   3.432  11.729  0.0805  0.3353 -0.1092
 7490TIP3    H243886   0.417   3.389  11.868  2.8768  1.3248  1.1093
 7491TIP3   OH243887   0.296   6.264  11.980 -0.1611 -0.4435  0.3078
 7491TIP3    H143888   0.201   6.257  11.973 -0.4454  1.7866  1.1381
 7491TIP3    H243889   0.325   6.285  11.891 -1.0772  3.7123  0.7860
 7492TIP3   OH243890   6.603   0.546   1.548  0.0655  0.1790 -0.3798
 7492TIP3    H143891   6.626   0.599   1.472  0.9231  0.0413 -0.2248
 7492TIP3    H243892   6.633   0.458   1.527 -0.7193 -0.1084 -0.3430
 7493TIP3   OH243893   1.314   2.163   6.320  0.2900 -0.2945  0.3738
 7493TIP3    H143894   1.244   2.100   6.340 -0.4525 -0.1568 -1.5439
 7493TIP3    H243895   1.276   2.248   6.343  0.1182 -0.2900  0.0803
 7494TIP3   OH243896   2.017   5.184  13.846  0.2008  0.3003 -0.5485
 7494TIP3    H143897   1.957   5.139  13.906 -0.4427  1.0160 -0.6415
 7494TIP3    H243898   2.036   5.119  13.778 -0.2225 -0.0311 -0.3561
 7495TIP3   OH243899   3.490   1.790  13.863  0.1478 -0.0855  0.3742
 7495TIP3    H143900   3.532   1.823  13.784 -0.7781 -1.5466 -0.7940
 7495TIP3    H243901   3.431   1.721  13.831 -0.6492 -0.3440  2.2887
 7496TIP3   OH243902   6.453   1.378   3.247  0.3822 -0.2949 -0.1354
 7496TIP3    H143903   6.426   1.413   3.332  0.1974 -0.3169 -0.1841
 7496TIP3    H243904   6.394   1.420   3.184  0.0022 -0.8791 -0.1675
 7497TIP3   OH243905   5.207   1.113  11.260  0.4671  0.0281 -0.1289
 7497TIP3    H143906   5.135   1.058  11.290  0.9496 -0.0382  0.9430
 7497TIP3    H243907   5.259   1.130  11.338  0.9869  1.0264 -0.6680
 7498TIP3   OH243908   0.459   5.151  14.866  0.6463  0.0261 -0.5180
 7498TIP3    H143909   0.467   5.245  14.851 -1.4124  0.1419 -1.2288
 7498TIP3    H243910   0.367   5.138  14.890  0.9008 -1.7963 -0.3638
 7499TIP3   OH243911   2.481   4.807  13.269  0.2126 -0.2432 -0.2338
 7499TIP3    H143912   2.426   4.879  13.301 -0.8119 -0.7455 -0.8073
 7499TIP3    H243913   2.464   4.804  13.175  0.8239 -0.7570 -0.3355
 7500TIP3   OH243914   4.758   1.273   1.048 -0.1623 -0.4326 -0.1980
 7500TIP3    H143915   4.679   1.264   1.102  0.3018 -1.0377  0.3970
 7500TIP3    H243916   4.818   1.324   1.103  0.2733 -0.9564 -0.1833
 7501TIP3   OH243917   1.316   4.172   1.148 -0.2112  0.5379  0.1591
 7501TIP3    H143918   1.253   4.155   1.218 -0.1590  2.0782  0.6045
 7501TIP3    H243919   1.266   4.159   1.067 -0.0160 -2.2664  0.3880
 7502TIP3   OH243920   3.924   4.209  11.427  0.2493  0.7066  0.2117
 7502TIP3    H143921   3.951   4.132  11.478 -0.5584  0.2033 -0.1089
 7502TIP3    H243922   3.902   4.174  11.341  1.4101  1.5266 -0.4510
 7503TIP3   OH243923   0.843   5.466   1.670  0.7482 -0.1994 -0.1533
 7503TIP3    H143924   0.876   5.438   1.755  0.5187  1.7965  0.6352
 7503TIP3    H243925   0.785   5.395   1.642  1.1452 -1.0697  1.1607
 7504TIP3   OH243926   3.933   2.819   2.450  0.1424  0.1943 -0.1813
 7504TIP3    H143927   3.999   2.827   2.518  0.2622  2.0097 -0.4429
 7504TIP3    H243928   3.921   2.909   2.418 -1.9999 -0.1736 -0.5601
 7505TIP3   OH243929   0.440   6.601   1.072 -0.4241 -0.1780  0.3689
 7505TIP3    H143930   0.355   6.564   1.048 -0.1689 -0.8420  0.4935
 7505TIP3    H243931   0.504   6.547   1.026 -0.0758  0.4680  0.0856
 7506TIP3   OH243932   0.091   2.622   0.364 -0.1862 -0.4029  0.1144
 7506TIP3    H143933   0.041   2.558   0.313  1.8992 -0.7823 -1.6082
 7506TIP3    H243934   0.145   2.568   0.423 -0.4489 -0.0787  0.6613
 7507TIP3   OH243935   6.740   3.420   3.927 -0.0306 -0.1742  0.2862
 7507TIP3    H143936   6.658   3.415   3.976 -0.3691  0.9580 -0.1293
 7507TIP3    H243937   6.744   3.511   3.897  1.8392  0.0320  1.0675
 7508TIP3   OH243938   2.859   5.903  17.093 -0.4535 -0.1032 -0.1633
 7508TIP3    H143939   2.809   5.913  17.174 -0.8673  1.2546 -0.5531
 7508TIP3    H243940   2.829   5.819  17.057 -0.2427 -0.7368  1.0828
 7509TIP3   OH243941   4.498   3.652   3.406 -0.0204  0.1967 -0.3688
 7509TIP3    H143942   4.461   3.611   3.484 -0.7338 -1.1267 -1.3415
 7509TIP3    H243943   4.462   3.740   3.404 -1.3891 -0.3375 -0.1060
 7510TIP3   OH243944   2.073   2.098   4.951 -0.1169  0.0958 -0.0667
 7510TIP3    H143945   2.108   2.105   5.040  0.9746 -3.0574 -0.1342
 7510TIP3    H243946   2.021   2.018   4.952  0.2237 -0.2137 -2.3614
 7511TIP3   OH243947   3.038   6.269   1.082 -0.2511 -0.0163  0.0935
 7511TIP3    H143948   3.113   6.329   1.080 -1.1741  1.1832 -0.0280
 7511TIP3    H243949   2.989   6.290   1.002 -2.2377  1.2954  1.5438
 7512TIP3   OH243950   6.238   6.368  16.847 -0.5091  0.1564 -0.2691
 7512TIP3    H143951   6.309   6.304  16.850 -1.0081 -0.5296 -1.8736
 7512TIP3    H243952   6.280   6.452  16.868  0.8465 -0.1844 -1.4682
 7513TIP3   OH243953   2.518   1.446  16.890 -0.5779  0.2192 -0.3311
 7513TIP3    H143954   2.551   1.487  16.810 -2.7339  2.0240 -0.3637
 7513TIP3    H243955   2.426   1.428  16.872 -1.2287  1.0466  1.8840
 7514TIP3   OH243956   6.108   6.424  12.423 -0.1954 -0.0028 -0.3027
 7514TIP3    H143957   6.045   6.353  12.434 -0.7256  0.2727 -1.3580
 7514TIP3    H243958   6.133   6.420  12.330 -0.4595  1.3517 -0.4594
 7515TIP3   OH243959   1.619   5.820  13.005  0.7324 -0.1403 -0.3269
 7515TIP3    H143960   1.526   5.805  12.988 -0.3769  2.3823  2.6055
 7515TIP3    H243961   1.644   5.890  12.944  0.1385  0.5117  0.1603
 7516TIP3   OH243962   1.721   3.154  17.042  0.1694 -0.1159 -0.1788
 7516TIP3    H143963   1.742   3.211  16.968 -1.9699  0.3062 -0.5357
 7516TIP3    H243964   1.728   3.211  17.118  0.3998 -0.0021 -0.2852
 7517TIP3   OH243965   0.454   5.793   3.056 -0.0459  0.0960  0.2149
 7517TIP3    H143966   0.451   5.735   3.132  0.9726  0.2324  0.3786
 7517TIP3    H243967   0.488   5.737   2.985 -1.6539 -0.2236 -0.3493
 7518TIP3   OH243968   5.859   0.071   2.484  0.0237 -0.0444 -0.4626
 7518TIP3    H143969   5.781   0.046   2.534  0.4668  2.2342  1.5450
 7518TIP3    H243970   5.854   0.166   2.478  2.7095  0.1888 -0.1369
 7519TIP3   OH243971   5.451   2.193   3.985 -0.4925 -0.1373 -0.5669
 7519TIP3    H143972   5.450   2.151   3.899  0.9086  0.4110 -0.8694
 7519TIP3    H243973   5.418   2.126   4.045 -1.1168 -0.6512 -1.4568
 7520TIP3   OH243974   4.489   2.264  16.515  0.2580  0.3452 -0.2243
 7520TIP3    H143975   4.421   2.270  16.582  0.2625  1.0425 -0.2778
 7520TIP3    H243976   4.467   2.332  16.452 -0.3955 -1.0359 -1.5489
 7521TIP3   OH243977   4.621   3.403  15.064 -0.2506  0.0950 -0.1723
 7521TIP3    H143978   4.624   3.351  15.144 -0.5746  1.3398  0.6859
 7521TIP3    H243979   4.686   3.472  15.078 -0.8573  0.7774 -0.6397
 7522TIP3   OH243980   3.720   0.941   3.484 -0.3970 -0.1355  0.0455
 7522TIP3    H143981   3.810   0.941   3.516  0.2123  4.7954 -0.8773
 7522TIP3    H243982   3.728   0.943   3.389 -1.3122  1.6291 -0.0466
 7523TIP3   OH243983   5.741   6.469  13.719  0.7695  0.3575 -0.3039
 7523TIP3    H143984   5.735   6.541  13.783  1.6953  0.5697 -0.4389
 7523TIP3    H243985   5.826   6.428  13.738 -0.5776 -2.0052  1.1167
 7524TIP3   OH243986   5.850   1.405  15.763 -0.3243 -0.1062 -0.6782
 7524TIP3    H143987   5.804   1.483  15.791  0.3494 -0.3859  1.3840
 7524TIP3    H243988   5.782   1.349  15.726 -1.4070  0.0950  0.9053
 7525TIP3   OH243989   4.753   1.591   6.269  0.0573 -0.2950 -0.2036
 7525TIP3    H143990   4.752   1.669   6.325 -2.1692  0.0587 -0.6517
 7525TIP3    H243991   4.811   1.615   6.196 -1.1514  1.2654 -0.7046
 7526TIP3   OH243992   1.237   3.476   1.608 -0.8799  0.2354 -0.2446
 7526TIP3    H143993   1.205   3.566   1.617 -1.0201  0.3861 -1.9455
 7526TIP3    H243994   1.301   3.466   1.678 -1.7597  1.2369  0.7416
 7527TIP3   OH243995   4.818   0.644  15.734 -0.4144 -0.2271  0.5856
 7527TIP3    H143996   4.886   0.630  15.668 -1.0532  0.5736 -0.2691
 7527TIP3    H243997   4.773   0.560  15.740  2.2476 -1.6592  3.1327
 7528TIP3   OH243998   5.678   2.308  10.602  0.2667 -0.5216 -0.7430
 7528TIP3    H143999   5.607   2.258  10.642  0.1544  0.1609 -0.0784
 7528TIP3    H244000   5.639   2.392  10.578  1.1096  0.3239  0.7234
 7529TIP3   OH244001   2.501   5.362   2.774  0.3276 -0.1930  0.1554
 7529TIP3    H144002   2.480   5.291   2.835  0.3247 -0.3257  0.0009
 7529TIP3    H244003   2.525   5.317   2.693 -1.5111  0.0300 -0.5458
 7530TIP3   OH244004   2.546   3.284   3.229 -0.1147 -0.6971  0.1337
 7530TIP3    H144005   2.601   3.280   3.307  0.7805  0.3879 -0.4131
 7530TIP3    H244006   2.602   3.322   3.162 -1.1441 -0.7752 -0.8073
 7531TIP3   OH244007   2.332   0.700  16.586 -0.1227 -0.3074  0.0029
 7531TIP3    H144008   2.343   0.790  16.553  0.3872  0.8053  2.9542
 7531TIP3    H244009   2.245   0.674  16.555 -0.3039  1.1925 -0.8677
 7532TIP3   OH244010   2.020   2.798   1.836 -0.0549  0.8171  0.1080
 7532TIP3    H144011   2.016   2.739   1.911 -0.2666 -1.6570 -1.7150
 7532TIP3    H244012   2.114   2.809   1.819 -0.0021  1.5709  0.8404
 7533TIP3   OH244013   1.522   3.307  11.484 -0.0249 -0.0368 -0.5971
 7533TIP3    H144014   1.566   3.314  11.399 -0.4250 -0.5926 -0.8591
 7533TIP3    H244015   1.555   3.224  11.520 -0.6547 -0.3273 -0.6818
 7534TIP3   OH244016   3.229   5.390  14.050 -0.2380  0.4426 -0.1114
 7534TIP3    H144017   3.185   5.376  14.134 -0.7700 -0.3620 -0.5136
 7534TIP3    H244018   3.295   5.457  14.069 -0.5277  0.4687  0.8832
 7535TIP3   OH244019   0.976   1.845   3.392 -0.2078 -0.3234 -0.0683
 7535TIP3    H144020   0.971   1.927   3.343 -0.4433  0.4628  1.2074
 7535TIP3    H244021   1.052   1.855   3.449  0.6784 -1.6372 -0.9680
 7536TIP3   OH244022   5.840   5.519  14.190  0.2287  0.5478 -0.1594
 7536TIP3    H144023   5.900   5.463  14.241 -0.7733 -0.8668 -0.4662
 7536TIP3    H244024   5.755   5.477  14.200 -0.1882  0.8462 -2.1369
 7537TIP3   OH244025   3.689   5.172  13.692 -0.1659  0.1093  0.3237
 7537TIP3    H144026   3.623   5.129  13.746 -0.0158  0.0495  0.4575
 7537TIP3    H244027   3.771   5.127  13.711 -0.1966 -0.2304 -0.3116
 7538TIP3   OH244028   6.609   5.929   6.133  0.1188  0.1433  0.3271
 7538TIP3    H144029   6.535   5.868   6.138 -1.0177  1.4758  0.4544
 7538TIP3    H244030   6.636   5.942   6.224 -0.5821  0.8881  0.4494
 7539TIP3   OH244031   1.931   2.487  15.829  0.2800  0.6583 -0.7429
 7539TIP3    H144032   1.954   2.530  15.747  1.6636 -0.1949 -0.8224
 7539TIP3    H244033   1.994   2.416  15.838  0.8808  1.3784  1.5927
 7540TIP3   OH244034   5.233   5.753   0.313  0.1512 -0.1153 -0.0093
 7540TIP3    H144035   5.148   5.780   0.279 -0.1588 -0.9378  0.1002
 7540TIP3    H244036   5.253   5.818   0.380  0.0606  0.6355 -0.6824
 7541TIP3   OH244037   1.278   6.768  15.496  0.1927 -0.1772  0.6553
 7541TIP3    H144038   1.285   6.860  15.519  1.0676 -0.1252  0.2124
 7541TIP3    H244039   1.363   6.746  15.458  0.8775 -1.7762  2.9307
 7542TIP3   OH244040   6.213   0.918  12.240  0.0627 -0.1490  0.0421
 7542TIP3    H144041   6.184   0.899  12.329 -0.4197  0.1275 -0.0549
 7542TIP3    H244042   6.133   0.922  12.189  0.2877  0.4183 -0.2676
 7543TIP3   OH244043   3.648   2.275   0.830  0.7324 -0.4468  0.3139
 7543TIP3    H144044   3.630   2.305   0.919 -0.4445  0.8297 -0.3147
 7543TIP3    H244045   3.584   2.321   0.776  0.1456 -2.6158 -0.9923
 7544TIP3   OH244046   4.389   3.502   3.145 -0.2626  0.0392 -0.1971
 7544TIP3    H144047   4.376   3.538   3.233 -2.9058  0.0524 -0.5328
 7544TIP3    H244048   4.453   3.432   3.157 -0.0167  0.5189  1.5890
 7545TIP3   OH244049   5.109   5.840   3.859 -0.2390 -0.2004 -0.0509
 7545TIP3    H144050   5.168   5.818   3.931  0.2902 -0.3946 -0.5316
 7545TIP3    H244051   5.111   5.763   3.802 -0.1794  0.1832 -0.5749
 7546TIP3   OH244052   0.455   3.664   2.933  0.2818  0.2545 -0.2649
 7546TIP3    H144053   0.363   3.641   2.946  0.2444  0.3475 -0.3556
 7546TIP3    H244054   0.494   3.586   2.893 -0.0983  0.7289 -1.6077
 7547TIP3   OH244055   2.551   6.527   3.765 -0.3455  0.3866  0.1540
 7547TIP3    H144056   2.509   6.539   3.851  0.3064  1.9063  0.2873
 7547TIP3    H244057   2.501   6.456   3.724 -1.8047  0.8267  1.0821
 7548TIP3   OH244058   4.344   5.856  17.014  0.3364  0.3306  0.2743
 7548TIP3    H144059   4.437   5.845  17.032  0.2174 -1.1663  0.0898
 7548TIP3    H244060   4.307   5.882  17.099  0.8592  0.5883  0.4321
 7549TIP3   OH244061   6.272   1.853  11.448 -0.1272  0.2999  0.3211
 7549TIP3    H144062   6.306   1.830  11.534  1.4926 -0.2616 -0.4334
 7549TIP3    H244063   6.283   1.774  11.396  0.9170  1.2355 -0.9636
 7550TIP3   OH244064   2.115   5.166   3.239 -0.3978  0.3308 -0.2486
 7550TIP3    H144065   2.060   5.187   3.315 -1.2582 -2.0064 -0.1354
 7550TIP3    H244066   2.057   5.173   3.164 -0.6193 -1.1146 -0.2416
 7551TIP3   OH244067   6.467   5.283  15.274 -0.0270  0.2376  0.5207
 7551TIP3    H144068   6.419   5.312  15.351  1.6357  1.5235  1.1327
 7551TIP3    H244069   6.552   5.254  15.308  1.1534  1.8538 -0.8817
 7552TIP3   OH244070   4.223   5.453  11.193 -0.0938  0.0644  0.2641
 7552TIP3    H144071   4.231   5.515  11.266 -1.2133 -0.3072  0.7184
 7552TIP3    H244072   4.130   5.431  11.190 -0.4955  1.6467 -2.6035
 7553TIP3   OH244073   0.903   5.933   5.800 -0.1986  0.2078  0.1135
 7553TIP3    H144074   0.824   5.941   5.853  0.0389  0.3510  0.4530
 7553TIP3    H244075   0.973   5.968   5.856 -0.1124  1.3718 -0.6767
 7554TIP3   OH244076   1.232   1.285   1.350 -0.3325 -0.7314 -0.4956
 7554TIP3    H144077   1.207   1.363   1.398 -1.3347 -0.9823 -0.5861
 7554TIP3    H244078   1.239   1.313   1.259  0.5534 -0.4793 -0.3537
 7555TIP3   OH244079   0.619   6.257  13.150 -0.6570 -0.2507  0.2687
 7555TIP3    H144080   0.668   6.335  13.125 -1.9034 -0.0799 -1.8568
 7555TIP3    H244081   0.631   6.250  13.245  1.1394  1.3459  0.2009
 7556TIP3   OH244082   5.402   5.693  15.712  0.3195 -0.1259 -0.1605
 7556TIP3    H144083   5.378   5.693  15.619 -2.1394 -0.5794  0.3980
 7556TIP3    H244084   5.469   5.625  15.719  0.8697  0.2068 -1.6386
 7557TIP3   OH244085   0.756   4.956  14.553  0.1041  0.1604  0.3924
 7557TIP3    H144086   0.719   5.019  14.615  1.4190 -0.2108  1.6152
 7557TIP3    H244087   0.747   4.998  14.467 -1.6059  0.7689  0.8306
 7558TIP3   OH244088   1.786   1.755   5.093 -0.6022  0.3539 -0.2167
 7558TIP3    H144089   1.738   1.680   5.129  0.6704 -1.3926 -1.9184
 7558TIP3    H244090   1.738   1.831   5.123 -3.2768 -1.2202 -0.2034
 7559TIP3   OH244091   6.612   5.496   2.918 -0.2252 -0.6351 -0.2361
 7559TIP3    H144092   6.540   5.452   2.873  0.7344 -1.2033 -1.2591
 7559TIP3    H244093   6.580   5.585   2.932 -0.6598 -0.5196 -1.8187
 7560TIP3   OH244094   5.317   2.397  12.575  0.0989 -0.1658  0.1094
 7560TIP3    H144095   5.320   2.438  12.661  2.5869  2.2700 -0.9656
 7560TIP3    H244096   5.268   2.460  12.521  0.4805 -0.5709 -0.7226
 7561TIP3   OH244097   3.580   4.819   2.432 -0.1780  0.0871  0.1003
 7561TIP3    H144098   3.574   4.866   2.515 -2.7856  0.2507 -0.1000
 7561TIP3    H244099   3.597   4.728   2.457 -0.2392  0.2627  0.7873
 7562TIP3   OH244100   1.635   4.093  11.805 -0.0766  0.4438 -0.1061
 7562TIP3    H144101   1.683   4.117  11.884  2.3592 -1.3549 -0.9087
 7562TIP3    H244102   1.689   4.126  11.733 -0.7917 -0.3718 -1.0435
 7563TIP3   OH244103   0.301   4.115   0.167 -0.1259  0.0425  0.6435
 7563TIP3    H144104   0.322   4.053   0.098  0.9698  1.5288 -0.4183
 7563TIP3    H244105   0.274   4.060   0.241 -0.9656 -1.6072 -0.8046
 7564TIP3   OH244106   4.266   5.644  10.998 -0.4596  0.1534  0.1082
 7564TIP3    H144107   4.299   5.607  11.080  0.3316  1.8427  0.6137
 7564TIP3    H244108   4.344   5.669  10.950 -0.9283 -0.6332 -1.1049
 7565TIP3   OH244109   4.574   5.197   0.931 -0.1740  0.1863 -0.1336
 7565TIP3    H144110   4.624   5.140   0.872 -0.5915 -0.1432 -0.1810
 7565TIP3    H244111   4.508   5.237   0.874  0.7933  1.5768 -0.3252
 7566TIP3   OH244112   4.170   1.998   4.243 -0.0795  0.6464  0.3634
 7566TIP3    H144113   4.108   1.926   4.252 -1.5216  1.3617 -2.6131
 7566TIP3    H244114   4.128   2.071   4.290 -1.2903  0.9510 -1.1047
 7567TIP3   OH244115   2.030   4.861  12.471 -0.0870 -0.3529 -0.2174
 7567TIP3    H144116   2.071   4.780  12.441  1.1968 -0.4694  1.6807
 7567TIP3    H244117   1.966   4.832  12.536 -0.2115  0.1065 -0.1298
 7568TIP3   OH244118   0.378   6.044  16.206  0.3276 -0.8548 -0.3189
 7568TIP3    H144119   0.328   6.005  16.278 -0.4467  0.3495 -0.1757
 7568TIP3    H244120   0.396   6.133  16.235  1.4222 -0.8476 -0.9517
 7569TIP3   OH244121   5.383   1.599  13.275  0.5209  0.4762  0.0394
 7569TIP3    H144122   5.415   1.628  13.189  0.6460  1.7251  0.4791
 7569TIP3    H244123   5.336   1.675  13.309 -0.4396 -0.3608  0.6425
 7570TIP3   OH244124   3.371   5.649   6.073 -0.0660 -0.0972 -0.8424
 7570TIP3    H144125   3.325   5.572   6.105 -0.9832  1.0885  0.8256
 7570TIP3    H244126   3.304   5.700   6.028 -0.4653  1.5083  1.3713
 7571TIP3   OH244127   5.535   2.882  13.823  0.7101  0.0751  0.7996
 7571TIP3    H144128   5.622   2.857  13.853  0.1669 -1.7327  0.9743
 7571TIP3    H244129   5.520   2.829  13.745  0.1720  1.1638  0.1215
 7572TIP3   OH244130   3.858   5.395  13.770 -0.3005  0.1990  0.0361
 7572TIP3    H144131   3.854   5.302  13.793  0.8451  0.0876 -0.1612
 7572TIP3    H244132   3.865   5.397  13.675  1.0248  0.4249  0.1236
 7573TIP3   OH244133   4.678   1.756   5.884  0.3040  0.0849 -0.5758
 7573TIP3    H144134   4.703   1.848   5.887  0.2812  0.0682  0.4359
 7573TIP3    H244135   4.735   1.713   5.948 -1.0751 -0.2541  0.4785
 7574TIP3   OH244136   3.277   3.779   3.635  0.2865 -0.1839  0.3597
 7574TIP3    H144137   3.216   3.755   3.565  1.5384 -2.5706 -0.0234
 7574TIP3    H244138   3.229   3.842   3.688 -2.4608 -1.7736 -0.0417
 7575TIP3   OH244139   4.976   4.175   5.111  0.2474 -0.4896 -0.0746
 7575TIP3    H144140   4.928   4.205   5.188 -1.6305 -0.2884 -1.2489
 7575TIP3    H244141   5.066   4.165   5.141 -0.2455  0.4573  1.8954
 7576TIP3   OH244142   4.693   2.335  16.863 -0.2154 -0.1943  0.4109
 7576TIP3    H144143   4.699   2.401  16.794  0.4789  0.6977  1.3005
 7576TIP3    H244144   4.617   2.360  16.914 -0.5784 -0.7076  0.1313
 7577TIP3   OH244145   5.619   2.189  11.897 -0.8726 -0.2739 -0.6676
 7577TIP3    H144146   5.615   2.238  11.979  0.2903 -0.8667 -0.2404
 7577TIP3    H244147   5.648   2.102  11.922 -2.2368 -1.0018 -1.5094
 7578TIP3   OH244148   3.099   2.776  11.737  0.0665  0.6193  0.8158
 7578TIP3    H144149   3.044   2.824  11.799 -0.6371  1.1774 -0.2062
 7578TIP3    H244150   3.073   2.809  11.651 -0.0092 -1.1650  0.1034
 7579TIP3   OH244151   6.445   1.733  14.113  0.4419 -0.2604 -0.2574
 7579TIP3    H144152   6.372   1.675  14.093  0.7150 -1.0315  0.8875
 7579TIP3    H244153   6.405   1.807  14.158  0.2070  0.0082 -0.8918
 7580TIP3   OH244154   4.303   5.562  14.948  0.3101  0.0861 -0.1328
 7580TIP3    H144155   4.342   5.568  15.035 -1.1841 -1.3149  0.6920
 7580TIP3    H244156   4.323   5.473  14.919 -0.2420  0.1388 -0.7079
 7581TIP3   OH244157   0.761   4.686  12.901 -0.2839  0.6428 -1.1280
 7581TIP3    H144158   0.853   4.703  12.924 -0.0327  0.0040 -1.6141
 7581TIP3    H244159   0.715   4.685  12.985  0.0553  1.5184 -0.9198
 7582TIP3   OH244160   3.541   4.458  12.908  0.0708 -0.9032  0.0778
 7582TIP3    H144161   3.465   4.400  12.900  0.6682 -1.9503  1.5851
 7582TIP3    H244162   3.542   4.485  12.999  0.4673  0.6168 -0.3452
 7583TIP3   OH244163   1.079   4.681  11.042 -0.6404 -0.2323  0.3219
 7583TIP3    H144164   1.003   4.636  11.079 -1.4117 -0.0172 -0.9436
 7583TIP3    H244165   1.106   4.626  10.969 -0.2122  0.2048  0.1477
 7584TIP3   OH244166   1.075   0.775  13.239  0.1569  0.0598 -0.1529
 7584TIP3    H144167   1.106   0.815  13.157 -0.6358 -0.0333 -0.5048
 7584TIP3    H244168   0.990   0.816  13.255  0.7612  0.8330  1.1826
 7585TIP3   OH244169   0.525   3.318  12.561  0.2685 -0.0212 -0.0453
 7585TIP3    H144170   0.480   3.285  12.484 -1.0279  0.5388  0.4350
 7585TIP3    H244171   0.553   3.239  12.608  1.5781 -0.3616 -1.3441
 7586TIP3   OH244172   4.400   6.204  12.781 -0.2045 -0.2355  0.0832
 7586TIP3    H144173   4.315   6.205  12.826  0.2577  0.8884  0.9994
 7586TIP3    H244174   4.379   6.219  12.689 -1.0572 -0.8005  0.1772
 7587TIP3   OH244175   0.150   4.697  14.054 -0.0730  0.4267 -0.3289
 7587TIP3    H144176   0.066   4.742  14.068 -0.9710 -1.2281 -0.0733
 7587TIP3    H244177   0.190   4.694  14.141  0.8288  2.2295 -0.6454
 7588TIP3   OH244178   5.606   6.728  17.176  0.7250 -0.1206  0.2011
 7588TIP3    H144179   5.650   6.794  17.228 -0.1021 -0.5098  1.4348
 7588TIP3    H244180   5.524   6.769  17.148  0.1350 -0.6533  1.1010
 7589TIP3   OH244181   1.111   6.013  15.803 -0.3172 -0.1144 -1.0070
 7589TIP3    H144182   1.180   6.037  15.864 -0.4287  2.1165 -1.6684
 7589TIP3    H244183   1.151   5.950  15.744  1.0434  0.8298 -1.1210
 7590TIP3   OH244184   1.081   0.454  13.943 -0.0555 -0.1165  0.2218
 7590TIP3    H144185   1.064   0.406  13.862 -1.6261  0.2194  0.3231
 7590TIP3    H244186   1.058   0.392  14.012 -1.3070  0.4671  0.3602
 7591TIP3   OH244187   2.916   2.555   4.550 -0.7967 -0.0160 -0.0615
 7591TIP3    H144188   2.885   2.502   4.477  0.3730 -1.3994  0.4142
 7591TIP3    H244189   2.957   2.493   4.610  2.3972  1.5714 -0.3783
 7592TIP3   OH244190   5.824   5.778  12.694 -0.3492 -1.1494  0.0747
 7592TIP3    H144191   5.843   5.763  12.787 -1.6900 -2.5163  0.1641
 7592TIP3    H244192   5.729   5.786  12.690 -0.2786 -0.6951 -1.1429
 7593TIP3   OH244193   2.429   2.396   0.854 -0.3437 -1.0142  0.1252
 7593TIP3    H144194   2.458   2.440   0.934  2.1118  0.1992 -1.2952
 7593TIP3    H244195   2.388   2.316   0.885 -1.3426  0.3327  2.6574
 7594TIP3   OH244196   1.154   2.897   4.894 -0.2149  0.1072  0.0141
 7594TIP3    H144197   1.086   2.893   4.827  0.5524  0.8646 -0.8398
 7594TIP3    H244198   1.160   2.990   4.918 -0.6371 -0.1759  1.3270
 7595TIP3   OH244199   4.799   2.148   3.306  0.0419  0.3163  0.2605
 7595TIP3    H144200   4.750   2.122   3.384 -1.5508  0.8397 -0.5258
 7595TIP3    H244201   4.757   2.099   3.235 -1.1217  2.7541 -0.8287
 7596TIP3   OH244202   0.010   4.902  15.426  0.1090  0.0885  0.2245
 7596TIP3    H144203  -0.034   4.818  15.418 -0.5649  0.3495  0.9765
 7596TIP3    H244204   0.103   4.881  15.425 -0.0535 -0.6709  0.4467
 7597TIP3   OH244205   5.902   5.484   4.457  0.3238  0.1504  0.2744
 7597TIP3    H144206   5.908   5.571   4.419 -0.7681  1.1124  2.1650
 7597TIP3    H244207   5.988   5.445   4.441  1.1841  1.9518  0.2850
 7598TIP3   OH244208   2.216   5.009   4.898  0.3092  0.3752 -0.1805
 7598TIP3    H144209   2.283   4.943   4.914 -0.9404 -0.8503  0.1558
 7598TIP3    H244210   2.146   4.962   4.852 -0.2010  1.6936 -0.8086
 7599TIP3   OH244211   3.485   1.459   1.985  0.0540 -0.0525 -0.2512
 7599TIP3    H144212   3.398   1.471   2.024 -1.2431  0.3720 -3.0238
 7599TIP3    H244213   3.479   1.376   1.937  1.2827 -0.1450 -0.2857
 7600TIP3   OH244214   6.191   0.556  12.867  0.1298 -0.0593  0.0241
 7600TIP3    H144215   6.264   0.582  12.923  0.7371 -1.0734 -0.2558
 7600TIP3    H244216   6.214   0.467  12.840 -1.2766 -0.4396  0.0274
 7601TIP3   OH244217   3.252   1.808  16.425 -0.5078 -0.0195  0.0505
 7601TIP3    H144218   3.246   1.869  16.351  0.2977  2.0503  1.5695
 7601TIP3    H244219   3.345   1.806  16.446 -0.7417 -0.4659  1.0693
 7602TIP3   OH244220   2.703   5.119   5.311 -0.2291 -0.1886  0.3149
 7602TIP3    H144221   2.744   5.053   5.367  1.4526  0.7578  0.2621
 7602TIP3    H244222   2.746   5.108   5.226 -2.1871 -1.0749 -0.6174
 7603TIP3   OH244223   0.031   6.665   4.194 -0.0904 -0.1322  0.2838
 7603TIP3    H144224   0.108   6.635   4.243 -0.1501  0.0145  0.4689
 7603TIP3    H244225  -0.042   6.652   4.255 -0.1181  0.3768  0.3605
 7604TIP3   OH244226   1.145   0.046   0.105  0.2024  0.1879 -0.0285
 7604TIP3    H144227   1.052   0.035   0.085  0.2429 -1.7825  0.6675
 7604TIP3    H244228   1.187  -0.034   0.073  2.0636  1.9167 -2.2915
 7605TIP3   OH244229   0.374   2.765   3.472  0.2353 -0.1795 -0.0979
 7605TIP3    H144230   0.410   2.725   3.551  0.2030 -0.0640 -0.0250
 7605TIP3    H244231   0.287   2.796   3.498 -1.3152 -3.3317 -1.0870
 7606TIP3   OH244232   5.741   2.655  10.926  0.4278 -0.2278  0.2084
 7606TIP3    H144233   5.686   2.684  10.998 -0.4882  0.4152 -0.7301
 7606TIP3    H244234   5.731   2.560  10.924  0.5541 -0.2582  0.9984
 7607TIP3   OH244235   2.112   3.215   3.578 -0.3514  0.4644  0.0381
 7607TIP3    H144236   2.056   3.291   3.594  1.5536  1.3831  3.2178
 7607TIP3    H244237   2.089   3.154   3.649  0.2811 -0.6020 -0.6535
 7608TIP3   OH244238   1.094   1.902   4.543  0.0824  0.1407  0.2291
 7608TIP3    H144239   1.021   1.962   4.529  0.1449  0.8921  2.5989
 7608TIP3    H244240   1.169   1.944   4.500 -0.5191  0.1993 -0.7745
 7609TIP3   OH244241   3.000   0.804   2.789 -0.3046  0.6811  0.1026
 7609TIP3    H144242   3.023   0.869   2.856 -2.1731 -0.1354  1.6313
 7609TIP3    H244243   2.979   0.725   2.839  0.7802 -0.7991 -1.6388
 7610TIP3   OH244244   4.385   0.816  11.934 -0.1182 -0.7456 -0.1972
 7610TIP3    H144245   4.459   0.781  11.984 -0.1368 -0.2293  0.1936
 7610TIP3    H244246   4.406   0.796  11.843  0.4251 -0.7412 -0.0738
 7611TIP3   OH244247   4.192   3.482   0.500  0.0652  0.0529  0.1246
 7611TIP3    H144248   4.182   3.387   0.488 -0.9935  0.1581  0.1411
 7611TIP3    H244249   4.117   3.520   0.456  0.6672  0.9158 -0.1658
 7612TIP3   OH244250   1.536   6.548  14.055  0.0743 -0.4379 -0.6461
 7612TIP3    H144251   1.599   6.619  14.066  0.4948 -0.9112  0.1901
 7612TIP3    H244252   1.466   6.585  14.002  0.3440  0.5565 -0.3290
 7613TIP3   OH244253   6.446   3.950   2.289 -0.5291 -0.0071 -0.2688
 7613TIP3    H144254   6.478   4.021   2.345 -1.2223 -0.1835  0.3742
 7613TIP3    H244255   6.521   3.893   2.277  0.2587  1.2287 -1.4431
 7614TIP3   OH244256   5.235   1.738   2.790 -0.3638  0.6427 -0.1283
 7614TIP3    H144257   5.278   1.807   2.840  0.6845  1.0201 -1.5050
 7614TIP3    H244258   5.302   1.671   2.779 -1.3053 -0.5329  0.9994
 7615TIP3   OH244259   4.941   2.695   2.452 -0.0270  0.0739 -0.1852
 7615TIP3    H144260   5.002   2.646   2.398  1.1306  1.3604 -0.0802
 7615TIP3    H244261   4.995   2.735   2.520 -0.6107  2.9342 -1.2797
 7616TIP3   OH244262   2.788   2.446  15.378 -0.4702 -0.2616 -0.1515
 7616TIP3    H144263   2.746   2.522  15.419  0.0525  0.1296 -0.3283
 7616TIP3    H244264   2.881   2.468  15.376 -0.2942 -0.9766 -0.0684
 7617TIP3   OH244265   2.664   3.298  14.257  0.2825  0.8063  0.5669
 7617TIP3    H144266   2.692   3.381  14.219  1.8319 -0.1511 -0.5058
 7617TIP3    H244267   2.575   3.314  14.288 -0.0402  2.4225 -1.0453
 7618TIP3   OH244268   2.053   0.563  15.053 -0.2672  0.1025 -0.2078
 7618TIP3    H144269   2.049   0.596  14.963  0.5283 -0.8058 -0.5941
 7618TIP3    H244270   2.145   0.537  15.065  0.0463  1.8015  1.4593
 7619TIP3   OH244271   1.690   0.201  16.105  0.0211 -0.0941 -0.2282
 7619TIP3    H144272   1.721   0.112  16.088 -0.9435 -0.8202  1.5749
 7619TIP3    H244273   1.748   0.234  16.173 -1.2220 -0.3696  1.0225
 7620TIP3   OH244274   2.776   3.741   5.195 -0.4446  0.0598  0.1155
 7620TIP3    H144275   2.791   3.697   5.279  0.2057 -1.2440 -0.6475
 7620TIP3    H244276   2.779   3.670   5.131  3.2950  1.4928 -1.5213
 7621TIP3   OH244277   5.410   3.327   1.275  0.2659  0.1050 -0.4344
 7621TIP3    H144278   5.482   3.363   1.326  0.8165 -1.6511  0.1018
 7621TIP3    H244279   5.452   3.286   1.199  0.1955 -3.0161  1.0585
 7622TIP3   OH244280   3.826   1.540  14.363  0.3911 -0.9012  0.5369
 7622TIP3    H144281   3.787   1.612  14.412  0.8700  0.7781 -1.4087
 7622TIP3    H244282   3.751   1.488  14.332 -0.1101  0.0900  0.0503
 7623TIP3   OH244283   6.104   6.694  12.784  0.5736 -0.2670 -0.0003
 7623TIP3    H144284   6.021   6.683  12.737  0.8928 -1.2483 -0.3595
 7623TIP3    H244285   6.161   6.626  12.749  1.5129  0.3306  0.3074
 7624TIP3   OH244286   1.751   6.484   2.850 -0.7307  0.3753 -0.6850
 7624TIP3    H144287   1.677   6.542   2.867 -0.8249  0.2228 -0.5744
 7624TIP3    H244288   1.748   6.420   2.921 -0.3348  0.5288 -0.5234
 7625TIP3   OH244289   0.360   6.118  13.200  0.1586 -0.0115  0.0019
 7625TIP3    H144290   0.304   6.125  13.277  2.4725  0.9875  1.7386
 7625TIP3    H244291   0.433   6.178  13.218  0.7921  0.2984 -3.0185
 7626TIP3   OH244292   0.936   3.488   2.103  0.4051  0.1476  0.4800
 7626TIP3    H144293   0.867   3.459   2.043  0.5748  2.0394 -0.7204
 7626TIP3    H244294   1.017   3.477   2.053  0.7946 -0.2387  1.1749
 7627TIP3   OH244295   2.569   0.866  17.069  0.2056  0.4063  0.1367
 7627TIP3    H144296   2.632   0.845  17.001  1.5154 -0.8009  1.6338
 7627TIP3    H244297   2.617   0.923  17.130  0.4824 -1.7882  2.1246
 7628TIP3   OH244298   2.204   2.520  11.751 -0.4913  0.1308  0.1680
 7628TIP3    H144299   2.212   2.588  11.818  2.3661  1.0927 -1.0180
 7628TIP3    H244300   2.283   2.529  11.698 -0.4226 -3.5439 -0.6091
 7629TIP3   OH244301   5.123   0.501   2.018 -0.0167 -0.0465  0.2166
 7629TIP3    H144302   5.190   0.567   2.000  0.6905 -0.8596 -0.1750
 7629TIP3    H244303   5.127   0.488   2.113 -0.1427  0.4435  0.2931
 7630TIP3   OH244304   1.373   6.563  11.924  0.2993 -0.0973  0.2859
 7630TIP3    H144305   1.341   6.645  11.888 -0.8432 -0.7656 -0.2880
 7630TIP3    H244306   1.468   6.570  11.919  0.2621  1.5745  1.1714
 7631TIP3   OH244307   1.525   5.378  14.811 -0.5717 -0.1785  0.3800
 7631TIP3    H144308   1.445   5.350  14.854 -0.7412  1.7727  1.4629
 7631TIP3    H244309   1.550   5.459  14.856  0.2846  0.9705 -1.9661
 7632TIP3   OH244310   0.202   6.307  16.246 -0.3297 -0.6202  0.3135
 7632TIP3    H144311   0.279   6.330  16.194 -0.3174 -1.0107  0.1557
 7632TIP3    H244312   0.128   6.316  16.186 -0.0377 -4.1641 -0.7850
 7633TIP3   OH244313   6.357   6.056   3.151  0.6058  0.1092  0.1167
 7633TIP3    H144314   6.394   5.995   3.215  1.9573  0.1002 -0.6402
 7633TIP3    H244315   6.349   6.139   3.199  1.4559  0.0592  0.3514
 7634TIP3   OH244316   1.441   4.727  15.329 -0.4205  0.0107  0.1866
 7634TIP3    H144317   1.529   4.755  15.303 -0.2691 -1.9969 -1.7528
 7634TIP3    H244318   1.382   4.788  15.285 -0.0584  0.9674  0.9712
 7635TIP3   OH244319   0.498   4.216   4.014  0.0637 -0.0593  0.2872
 7635TIP3    H144320   0.513   4.279   3.944  0.7487 -0.9333 -0.3685
 7635TIP3    H244321   0.450   4.145   3.972 -0.7153  0.0143  1.0266
 7636TIP3   OH244322   3.800   5.091  11.322 -0.2332  0.1225 -0.5936
 7636TIP3    H144323   3.762   5.031  11.385 -0.0765  1.3397  0.7026
 7636TIP3    H244324   3.822   5.036  11.246  1.0016 -1.6616  0.9742
 7637TIP3   OH244325   4.352   4.600  14.666  0.7727  0.6760 -0.1201
 7637TIP3    H144326   4.377   4.687  14.633 -2.3646  1.7017 -0.1884
 7637TIP3    H244327   4.275   4.577  14.614  0.2829 -1.1953  1.3346
 7638TIP3   OH244328   2.849   4.809  14.031  0.5023 -0.7108  0.8244
 7638TIP3    H144329   2.933   4.803  14.077 -0.1146 -1.7159  1.8715
 7638TIP3    H244330   2.801   4.877  14.078  1.0964  0.6467 -0.4469
 7639TIP3   OH244331   6.058   0.408   2.618  0.8540 -0.2131 -0.2119
 7639TIP3    H144332   6.124   0.398   2.687 -0.3912 -1.2579  0.8865
 7639TIP3    H244333   6.019   0.494   2.634  0.6909 -0.3784  0.2814
 7640TIP3   OH244334   3.252   1.146  16.638  0.1678  0.2879  0.0533
 7640TIP3    H144335   3.242   1.167  16.545 -0.8513  0.9639  0.3080
 7640TIP3    H244336   3.314   1.211  16.671  0.5559  0.0269 -0.1570
 7641TIP3   OH244337   2.834   2.604  11.056 -0.2057  0.3355  0.2058
 7641TIP3    H144338   2.910   2.607  11.114 -0.1934  3.1072  0.2065
 7641TIP3    H244339   2.869   2.577  10.971  1.2119  3.1423 -0.2250
 7642TIP3   OH244340   5.582   0.170   0.269 -0.1669  0.1775 -0.2581
 7642TIP3    H144341   5.651   0.107   0.288  0.8045  1.4026  0.3573
 7642TIP3    H244342   5.585   0.180   0.173 -0.3263 -0.6785 -0.3632
 7643TIP3   OH244343   3.331   5.936   4.730 -0.9314 -0.1247  0.0301
 7643TIP3    H144344   3.419   5.953   4.697 -0.6821 -1.7180 -0.2233
 7643TIP3    H244345   3.273   5.983   4.670 -0.2917  0.1742 -0.3594
 7644TIP3   OH244346   1.337   5.357  17.109  0.6403 -0.5220  0.2106
 7644TIP3    H144347   1.402   5.353  17.179  0.9766  0.0477 -0.0642
 7644TIP3    H244348   1.353   5.441  17.066  1.0428 -1.2535 -1.1264
 7645TIP3   OH244349   1.837   2.127   0.775  0.2946  0.5591  0.0595
 7645TIP3    H144350   1.785   2.064   0.826  0.4134  0.3487 -0.0796
 7645TIP3    H244351   1.825   2.100   0.684 -1.0863  1.7895 -0.1679
 7646TIP3   OH244352   3.183   1.675  17.146  0.1022 -0.0840 -0.2329
 7646TIP3    H144353   3.128   1.680  17.224  0.7389  1.6476  0.1524
 7646TIP3    H244354   3.127   1.636  17.079 -0.4632 -1.5806  1.0414
 7647TIP3   OH244355   2.146   5.852   6.549  0.3336  0.1751 -0.5533
 7647TIP3    H144356   2.176   5.838   6.638  1.0894 -1.4069 -1.0220
 7647TIP3    H244357   2.179   5.939   6.525 -0.4897  0.9269  0.9178
 7648TIP3   OH244358   6.562   2.402   5.618 -0.0204  0.2903  0.0438
 7648TIP3    H144359   6.486   2.433   5.666  0.9178  0.4378  1.4889
 7648TIP3    H244360   6.525   2.353   5.544 -1.5188 -0.1415  1.0248
 7649TIP3   OH244361   4.262   1.086   3.918  0.2669 -0.3765 -0.0932
 7649TIP3    H144362   4.277   1.176   3.947 -0.8765  0.3765 -1.7354
 7649TIP3    H244363   4.272   1.034   3.998  0.5095  1.2447  0.9816
 7650TIP3   OH244364   1.832   2.717  16.704 -0.2460 -0.7097 -0.1377
 7650TIP3    H144365   1.886   2.785  16.744 -0.5804  0.0925 -1.0154
 7650TIP3    H244366   1.742   2.748  16.714 -0.5627 -1.9931  1.2310
 7651TIP3   OH244367   3.964   4.819   1.119  0.2611 -0.1106 -0.3096
 7651TIP3    H144368   4.049   4.778   1.137 -0.5418 -2.5056 -1.5616
 7651TIP3    H244369   3.902   4.767   1.169 -0.6259  0.7489 -0.4988
 7652TIP3   OH244370   5.707   5.191   1.044  0.6392  0.6319 -0.3991
 7652TIP3    H144371   5.737   5.159   1.129  0.9500  1.8254 -0.0422
 7652TIP3    H244372   5.701   5.112   0.989  2.0550  0.0619  0.2322
 7653TIP3   OH244373   4.192   4.417   0.100  0.5136  0.0323  0.0222
 7653TIP3    H144374   4.191   4.485   0.167  0.2876 -1.1908  1.2923
 7653TIP3    H244375   4.264   4.441   0.042 -0.8881  2.5375 -0.8606
 7654TIP3   OH244376   0.751   3.624   1.582  0.3152 -0.0360 -0.2738
 7654TIP3    H144377   0.785   3.645   1.495  0.6029 -0.8882 -0.3776
 7654TIP3    H244378   0.658   3.604   1.567  0.0913  0.8680 -0.2065
 7655TIP3   OH244379   6.767   6.406   1.444 -0.3559 -1.0811  0.2738
 7655TIP3    H144380   6.758   6.490   1.490  1.2255 -0.6337 -0.1832
 7655TIP3    H244381   6.855   6.375   1.467  0.5970 -0.7291 -2.5392
 7656TIP3   OH244382   2.023   6.586  17.071 -0.4598 -0.1879 -0.0443
 7656TIP3    H144383   2.029   6.530  17.148 -1.0377  0.4312  0.4633
 7656TIP3    H244384   2.031   6.526  16.997 -1.7790 -1.0483  0.4703
 7657TIP3   OH244385   5.178   5.963   2.350  1.0203  0.3527 -0.2762
 7657TIP3    H144386   5.210   6.022   2.418  2.7985 -0.6964 -0.1358
 7657TIP3    H244387   5.100   6.006   2.316 -0.2951  0.6755  2.7732
 7658TIP3   OH244388   2.351   2.681  15.499 -0.5588 -0.0110  0.5342
 7658TIP3    H144389   2.271   2.641  15.467 -0.8283 -0.1278  1.3410
 7658TIP3    H244390   2.340   2.775  15.483 -0.5080 -0.1132 -0.0993
 7659TIP3   OH244391   0.282   3.732  15.833 -1.0213 -0.2862  0.1393
 7659TIP3    H144392   0.213   3.680  15.792 -1.3095 -0.6745  1.1008
 7659TIP3    H244393   0.363   3.688  15.807 -1.2449 -1.0367  0.6773
 7660TIP3   OH244394   5.638   0.741  16.294  1.0520  0.8264  0.1371
 7660TIP3    H144395   5.566   0.805  16.293  0.1830 -0.0955 -1.3069
 7660TIP3    H244396   5.652   0.720  16.202  2.4801  0.2022  0.4740
 7661TIP3   OH244397   3.642   3.377  13.827  0.1154 -0.5949  0.0454
 7661TIP3    H144398   3.713   3.353  13.768 -0.5967 -2.4567 -0.1210
 7661TIP3    H244399   3.680   3.443  13.884  1.7807 -1.0460 -0.4768
 7662TIP3   OH244400   4.228   2.041  16.552  0.1778 -0.2685  0.5104
 7662TIP3    H144401   4.304   2.019  16.498 -0.3812 -0.5293 -0.1803
 7662TIP3    H244402   4.263   2.044  16.642  1.6711  2.6808 -0.0324
 7663TIP3   OH244403   1.721   3.052  16.594 -0.2719  0.0279 -0.2765
 7663TIP3    H144404   1.657   3.119  16.621 -0.8252  0.8093 -3.2098
 7663TIP3    H244405   1.802   3.078  16.639 -1.2291  0.8178  1.0944
 7664TIP3   OH244406   4.175   5.479  13.004  0.1582 -0.3553  0.0453
 7664TIP3    H144407   4.189   5.523  12.921 -4.2195  1.6180  0.0844
 7664TIP3    H244408   4.121   5.403  12.983 -0.7256 -0.0170  0.9975
 7665TIP3   OH244409   4.862   3.162  15.193  0.1083 -0.1408  0.5985
 7665TIP3    H144410   4.779   3.167  15.240 -0.4646 -0.2034 -0.3796
 7665TIP3    H244411   4.837   3.142  15.103  1.0427  1.9980 -0.1893
 7666TIP3   OH244412   0.548   1.330  10.940  0.0826  0.3547 -0.1387
 7666TIP3    H144413   0.476   1.373  10.986 -1.3183  2.0343 -3.5497
 7666TIP3    H244414   0.513   1.244  10.916  0.9669 -0.6995  2.0838
 7667TIP3   OH244415   0.558   1.270   5.224 -0.0989  0.0403 -0.2511
 7667TIP3    H144416   0.606   1.215   5.286  0.4813  1.7452  0.9060
 7667TIP3    H244417   0.511   1.333   5.280 -1.5899  0.0530 -1.4722
 7668TIP3   OH244418   1.654   1.951   0.894  0.0097 -0.3061  0.3554
 7668TIP3    H144419   1.590   1.963   0.964  0.7347  0.0546  0.9863
 7668TIP3    H244420   1.653   1.857   0.876 -1.3580 -0.1804 -0.3175
 7669TIP3   OH244421   0.690   2.001   2.154  0.5506  0.1449  0.1357
 7669TIP3    H144422   0.686   1.932   2.088 -0.1408  0.1993  0.1079
 7669TIP3    H244423   0.668   2.081   2.107 -0.3165  0.1311  0.4852
 7670TIP3   OH244424   6.107   5.902  13.422 -0.4545  0.5906  0.6099
 7670TIP3    H144425   6.106   5.858  13.337 -0.6521  1.1293  0.3312
 7670TIP3    H244426   6.020   5.884  13.459  0.6711 -2.3337  2.1125
 7671TIP3   OH244427   5.278   0.392  14.899  0.2073 -0.4205 -0.2351
 7671TIP3    H144428   5.232   0.454  14.842 -1.0281 -1.0450  0.0419
 7671TIP3    H244429   5.243   0.307  14.875 -2.1986 -0.5351  2.9805
 7672TIP3   OH244430   6.224   1.037  16.651  0.1946 -0.2302 -0.2597
 7672TIP3    H144431   6.226   1.035  16.747 -0.3345  0.0719 -0.2394
 7672TIP3    H244432   6.148   1.092  16.630 -1.7861 -2.9680 -0.8316
 7673TIP3   OH244433   4.393   1.659   0.932  0.4434  0.2631  1.0316
 7673TIP3    H144434   4.410   1.748   0.960  0.2389  0.5865  0.1462
 7673TIP3    H244435   4.374   1.612   1.014 -0.1386  1.1814  1.4456
 7674TIP3   OH244436   1.074   1.337   4.351 -0.1966 -0.5987  0.0789
 7674TIP3    H144437   1.025   1.261   4.320 -0.5023 -1.1828  1.8505
 7674TIP3    H244438   1.008   1.406   4.363 -0.1013 -0.4200 -0.3938
 7675TIP3   OH244439   4.686   1.628  16.008  0.4985 -0.3586 -0.0502
 7675TIP3    H144440   4.638   1.710  16.021  1.4396  0.1584  0.2475
 7675TIP3    H244441   4.693   1.620  15.913  1.9708  0.8702 -0.0816
 7676TIP3   OH244442   4.306   3.349  15.344 -0.4248  0.1956  0.2283
 7676TIP3    H144443   4.258   3.310  15.417 -2.0657 -0.5461 -1.1995
 7676TIP3    H244444   4.276   3.302  15.267 -0.2203  2.2800 -1.2105
 7677TIP3   OH244445   5.191   2.154  13.336  0.1224  0.0548  0.4110
 7677TIP3    H144446   5.120   2.214  13.360  0.1146 -0.0907  0.7638
 7677TIP3    H244447   5.246   2.204  13.276 -1.0420 -0.2931 -0.9947
 7678TIP3   OH244448   4.794   6.581  15.427  0.0549  0.3071  0.2425
 7678TIP3    H144449   4.811   6.546  15.515 -0.6777  0.2393  0.3622
 7678TIP3    H244450   4.881   6.590  15.388  0.3417 -0.3794  0.6979
 7679TIP3   OH244451   4.740   1.268   0.093 -0.2745  0.1422 -0.0010
 7679TIP3    H144452   4.741   1.334   0.163  1.5314  0.2474 -0.0604
 7679TIP3    H244453   4.761   1.318   0.014 -3.2749  0.2017 -0.8648
 7680TIP3   OH244454   5.059   4.747  10.554  0.3594 -0.0266  0.0129
 7680TIP3    H144455   5.027   4.658  10.541  1.0231 -0.5998  1.9902
 7680TIP3    H244456   5.132   4.738  10.615  0.0787  1.9192  0.7057
 7681TIP3   OH244457   1.164   1.950  16.926  0.0932 -0.6892  0.6056
 7681TIP3    H144458   1.229   1.946  16.856 -1.5021 -0.2732 -0.9873
 7681TIP3    H244459   1.099   1.884  16.902 -0.5770 -0.4218  1.6144
 7682TIP3   OH244460   2.802   2.962  14.415  0.0024  0.0326  0.7549
 7682TIP3    H144461   2.888   2.952  14.376 -0.2460 -2.5602  0.6783
 7682TIP3    H244462   2.787   2.880  14.463 -2.7493  0.0091  0.0495
 7683TIP3   OH244463   1.834   4.160   6.282  0.1714 -0.0287 -0.1740
 7683TIP3    H144464   1.740   4.176   6.274  0.3173  1.7414  1.1556
 7683TIP3    H244465   1.842   4.064   6.285 -1.5651 -0.2043 -0.3947
 7684TIP3   OH244466   3.855   1.180  14.105 -0.2298 -0.2153 -0.0444
 7684TIP3    H144467   3.838   1.096  14.148 -1.5142  0.3011  0.4844
 7684TIP3    H244468   3.898   1.233  14.172  0.1637 -0.2793 -0.2386
 7685TIP3   OH244469   6.287   6.169   4.299  0.3823  0.0891 -0.0826
 7685TIP3    H144470   6.216   6.150   4.360  0.0528  0.7567 -0.2431
 7685TIP3    H244471   6.357   6.108   4.323 -0.9386 -1.9356 -1.2021
 7686TIP3   OH244472   3.427   4.440  14.088 -0.5104  0.1595 -0.2250
 7686TIP3    H144473   3.461   4.369  14.034 -0.6753 -0.5769  0.6140
 7686TIP3    H244474   3.505   4.490  14.113 -0.4674  0.6938 -1.3807
 7687TIP3   OH244475   6.161   3.256  14.408  0.4519  0.2184  0.2268
 7687TIP3    H144476   6.142   3.166  14.434  2.1366 -0.0198  0.7376
 7687TIP3    H244477   6.213   3.248  14.328 -0.8714  0.8178 -0.7371
 7688TIP3   OH244478   1.877   2.300   3.076  0.2270 -0.3390  0.3753
 7688TIP3    H144479   1.917   2.373   3.122 -0.1294  0.1697 -0.1075
 7688TIP3    H244480   1.788   2.330   3.057  1.2435  0.7824 -3.4399
 7689TIP3   OH244481   6.443   5.560   6.146 -0.0958 -0.6240 -0.6201
 7689TIP3    H144482   6.475   5.637   6.193 -0.5001 -0.3930 -0.7184
 7689TIP3    H244483   6.517   5.532   6.092 -0.2350  0.2512 -1.2815
 7690TIP3   OH244484   0.149   2.218   1.316 -0.1649 -0.7029 -0.6079
 7690TIP3    H144485   0.072   2.208   1.371  0.6752  0.6715  0.9181
 7690TIP3    H244486   0.216   2.164   1.358 -0.2470 -1.8155 -1.8651
 7691TIP3   OH244487   3.068   6.094   2.588 -0.7411  0.1083 -0.1903
 7691TIP3    H144488   3.001   6.080   2.655 -1.8032 -0.6823 -1.3745
 7691TIP3    H244489   3.109   6.009   2.578 -0.7173  0.1757 -0.6725
 7692TIP3   OH244490   3.501   1.119  11.295 -0.0692 -0.6407 -0.2259
 7692TIP3    H144491   3.434   1.114  11.227 -0.1820  2.1499 -0.4279
 7692TIP3    H244492   3.526   1.028  11.311 -2.5065 -1.6281 -1.5085
 7693TIP3   OH244493   1.591   4.262   5.539  0.0520 -0.2520 -0.1603
 7693TIP3    H144494   1.608   4.210   5.460 -1.1673 -1.2209  0.1724
 7693TIP3    H244495   1.667   4.247   5.595  0.5200 -0.2661 -0.7884
 7694TIP3   OH244496   1.335   4.771  17.132  0.0286  0.2095 -0.6367
 7694TIP3    H144497   1.277   4.715  17.080 -2.5451  0.0064  2.1944
 7694TIP3    H244498   1.324   4.740  17.222  2.6158  1.9077  0.3756
 7695TIP3   OH244499   3.295   4.599  10.947 -0.4682  0.1068  0.9284
 7695TIP3    H144500   3.352   4.527  10.920 -1.1883 -0.8482  1.8709
 7695TIP3    H244501   3.354   4.662  10.988  0.4710  1.0098 -1.5879
 7696TIP3   OH244502   0.917   5.462  13.954 -0.3826 -0.5741 -0.0697
 7696TIP3    H144503   0.931   5.468  13.860  0.0181 -0.7727 -0.0235
 7696TIP3    H244504   0.974   5.529  13.991 -1.5898  0.4823 -0.0554
 7697TIP3   OH244505   3.976   6.208   3.026  0.1769 -0.0191 -0.1699
 7697TIP3    H144506   3.915   6.270   2.987 -2.0644 -2.2021 -0.3879
 7697TIP3    H244507   4.030   6.178   2.953 -0.0921  0.1876 -0.4555
 7698TIP3   OH244508   1.036   3.500   2.356  0.3906 -0.0520  0.0049
 7698TIP3    H144509   1.051   3.593   2.371  0.1677 -0.1767  1.1295
 7698TIP3    H244510   0.993   3.495   2.271  2.2561  0.6869 -1.0372
 7699TIP3   OH244511   6.762   5.060  11.832  0.4705  0.4016  0.7996
 7699TIP3    H144512   6.755   4.976  11.878  1.0869  0.2770  0.6728
 7699TIP3    H244513   6.856   5.081  11.834  0.3140  1.1244  0.8928
 7700TIP3   OH244514   0.158   4.422  13.945  0.3989  0.2376  0.1456
 7700TIP3    H144515   0.135   4.494  14.003  0.6002 -0.0997  0.6547
 7700TIP3    H244516   0.245   4.444  13.911 -0.2327  1.0421 -1.0249
 7701TIP3   OH244517   1.751   1.329  11.760 -0.6785 -0.1529 -0.0103
 7701TIP3    H144518   1.831   1.358  11.805  0.3917  2.2608 -3.0954
 7701TIP3    H244519   1.685   1.393  11.785  0.1554  1.7678 -2.2461
 7702TIP3   OH244520   6.540   0.402   2.409  0.4664  0.9478 -0.2956
 7702TIP3    H144521   6.484   0.464   2.455 -1.2469 -0.7817  0.0443
 7702TIP3    H244522   6.503   0.397   2.321  0.9566  0.8411 -0.4994
 7703TIP3   OH244523   4.395   1.539   0.425  0.0925  0.2084  0.4019
 7703TIP3    H144524   4.310   1.580   0.413  0.2116  1.2800  2.6403
 7703TIP3    H244525   4.428   1.575   0.508  2.3799 -0.7581  0.0068
 7704TIP3   OH244526   5.344   3.394   2.069  0.2681 -0.3538 -0.4017
 7704TIP3    H144527   5.308   3.318   2.115 -0.4889  0.1530 -0.1496
 7704TIP3    H244528   5.269   3.431   2.021  0.4780  0.6084 -0.0088
 7705TIP3   OH244529   6.224   5.605  13.471  0.0453  0.2579  0.5372
 7705TIP3    H144530   6.192   5.582  13.383  0.8588  1.5970 -0.1350
 7705TIP3    H244531   6.300   5.549  13.484 -0.5975 -0.5900  0.7901
 7706TIP3   OH244532   0.230   0.573  16.451 -0.1912  0.4465  0.0205
 7706TIP3    H144533   0.190   0.640  16.395  1.7448  0.6255 -1.2719
 7706TIP3    H244534   0.185   0.581  16.535 -2.1694  1.2058 -1.0487
 7707TIP3   OH244535   4.324   6.665  12.013  0.1947  0.5977 -0.7800
 7707TIP3    H144536   4.347   6.751  12.048  0.9572 -0.2650  0.9353
 7707TIP3    H244537   4.349   6.670  11.921 -2.6767  3.2458 -1.5989
 7708TIP3   OH244538   1.421   0.791  11.398  0.4928  0.6472  0.2363
 7708TIP3    H144539   1.480   0.805  11.323  0.4282  2.4735  0.4879
 7708TIP3    H244540   1.371   0.872  11.404 -2.5651 -1.0316 -0.3507
 7709TIP3   OH244541   0.525   6.457   1.322  1.0021  0.2585 -0.3548
 7709TIP3    H144542   0.540   6.539   1.275  0.9903 -0.2303 -1.2277
 7709TIP3    H244543   0.566   6.470   1.407 -0.4154  1.7793  0.1533
 7710TIP3   OH244544   4.108   0.376  17.144 -0.0869  0.0646 -0.3894
 7710TIP3    H144545   4.064   0.427  17.076 -0.4882 -0.4396 -0.5188
 7710TIP3    H244546   4.128   0.292  17.102 -1.5464 -0.7658  0.4621
 7711TIP3   OH244547   2.847   5.176   1.330 -0.0842  0.5195 -0.9527
 7711TIP3    H144548   2.783   5.131   1.385  0.4615 -0.2834 -0.9604
 7711TIP3    H244549   2.808   5.262   1.313 -0.3597  0.7250  0.5374
 7712TIP3   OH244550   6.382   2.355   1.416 -0.2767  0.8011  0.2981
 7712TIP3    H144551   6.447   2.315   1.474 -0.8230  0.0556  0.4107
 7712TIP3    H244552   6.332   2.414   1.473 -0.4800  0.4617  0.4691
 7713TIP3   OH244553   3.863   4.089   2.844 -0.1270  0.4211 -0.4200
 7713TIP3    H144554   3.856   4.029   2.770 -1.7864  0.7128 -0.5287
 7713TIP3    H244555   3.783   4.142   2.840 -0.1495  0.6056  1.4455
 7714TIP3   OH244556   6.637   6.757   2.274 -0.4633  0.2019  0.6830
 7714TIP3    H144557   6.653   6.822   2.341 -2.5774 -0.9798  2.4764
 7714TIP3    H244558   6.724   6.723   2.251  0.5000  2.3913  0.9351
 7715TIP3   OH244559   6.025   4.742   0.431 -0.4567 -0.6516  0.1016
 7715TIP3    H144560   6.049   4.657   0.469 -0.0342 -0.3209  0.5834
 7715TIP3    H244561   6.033   4.729   0.337 -2.2563 -1.7090  0.0428
 7716TIP3   OH244562   4.082   6.640   2.504 -0.0702  0.1443  0.1059
 7716TIP3    H144563   4.136   6.623   2.581 -1.0268  0.7771  0.9304
 7716TIP3    H244564   4.081   6.736   2.496 -0.0305  0.0883 -0.6649
 7717TIP3   OH244565   3.741   3.817  17.093 -0.4548  0.4918  0.6652
 7717TIP3    H144566   3.724   3.724  17.076  0.6865  0.3371  0.2852
 7717TIP3    H244567   3.720   3.828  17.186  4.7074 -1.5871  2.4651
 7718TIP3   OH244568   2.640   5.201  12.661 -0.6370  0.4018  0.7657
 7718TIP3    H144569   2.558   5.212  12.612 -0.6331 -1.3643  0.3009
 7718TIP3    H244570   2.612   5.186  12.751 -0.6774  2.7979  1.2027
 7719TIP3   OH244571   5.177   5.600   2.878 -0.3820  0.1547  0.0542
 7719TIP3    H144572   5.157   5.665   2.945 -0.4852  1.1042 -0.8746
 7719TIP3    H244573   5.092   5.582   2.837 -0.1320  0.4673 -0.6058
 7720TIP3   OH244574   6.421   0.245  11.657  0.0096 -0.0970  0.3759
 7720TIP3    H144575   6.459   0.323  11.617  0.7623 -0.3540  0.5832
 7720TIP3    H244576   6.489   0.178  11.650 -0.7519 -0.8468 -0.1184
 7721TIP3   OH244577   1.867   4.498   3.701 -0.3886 -0.4031  0.1166
 7721TIP3    H144578   1.849   4.539   3.617  1.1573  0.8559  0.3505
 7721TIP3    H244579   1.814   4.548   3.764 -0.3549 -0.3298  0.0873
 7722TIP3   OH244580   5.900   0.642   3.747  0.0904 -0.5863 -0.2186
 7722TIP3    H144581   5.843   0.573   3.782 -0.3107  0.9258  2.3268
 7722TIP3    H244582   5.847   0.686   3.682 -0.3035 -1.5057 -0.5429
 7723TIP3   OH244583   3.791   5.991   5.013 -0.0987 -0.3082  0.6359
 7723TIP3    H144584   3.718   5.964   4.958  0.2594  0.1994 -0.1123
 7723TIP3    H244585   3.840   5.910   5.030 -0.1853 -0.4653  0.1572
 7724TIP3   OH244586   0.715   5.033  16.830  0.4020 -0.0952  0.0167
 7724TIP3    H144587   0.724   5.128  16.829 -0.7409  0.1210  2.5300
 7724TIP3    H244588   0.621   5.018  16.821 -0.0030 -0.6693  3.6255
 7725TIP3   OH244589   4.900   3.695   3.995 -0.0238  0.3869  0.0241
 7725TIP3    H144590   4.987   3.715   4.031  0.0361  0.5692 -0.2216
 7725TIP3    H244591   4.886   3.603   4.017  1.1427 -0.2830 -1.7457
 7726TIP3   OH244592   5.579   0.454  13.580 -0.5049 -0.1396  0.3548
 7726TIP3    H144593   5.529   0.432  13.501 -0.3957 -1.3410  0.5926
 7726TIP3    H244594   5.563   0.547  13.593  1.1776  0.6406 -2.2862
 7727TIP3   OH244595   1.168   1.497  15.389 -0.2719  0.1263 -0.1353
 7727TIP3    H144596   1.110   1.422  15.377  1.3296 -1.2880  0.4570
 7727TIP3    H244597   1.162   1.545  15.307 -1.4703 -0.5612 -0.4716
 7728TIP3   OH244598   4.417   5.736  10.623  0.3264  1.1662  0.3263
 7728TIP3    H144599   4.497   5.765  10.580  1.2520 -1.2005  0.3181
 7728TIP3    H244600   4.441   5.724  10.714 -0.6125  2.4080  0.7743
 7729TIP3   OH244601   6.311   4.844   6.124  0.4347  0.2148  0.1160
 7729TIP3    H144602   6.389   4.867   6.174 -0.2928  3.2875  0.0502
 7729TIP3    H244603   6.252   4.803   6.188  1.1099  0.2709  0.7833
 7730TIP3   OH244604   6.626   0.632  14.238  0.1196  0.0432  0.5427
 7730TIP3    H144605   6.605   0.662  14.327 -1.6014 -1.7288  0.7843
 7730TIP3    H244606   6.664   0.546  14.250 -0.4011 -0.3392 -0.4571
 7731TIP3   OH244607   6.381   6.264   0.335  0.3557  0.2623 -0.0885
 7731TIP3    H144608   6.351   6.294   0.421  1.0315  0.2434  0.1575
 7731TIP3    H244609   6.325   6.311   0.273  0.1871  0.6442  0.3451
 7732TIP3   OH244610   4.245   6.138   3.207  0.0490 -0.4299 -0.2042
 7732TIP3    H144611   4.273   6.063   3.155 -1.4245 -0.6883 -0.6935
 7732TIP3    H244612   4.160   6.162   3.170 -0.8149 -0.2798  1.7405
 7733TIP3   OH244613   1.005   0.784   5.717 -0.1674  0.2173  0.4596
 7733TIP3    H144614   0.916   0.755   5.697  0.0285  0.3569 -0.7134
 7733TIP3    H244615   1.058   0.746   5.647  0.4321  1.5775  0.1490
 7734TIP3   OH244616   0.787   6.461  14.768 -0.6442  0.3312  0.0419
 7734TIP3    H144617   0.707   6.411  14.782 -0.1869 -0.0562  1.4542
 7734TIP3    H244618   0.770   6.512  14.689 -2.5436  0.7499  0.6701
 7735TIP3   OH244619   3.394   0.580  16.354 -0.4505  0.2707  0.0055
 7735TIP3    H144620   3.469   0.567  16.412  0.6071  2.1893 -0.8277
 7735TIP3    H244621   3.348   0.497  16.355  2.1243 -1.2593 -0.0381
 7736TIP3   OH244622   6.275   5.021   5.608 -0.0437 -0.3737  0.1682
 7736TIP3    H144623   6.228   5.104   5.599 -0.2212 -0.6058 -1.1952
 7736TIP3    H244624   6.283   5.009   5.703 -1.3211  0.4637  0.4165
 7737TIP3   OH244625   6.522   4.005  11.419  0.0155  0.2008 -0.5179
 7737TIP3    H144626   6.531   3.910  11.416  0.7770  0.2964 -1.8683
 7737TIP3    H244627   6.598   4.038  11.371 -0.5271  1.4684 -0.5331
 7738TIP3   OH244628   0.860   3.347  17.239  0.3017  0.1985  0.2145
 7738TIP3    H144629   0.948   3.317  17.215  0.3408 -0.1201  0.7380
 7738TIP3    H244630   0.807   3.267  17.237  0.5189 -0.0364  2.1545
 7739TIP3   OH244631   6.111   0.754   4.655 -0.0466  0.3910  0.7127
 7739TIP3    H144632   6.183   0.735   4.593  0.8874  1.8395  1.3060
 7739TIP3    H244633   6.096   0.671   4.700  1.6709  0.1878  0.9738
 7740TIP3   OH244634   1.255   0.219  15.327  0.0495 -0.8117  0.3150
 7740TIP3    H144635   1.250   0.142  15.270  1.2737 -1.3895  0.9314
 7740TIP3    H244636   1.342   0.255  15.309 -0.3977  0.2590  0.2621
 7741TIP3   OH244637   4.153   3.325   3.418  0.3336  0.1768 -0.3357
 7741TIP3    H144638   4.067   3.326   3.461 -0.7878 -0.9407 -2.3487
 7741TIP3    H244639   4.214   3.357   3.484 -1.6527  1.1875  1.1270
 7742TIP3   OH244640   3.510   1.719  10.287 -0.3459 -0.0172 -0.1230
 7742TIP3    H144641   3.472   1.806  10.286 -0.7354 -0.1824  0.0057
 7742TIP3    H244642   3.589   1.726  10.341  0.2691  0.5178 -1.0666
 7743TIP3   OH244643   4.031   2.507  16.124 -0.3307  0.2674  0.1939
 7743TIP3    H144644   4.087   2.521  16.200  0.2435  2.5128 -0.5705
 7743TIP3    H244645   4.075   2.553  16.053 -0.3925 -2.4824 -1.7761
 7744TIP3   OH244646   3.352   3.381   2.892 -0.0253  0.0117  0.3274
 7744TIP3    H144647   3.303   3.299   2.901  2.7717 -1.9377 -0.9705
 7744TIP3    H244648   3.297   3.435   2.834 -1.2454 -1.5299 -0.0268
 7745TIP3   OH244649   6.324   3.259  11.825 -0.0513  0.6162 -0.5329
 7745TIP3    H144650   6.259   3.323  11.794 -0.6466  1.2488  1.8683
 7745TIP3    H244651   6.408   3.295  11.794 -0.4432  2.1981  0.1242
 7746TIP3   OH244652   2.433   2.719  16.869  0.4658 -0.7668  0.2640
 7746TIP3    H144653   2.350   2.722  16.822  0.6239  1.3432  0.0354
 7746TIP3    H244654   2.411   2.744  16.959  0.6341 -1.8001  0.6088
 7747TIP3   OH244655   3.991   4.705  15.230  0.0712 -0.1368  0.5922
 7747TIP3    H144656   3.895   4.704  15.235  0.0822 -0.5770  0.7978
 7747TIP3    H244657   4.014   4.616  15.203  0.4201 -0.0147  0.4861
 7748TIP3   OH244658   6.414   0.366   6.090  0.0575  0.1544  0.2065
 7748TIP3    H144659   6.387   0.442   6.142  0.3585 -0.4474  1.2739
 7748TIP3    H244660   6.377   0.291   6.136 -2.9407 -0.2385 -2.5097
 7749TIP3   OH244661   0.146   2.476  13.909  0.1980  0.2550  0.0336
 7749TIP3    H144662   0.055   2.505  13.913 -0.0463 -0.3479 -0.7383
 7749TIP3    H244663   0.168   2.482  13.816  0.8979  0.2307  0.1945
 7750TIP3   OH244664   6.225   1.190  12.294  0.3015 -0.5712  0.0671
 7750TIP3    H144665   6.294   1.202  12.359  0.3303 -0.9997  0.1197
 7750TIP3    H244666   6.215   1.095  12.287  1.5129 -0.6299 -1.7919
 7751TIP3   OH244667   2.651   6.446  11.320 -0.1675  0.3767 -0.0786
 7751TIP3    H144668   2.701   6.504  11.262  1.0298 -0.3922  0.1535
 7751TIP3    H244669   2.560   6.459  11.294  0.0026  2.7607  0.3438
 7752TIP3   OH244670   5.918   5.944   2.816  0.4883 -0.6790 -0.3670
 7752TIP3    H144671   5.887   6.012   2.756  1.0813 -0.5190 -0.4938
 7752TIP3    H244672   5.952   5.875   2.759  1.3008 -0.4106 -0.2151
 7753TIP3   OH244673   6.548   2.544  12.318  0.0308  0.5363  0.5200
 7753TIP3    H144674   6.516   2.595  12.393  2.6443  2.6039  0.3745
 7753TIP3    H244675   6.627   2.501  12.350  0.5688  0.5488 -0.7521
 7754TIP3   OH244676   2.496   3.684  15.373 -0.5902 -0.9068  1.0456
 7754TIP3    H144677   2.401   3.694  15.368 -0.3923  0.8980 -0.9314
 7754TIP3    H244678   2.514   3.666  15.465 -2.5223  3.8627  2.6915
 7755TIP3   OH244679   0.379   0.072  15.274 -0.4482  0.5568 -0.0733
 7755TIP3    H144680   0.390  -0.001  15.334 -1.3644  0.4634  0.0031
 7755TIP3    H244681   0.452   0.130  15.292  1.1653 -1.0390 -1.1620
 7756TIP3   OH244682   3.446   3.327   5.865 -0.3620  0.2798  0.4967
 7756TIP3    H144683   3.366   3.328   5.812 -0.1801 -0.6624  0.1906
 7756TIP3    H244684   3.418   3.293   5.950 -0.5495  1.2981  0.8662
 7757TIP3   OH244685   2.334   0.851  11.196  0.1201 -0.2736  0.3387
 7757TIP3    H144686   2.328   0.758  11.177  0.5005  0.0324 -1.5097
 7757TIP3    H244687   2.363   0.891  11.113  1.0892  1.3464  1.3821
 7758TIP3   OH244688   2.771   6.391  16.923 -0.1272  0.1420  0.0050
 7758TIP3    H144689   2.799   6.376  17.013  0.1022 -0.9571 -0.2333
 7758TIP3    H244690   2.683   6.427  16.930 -0.3836 -0.6017  0.6522
 7759TIP3   OH244691   3.406   4.018   4.278 -0.2696 -0.6628  0.0799
 7759TIP3    H144692   3.369   4.093   4.231 -0.7576 -0.9497  0.0078
 7759TIP3    H244693   3.382   3.942   4.225  1.0668 -0.7931 -0.3793
 7760TIP3   OH244694   0.680   2.933  10.548 -0.4438 -0.1603  0.4055
 7760TIP3    H144695   0.693   3.027  10.558 -0.0168 -0.2899  1.1399
 7760TIP3    H244696   0.766   2.894  10.565 -0.2664 -0.6119 -1.3005
 7761TIP3   OH244697   0.125   2.005  10.630 -0.2566 -0.0947  0.1215
 7761TIP3    H144698   0.117   2.007  10.535 -1.1974 -3.5549 -0.0056
 7761TIP3    H244699   0.220   1.996  10.646  0.0617  2.0290 -0.3414
 7762TIP3   OH244700   1.460   0.285  15.987 -0.3735 -0.0519 -0.1104
 7762TIP3    H144701   1.394   0.292  16.057 -0.6516 -0.4482 -0.3222
 7762TIP3    H244702   1.538   0.250  16.031 -0.1653  0.8193  0.2221
 7763TIP3   OH244703   2.687   1.031  11.204 -0.0759  0.1272  0.8643
 7763TIP3    H144704   2.755   1.075  11.153 -0.5052  1.1668  1.1482
 7763TIP3    H244705   2.622   1.004  11.140 -1.8548  3.6400  0.9469
 7764TIP3   OH244706   5.740   1.291  13.446  0.5490  0.1182  0.0703
 7764TIP3    H144707   5.658   1.288  13.396  1.4388 -1.5214 -1.3599
 7764TIP3    H244708   5.803   1.331  13.386  1.4472 -1.1743  0.1227
 7765TIP3   OH244709   1.604   0.703   0.246 -0.0538 -0.8067 -0.3237
 7765TIP3    H144710   1.562   0.685   0.330  1.3943 -1.3242  0.3260
 7765TIP3    H244711   1.619   0.798   0.247  2.2145 -1.0927  1.1905
 7766TIP3   OH244712   1.546   1.780   5.699 -0.0066  0.6411  1.0471
 7766TIP3    H144713   1.584   1.776   5.611  0.8075  0.5624  1.3868
 7766TIP3    H244714   1.486   1.855   5.697  0.7786  1.2767  0.7078
 7767TIP3   OH244715   3.400   2.629  16.437  0.1131 -0.5933  0.1102
 7767TIP3    H144716   3.492   2.645  16.417  0.0176 -0.3659 -0.1697
 7767TIP3    H244717   3.388   2.535  16.421  0.5370 -0.8330  1.1572
 7768TIP3   OH244718   3.682   6.298  12.940  0.4964  0.5742  0.5612
 7768TIP3    H144719   3.697   6.215  12.894  0.2635  1.6973 -1.7069
 7768TIP3    H244720   3.690   6.276  13.033  1.4863 -1.7636  0.0048
 7769TIP3   OH244721   0.222   2.385   4.036 -0.1155 -0.0680  0.0467
 7769TIP3    H144722   0.198   2.414   3.947 -0.9830 -1.6853 -0.2929
 7769TIP3    H244723   0.181   2.449   4.093  0.5630  1.0762 -0.7119
 7770TIP3   OH244724   0.528   5.251   3.064 -0.1088 -0.5487  0.1511
 7770TIP3    H144725   0.518   5.209   2.979  0.1806 -0.2463 -0.0309
 7770TIP3    H244726   0.591   5.196   3.111 -0.4080 -0.8200  0.2410
 7771TIP3   OH244727   1.875   4.031   4.468 -0.5172  0.5447 -0.9434
 7771TIP3    H144728   1.849   3.971   4.538 -1.2005 -0.4283 -1.9853
 7771TIP3    H244729   1.821   4.109   4.482  0.7954  1.2108  0.7725
 7772TIP3   OH244730   2.761   0.490  13.744 -0.1594  0.2613  0.3473
 7772TIP3    H144731   2.685   0.543  13.768 -0.5503 -0.0219 -0.2615
 7772TIP3    H244732   2.813   0.486  13.824  0.2543  2.1938  0.2424
 7773TIP3   OH244733   0.652   5.323   4.959 -0.6284 -0.1881 -0.3162
 7773TIP3    H144734   0.594   5.261   5.003  1.7023 -2.5955 -0.4704
 7773TIP3    H244735   0.656   5.293   4.869  2.4396 -1.4422  0.1281
 7774TIP3   OH244736   5.984   6.249   2.838  0.0338  0.3281  0.2440
 7774TIP3    H144737   5.924   6.218   2.905 -0.2756 -1.0318 -0.6192
 7774TIP3    H244738   6.071   6.228   2.872 -0.1764 -2.9459 -0.8718
 7775TIP3   OH244739   2.397   6.517  15.636 -0.0914 -0.1149 -0.8394
 7775TIP3    H144740   2.474   6.486  15.588  0.2679  0.6338 -0.7567
 7775TIP3    H244741   2.432   6.550  15.719 -0.2609  1.7866 -1.4704
 7776TIP3   OH244742   1.266   2.234   2.082  0.7903 -0.2470  0.0538
 7776TIP3    H144743   1.313   2.216   2.164  2.2108 -1.4391 -0.9612
 7776TIP3    H244744   1.194   2.171   2.083  1.7156 -1.3530 -0.2888
 7777TIP3   OH244745   6.063   4.770   4.832 -0.0052  0.0058 -0.1837
 7777TIP3    H144746   6.046   4.827   4.907  0.1555 -0.4506  0.2066
 7777TIP3    H244747   6.051   4.681   4.867 -0.4131 -0.1978 -0.8182
 7778TIP3   OH244748   1.496   6.190  14.597 -0.4821 -0.3359  0.5938
 7778TIP3    H144749   1.425   6.248  14.569 -0.1131 -0.4787 -0.7047
 7778TIP3    H244750   1.563   6.248  14.633 -0.7528 -0.0937  0.7019
 7779TIP3   OH244751   5.967   3.184   2.385  0.0589  0.1291 -0.0499
 7779TIP3    H144752   5.914   3.106   2.400  1.0644 -0.3272  1.3324
 7779TIP3    H244753   5.924   3.253   2.436  1.3211 -0.5006  1.9886
 7780TIP3   OH244754   4.291   1.051   0.015  0.0637 -0.3491 -0.1712
 7780TIP3    H144755   4.330   1.136  -0.001 -1.0643  0.1567 -0.3020
 7780TIP3    H244756   4.238   1.033  -0.063 -0.0790 -0.9538  0.0549
 7781TIP3   OH244757   1.893   6.381  13.124  0.1212  0.3568  0.3522
 7781TIP3    H144758   1.814   6.429  13.150 -0.4605 -0.7278  0.6305
 7781TIP3    H244759   1.861   6.297  13.093  1.0563  0.5231 -1.1278
 7782TIP3   OH244760   1.199   0.741  14.305  0.1417  0.5164  0.5143
 7782TIP3    H144761   1.241   0.655  14.293 -0.3856  0.1960  0.9402
 7782TIP3    H244762   1.209   0.761  14.398  0.2601  0.9162  0.4174
 7783TIP3   OH244763   1.920   5.915   4.616 -0.5233 -0.0197  0.6238
 7783TIP3    H144764   1.967   5.834   4.597  0.9939  1.4278 -2.6803
 7783TIP3    H244765   1.947   5.937   4.706  2.5941 -0.9766  0.0607
 7784TIP3   OH244766   5.880   5.323  15.968  0.0707  0.2960 -0.0509
 7784TIP3    H144767   5.796   5.277  15.981 -0.8032  1.9560  0.4867
 7784TIP3    H244768   5.889   5.329  15.873 -0.7358  0.6114 -0.1200
 7785TIP3   OH244769   1.253   1.881   5.570  0.0392  0.4558 -0.5140
 7785TIP3    H144770   1.232   1.971   5.595 -2.0476  1.1200 -4.0127
 7785TIP3    H244771   1.228   1.829   5.646  1.2174  2.7568  1.5781
 7786TIP3   OH244772   1.552   1.284   2.654  0.1678 -0.3299  0.7352
 7786TIP3    H144773   1.598   1.202   2.635 -0.0079 -0.3682  0.4695
 7786TIP3    H244774   1.575   1.304   2.744  1.4871  0.1528  0.3136
 7787TIP3   OH244775   3.589   2.555   5.191 -0.7608  0.3489  0.2197
 7787TIP3    H144776   3.646   2.479   5.178  0.7312  1.5749 -0.6925
 7787TIP3    H244777   3.630   2.602   5.264  0.2393  1.9226 -1.2717
 7788TIP3   OH244778   4.697   1.907  12.744  0.2199  0.0551  0.2193
 7788TIP3    H144779   4.658   1.911  12.831  0.1716  0.8139  0.1714
 7788TIP3    H244780   4.656   1.831  12.702 -1.5980  1.1235 -0.0196
 7789TIP3   OH244781   6.460   3.884   3.489 -0.1822 -0.0235  0.2649
 7789TIP3    H144782   6.497   3.971   3.473  0.9201 -0.4946  0.1482
 7789TIP3    H244783   6.496   3.857   3.573 -2.1546  0.4502  1.3209
 7790TIP3   OH244784   5.196   3.296  15.748  0.1465  0.1845 -0.3463
 7790TIP3    H144785   5.158   3.294  15.836  1.2579  0.0234  0.1473
 7790TIP3    H244786   5.182   3.208  15.714  0.3495  0.0334 -0.0451
 7791TIP3   OH244787   5.475   4.879   1.932  0.3711 -0.3010  0.1601
 7791TIP3    H144788   5.453   4.910   2.020  3.6560  2.4498  0.1926
 7791TIP3    H244789   5.408   4.918   1.876  0.1216  0.6694  1.0994
 7792TIP3   OH244790   1.275   1.141  16.947 -0.3467  0.4788  0.0547
 7792TIP3    H144791   1.283   1.233  16.925 -0.7554  0.3179 -0.8284
 7792TIP3    H244792   1.365   1.108  16.946 -0.2323  0.7947  0.0269
 7793TIP3   OH244793   2.084   3.856   4.283 -0.3747 -0.1520  0.2677
 7793TIP3    H144794   1.994   3.888   4.281  0.4795  2.5625 -0.4513
 7793TIP3    H244795   2.084   3.779   4.226 -1.9149  0.8465 -1.1709
 7794TIP3   OH244796   0.178   6.624  16.219  0.4761 -0.1824  0.5838
 7794TIP3    H144797   0.249   6.638  16.282  0.4115  0.4714  0.5211
 7794TIP3    H244798   0.104   6.593  16.272  0.3119  0.7059  0.8937
 7795TIP3   OH244799   1.753   0.571  15.685 -0.7908  0.1764  0.2480
 7795TIP3    H144800   1.769   0.543  15.775  0.7559  0.4304  0.0662
 7795TIP3    H244801   1.782   0.662  15.682  0.5871 -0.2717 -0.8713
 7796TIP3   OH244802   1.886   3.476   2.456  0.0303  0.6510 -0.3901
 7796TIP3    H144803   1.975   3.465   2.488 -0.5452 -0.6149  0.8743
 7796TIP3    H244804   1.868   3.396   2.407 -0.8084  0.3567  0.3784
 7797TIP3   OH244805   4.086   5.044  15.915 -0.0657 -0.1745  0.4166
 7797TIP3    H144806   4.114   4.968  15.864  0.2717  1.7425 -2.4315
 7797TIP3    H244807   3.991   5.048  15.901 -0.4224 -1.1571  2.2391
 7798TIP3   OH244808   4.552   3.415  14.590 -0.2511  0.3235  0.2515
 7798TIP3    H144809   4.611   3.356  14.543 -0.5293  0.8284 -0.7713
 7798TIP3    H244810   4.522   3.364  14.665  0.4793 -0.3896  0.0802
 7799TIP3   OH244811   0.159   3.885  14.001 -0.0368 -0.3722 -0.1810
 7799TIP3    H144812   0.103   3.962  13.998 -0.9672 -1.0610 -1.3848
 7799TIP3    H244813   0.209   3.895  14.082  0.0605  1.6122 -0.4402
 7800TIP3   OH244814   1.428   4.182   0.451  0.1405  0.0381  0.2224
 7800TIP3    H144815   1.399   4.137   0.372  1.7761  0.5090 -0.6885
 7800TIP3    H244816   1.501   4.129   0.483  0.9331  1.0539  0.1317
 7801TIP3   OH244817   3.528   1.550  11.139  0.0048 -0.4646  0.6563
 7801TIP3    H144818   3.594   1.568  11.072 -2.3803  2.3910 -1.1567
 7801TIP3    H244819   3.447   1.538  11.090 -1.3227 -1.2113  2.9219
 7802TIP3   OH244820   5.858   1.192   3.015  0.1300  0.4389 -0.3943
 7802TIP3    H144821   5.920   1.227   2.952  1.1619 -0.5721  0.0200
 7802TIP3    H244822   5.901   1.205   3.100  0.7784 -2.1322 -0.2524
 7803TIP3   OH244823   2.028   2.125   1.359  0.3493 -0.5158  0.5560
 7803TIP3    H144824   2.119   2.128   1.389  1.8944  2.2724 -3.4762
 7803TIP3    H244825   2.001   2.217   1.357 -1.0436 -0.8856 -1.9563
 7804TIP3   OH244826   0.227   6.265   1.579  0.2454  0.7574  0.0416
 7804TIP3    H144827   0.180   6.182   1.591 -0.7918  1.3181 -0.0247
 7804TIP3    H244828   0.278   6.276   1.659  0.7785 -0.1733 -0.1484
 7805TIP3   OH244829   4.505   0.905  15.746 -0.2401  0.8560  0.0032
 7805TIP3    H144830   4.441   0.839  15.721 -0.1219  0.8641 -0.3204
 7805TIP3    H244831   4.538   0.876  15.831  0.5397 -0.0384 -0.5881
 7806TIP3   OH244832   2.518   0.487   5.378 -0.2869  0.1018 -0.1024
 7806TIP3    H144833   2.563   0.410   5.343 -1.6305 -1.1256  0.7547
 7806TIP3    H244834   2.570   0.513   5.454  1.3661  1.3898 -1.6135
 7807TIP3   OH244835   1.012   1.092  16.753  0.2518  0.0943 -0.5221
 7807TIP3    H144836   1.062   1.047  16.821  1.9937  2.1847 -0.3182
 7807TIP3    H244837   0.925   1.050  16.755  1.1611 -1.8867  0.9107
 7808TIP3   OH244838   0.730   5.102  11.619 -0.2695  0.2138  0.7934
 7808TIP3    H144839   0.783   5.087  11.540 -2.5725 -0.1376 -0.8093
 7808TIP3    H244840   0.719   5.015  11.657 -1.8842 -0.1874 -0.4582
 7809TIP3   OH244841   4.844   3.739   1.550 -0.0390 -0.1286  0.0871
 7809TIP3    H144842   4.787   3.807   1.515  0.7481  0.1009 -0.8131
 7809TIP3    H244843   4.793   3.697   1.619 -0.2056  1.9449  1.2872
 7810TIP3   OH244844   0.904   6.213  14.652  0.7248  0.3007 -0.0879
 7810TIP3    H144845   0.982   6.158  14.643  1.2894  0.5500  2.5869
 7810TIP3    H244846   0.893   6.224  14.746 -0.0259  3.8168 -0.4455
 7811TIP3   OH244847   5.317   4.459  16.568 -0.6245 -0.2369  0.2540
 7811TIP3    H144848   5.400   4.475  16.612 -0.5757 -0.5336  0.2676
 7811TIP3    H244849   5.305   4.535  16.511  0.4388 -0.9603 -0.9648
 7812TIP3   OH244850   1.784   0.006   3.470 -0.5050  1.0144  0.1708
 7812TIP3    H144851   1.726   0.058   3.415 -1.5844  0.0400  0.3628
 7812TIP3    H244852   1.830   0.070   3.524 -2.6658  1.7418  1.2601
 7813TIP3   OH244853   0.775   5.251   4.717 -0.2912  0.0765  0.4639
 7813TIP3    H144854   0.855   5.218   4.759  2.4619  2.0993 -2.5980
 7813TIP3    H244855   0.757   5.188   4.647  0.8377  1.2724 -1.0036
 7814TIP3   OH244856   2.339   5.141  12.598 -0.1438 -0.2356 -0.6555
 7814TIP3    H144857   2.253   5.177  12.578 -0.7758 -1.9211 -1.1955
 7814TIP3    H244858   2.337   5.124  12.692 -0.1068  0.4131 -0.5321
 7815TIP3   OH244859   5.572   3.681  11.124 -0.4701  0.0148  0.0849
 7815TIP3    H144860   5.557   3.756  11.066  0.0427 -0.6313 -0.9144
 7815TIP3    H244861   5.573   3.605  11.065 -1.6273 -0.8661  1.1396
 7816TIP3   OH244862   4.246   2.524   6.556 -0.0151 -0.2165  0.4047
 7816TIP3    H144863   4.202   2.498   6.476 -0.2319  0.9603  0.1302
 7816TIP3    H244864   4.184   2.581   6.601 -0.0167 -1.0996  1.5655
 7817TIP3   OH244865   3.187   4.232  15.974  0.1966 -0.3996 -0.3644
 7817TIP3    H144866   3.110   4.185  15.943 -0.0120 -0.0846 -0.3355
 7817TIP3    H244867   3.200   4.302  15.910 -1.0281  1.0817  0.8885
 7818TIP3   OH244868   2.569   2.435   3.365  0.1913 -0.7037  0.1587
 7818TIP3    H144869   2.522   2.499   3.311  1.4312 -0.3165 -0.4806
 7818TIP3    H244870   2.501   2.374   3.393 -0.7679  0.0658 -0.4111
 7819TIP3   OH244871   5.606   4.822  13.901 -0.1770 -0.2437 -0.1850
 7819TIP3    H144872   5.694   4.802  13.869  0.3024  2.2457 -0.6724
 7819TIP3    H244873   5.608   4.797  13.993  1.0434 -0.2559 -0.1964
 7820TIP3   OH244874   0.686   2.370  10.915 -0.9960  0.3884  0.5110
 7820TIP3    H144875   0.668   2.288  10.961 -0.3203  0.0071  0.1019
 7820TIP3    H244876   0.600   2.410  10.903 -1.6862 -1.5820 -1.7619
 7821TIP3   OH244877   3.839   4.669   3.410  0.1869  0.5959 -0.1693
 7821TIP3    H144878   3.834   4.738   3.476  0.4947 -0.4810  1.0357
 7821TIP3    H244879   3.908   4.611   3.442 -0.9999 -1.0092 -0.3792
 7822TIP3   OH244880   2.216   5.745   1.959 -0.4023 -0.0995 -0.1794
 7822TIP3    H144881   2.161   5.689   1.904 -2.0352  0.0358  1.2187
 7822TIP3    H244882   2.181   5.833   1.947  1.4134  0.5072 -1.4729
 7823TIP3   OH244883   0.559   2.340  15.788 -0.4640  0.3319  0.1180
 7823TIP3    H144884   0.503   2.301  15.722  1.5126 -0.1819 -1.3715
 7823TIP3    H244885   0.553   2.280  15.863 -1.2104 -0.1812 -0.3394
 7824TIP3   OH244886   1.673   2.771  14.319  0.1999 -0.9122 -0.4647
 7824TIP3    H144887   1.738   2.744  14.384  1.6079 -0.2948 -1.5682
 7824TIP3    H244888   1.602   2.707  14.329  1.2060 -1.9451  0.3998
 7825TIP3   OH244889   4.670   4.065  11.973 -0.5270  0.1530  0.5985
 7825TIP3    H144890   4.727   4.005  11.924 -1.8363 -2.5279  2.1347
 7825TIP3    H244891   4.642   4.129  11.908  0.8489 -0.9484 -1.1916
 7826TIP3   OH244892   6.109   3.399   3.414  0.0562 -0.5517  0.1989
 7826TIP3    H144893   6.082   3.476   3.364 -0.0168  0.8045  2.2206
 7826TIP3    H244894   6.029   3.346   3.420 -0.3300  0.0085  0.1576
 7827TIP3   OH244895   1.401   1.366  15.409 -0.0904 -0.7702  0.3712
 7827TIP3    H144896   1.320   1.416  15.418 -1.1260 -2.3279 -0.0196
 7827TIP3    H244897   1.469   1.433  15.398 -1.2458  0.5770  1.1325
 7828TIP3   OH244898   4.988   3.755   2.719 -0.5052 -0.0944 -0.3199
 7828TIP3    H144899   4.902   3.770   2.679 -0.3970 -0.2352 -0.6031
 7828TIP3    H244900   5.049   3.802   2.663 -0.7027  2.7520  1.5855
 7829TIP3   OH244901   0.592   3.829  14.248 -0.0436  0.4725 -0.2022
 7829TIP3    H144902   0.593   3.889  14.174 -1.2925 -0.3798 -0.9699
 7829TIP3    H244903   0.567   3.745  14.210 -2.3058  0.3280  1.3809
 7830TIP3   OH244904   6.789   5.745   0.564 -0.5787  0.1497  0.2919
 7830TIP3    H144905   6.742   5.818   0.524 -1.9556 -0.4395  0.7667
 7830TIP3    H244906   6.799   5.769   0.656 -1.9894 -0.6753  0.6941
 7831TIP3   OH244907   6.703   1.265   2.673  0.6403 -0.0953 -0.0493
 7831TIP3    H144908   6.621   1.312   2.657  1.4113  0.7741 -1.6270
 7831TIP3    H244909   6.688   1.178   2.636  0.0601 -0.3409  0.7147
 7832TIP3   OH244910   6.605   1.962  12.571 -0.4783  0.0045  0.7965
 7832TIP3    H144911   6.546   1.939  12.500  0.6425  1.0282 -0.5203
 7832TIP3    H244912   6.678   1.901  12.563  0.3585  1.0441  0.0830
 7833TIP3   OH244913   0.737   0.144  15.884  0.2079 -0.0581  0.6982
 7833TIP3    H144914   0.816   0.193  15.906  0.2342 -0.1369  0.7827
 7833TIP3    H244915   0.735   0.142  15.789 -0.6834  1.5471  0.6393
 7834TIP3   OH244916   6.548   4.669   4.036  0.4732 -0.6279 -0.1309
 7834TIP3    H144917   6.529   4.576   4.052  1.3557 -0.9909 -1.0639
 7834TIP3    H244918   6.472   4.701   3.989  0.7395 -1.2520 -1.0260
 7835TIP3   OH244919   6.282   4.908   0.503  0.5434  0.1146 -0.2930
 7835TIP3    H144920   6.263   4.828   0.455 -0.3298 -0.0957  0.3730
 7835TIP3    H244921   6.201   4.927   0.551  0.5495  1.6902 -0.8522
 7836TIP3   OH244922   5.719   5.887   5.937 -0.2398 -0.1197  0.2191
 7836TIP3    H144923   5.714   5.819   6.004  2.4204  0.2232  0.8747
 7836TIP3    H244924   5.629   5.916   5.925 -0.8964 -0.6700  3.1538
 7837TIP3   OH244925   2.517   0.920   2.767 -0.4983  0.4119 -0.4421
 7837TIP3    H144926   2.461   0.991   2.798  0.5562  1.3755 -0.6908
 7837TIP3    H244927   2.604   0.960   2.759  0.2733 -1.0892  0.1149
 7838TIP3   OH244928   5.707   4.941  14.936 -0.2015  0.3658  0.1976
 7838TIP3    H144929   5.652   4.941  15.014  0.5868  3.4693  0.8816
 7838TIP3    H244930   5.794   4.918  14.968 -0.3551 -1.1122 -0.3215
 7839TIP3   OH244931   4.721   2.392  10.533  0.1851  0.4522  0.0927
 7839TIP3    H144932   4.748   2.425  10.447 -1.3197 -1.5007 -1.2358
 7839TIP3    H244933   4.803   2.371  10.578  1.0192  2.0184 -0.6250
 7840TIP3   OH244934   0.315   6.576  10.503  0.1215  0.0524  0.0026
 7840TIP3    H144935   0.239   6.610  10.549 -1.1188 -0.9204 -1.2356
 7840TIP3    H244936   0.306   6.609  10.413  0.8441 -0.5521 -0.3078
 7841TIP3   OH244937   5.142   5.892  15.557  0.1818  0.3078  0.6685
 7841TIP3    H144938   5.069   5.869  15.615  0.2106  1.4619  1.1918
 7841TIP3    H244939   5.190   5.810  15.546  0.5564  0.1781  2.8240
 7842TIP3   OH244940   0.491   0.640   5.874  0.2611 -0.0060 -0.1103
 7842TIP3    H144941   0.476   0.658   5.781  0.7022 -1.9085 -0.5785
 7842TIP3    H244942   0.565   0.580   5.875 -1.3873 -2.1290  1.2816
 7843TIP3   OH244943   0.799   6.448   1.849 -0.3394 -0.2089  0.1698
 7843TIP3    H144944   0.818   6.356   1.831 -0.7571  0.0318 -1.7821
 7843TIP3    H244945   0.725   6.468   1.792 -1.8156  0.7391  2.3203
 7844TIP3   OH244946   0.900   5.606  12.727 -0.2677  0.6101  0.0150
 7844TIP3    H144947   0.808   5.579  12.723 -0.0329 -0.0379 -2.0212
 7844TIP3    H244948   0.945   5.531  12.765 -0.5654  0.9375  1.0370
 7845TIP3   OH244949   3.747   1.672  12.277  0.3829 -0.4091 -0.1388
 7845TIP3    H144950   3.711   1.664  12.189 -0.1157  1.9176 -0.2194
 7845TIP3    H244951   3.674   1.650  12.335 -0.2367  1.0661 -0.3241
 7846TIP3   OH244952   2.127   0.992   1.837  0.1050  0.0181 -0.7902
 7846TIP3    H144953   2.158   0.923   1.895  1.8920  1.8311  0.5734
 7846TIP3    H244954   2.204   1.017   1.786 -0.6702  0.5730 -1.7254
 7847TIP3   OH244955   3.883   4.591   3.723 -0.0321 -0.5128  0.1522
 7847TIP3    H144956   3.791   4.615   3.736  0.6612  1.6929  1.5207
 7847TIP3    H244957   3.882   4.496   3.714 -2.4065 -0.5658  0.4007
 7848TIP3   OH244958   2.593   0.563  14.729  0.2646  0.1183  0.4916
 7848TIP3    H144959   2.513   0.527  14.765 -0.5522  0.7561 -0.6030
 7848TIP3    H244960   2.587   0.657  14.747  0.1839  0.3401 -0.6042
 7849TIP3   OH244961   5.361   1.732   6.424 -0.3381  0.0304  0.0596
 7849TIP3    H144962   5.454   1.755   6.427 -0.7789  2.0190 -0.3690
 7849TIP3    H244963   5.332   1.734   6.515  0.0714 -0.8737  0.2246
 7850TIP3   OH244964   6.314   5.002  16.683  0.6822  0.3127  0.3006
 7850TIP3    H144965   6.299   4.945  16.759 -0.8553 -0.5358 -0.5940
 7850TIP3    H244966   6.254   5.075  16.696  1.4747  0.9303  0.6112
 7851TIP3   OH244967   5.727   5.093   3.355  0.2601 -0.2299  0.4356
 7851TIP3    H144968   5.683   5.145   3.288  0.9020 -1.8041 -1.3172
 7851TIP3    H244969   5.805   5.144   3.378  0.9662 -0.4157 -1.3744
 7852TIP3   OH244970   2.510   6.765  11.401  0.5060 -0.0476  0.0172
 7852TIP3    H144971   2.482   6.856  11.416  0.1091  0.3437 -2.6298
 7852TIP3    H244972   2.428   6.716  11.396  0.6820 -0.3814  0.3305
 7853TIP3   OH244973   0.347   1.230  13.387  0.0968 -0.3349  0.3014
 7853TIP3    H144974   0.346   1.301  13.450 -3.4921  0.5616 -0.5467
 7853TIP3    H244975   0.264   1.184  13.401  0.2895 -1.6017 -2.1247
 7854TIP3   OH244976   0.894   3.226   3.504 -0.3148  0.0635 -0.2509
 7854TIP3    H144977   0.963   3.250   3.441  1.2250 -2.8400  0.1371
 7854TIP3    H244978   0.903   3.289   3.575  1.2402  0.4226 -0.7238
 7855TIP3   OH244979   4.295   3.744  15.972 -0.0196 -0.3199  0.1780
 7855TIP3    H144980   4.240   3.724  15.896 -0.3207 -0.4725  0.4375
 7855TIP3    H244981   4.242   3.802  16.026  1.2341  2.2071 -1.0934
 7856TIP3   OH244982   2.644   2.087   0.652 -0.5121  0.0285 -0.0905
 7856TIP3    H144983   2.617   2.175   0.625 -1.2600 -0.0362  0.4040
 7856TIP3    H244984   2.577   2.029   0.617 -1.1047 -0.1282  1.2562
 7857TIP3   OH244985   3.645   2.879  11.023 -0.0364  0.2577 -0.4497
 7857TIP3    H144986   3.692   2.959  11.002  0.1405 -0.0085 -1.1075
 7857TIP3    H244987   3.666   2.819  10.951  2.4922 -1.5238  1.6036
 7858TIP3   OH244988   4.467   6.074  14.942  0.1252 -0.4546  0.3178
 7858TIP3    H144989   4.533   6.138  14.913 -0.5987  0.6752  1.0982
 7858TIP3    H244990   4.510   6.026  15.013  0.7008 -0.9067 -0.3247
 7859TIP3   OH244991   6.559   4.390  16.179 -0.1989 -0.2021 -0.0717
 7859TIP3    H144992   6.652   4.395  16.198 -0.3187  1.3849  0.2035
 7859TIP3    H244993   6.518   4.376  16.264 -0.3378  1.3565  0.1558
 7860TIP3   OH244994   2.725   4.066  16.455 -0.1815 -0.0884 -0.4548
 7860TIP3    H144995   2.737   4.101  16.367  0.2989 -1.8189 -1.1057
 7860TIP3    H244996   2.789   4.113  16.508 -1.7419  2.3461 -0.5718
 7861TIP3   OH244997   0.809   1.901  14.862 -0.5552  0.7361 -0.4573
 7861TIP3    H144998   0.771   1.918  14.948  0.0899  1.2956 -0.2773
 7861TIP3    H244999   0.821   1.806  14.860 -1.1553  0.6487 -0.1817
 7862TIP3   OH245000   3.877   0.265  13.771 -0.1235 -0.0923  0.3706
 7862TIP3    H145001   3.955   0.236  13.819  1.1850 -0.6129 -1.9548
 7862TIP3    H245002   3.891   0.359  13.757 -0.2196 -0.0606  0.4841
 7863TIP3   OH245003   4.733   1.907  16.511  0.3637 -0.0390  0.6485
 7863TIP3    H145004   4.773   1.918  16.424 -1.2435 -2.4503 -0.5048
 7863TIP3    H245005   4.737   1.994  16.550  3.2533  0.6443 -0.8626
 7864TIP3   OH245006   3.480   5.012   5.772 -0.3841 -0.2547  0.2333
 7864TIP3    H145007   3.522   4.959   5.705 -0.0582  0.1180  0.1355
 7864TIP3    H245008   3.494   4.964   5.853 -0.1897 -0.3745  0.1290
 7865TIP3   OH245009   4.040   1.993   6.584  0.6376 -0.2175 -0.1740
 7865TIP3    H145010   3.982   1.918   6.568  0.0522  0.1250  0.2680
 7865TIP3    H245011   4.127   1.962   6.562  0.5496 -1.3624  0.9671
 7866TIP3   OH245012   1.325   5.621  12.088 -0.0117 -0.2341  0.4075
 7866TIP3    H145013   1.411   5.657  12.113  1.5246 -1.8447 -2.0942
 7866TIP3    H245014   1.346   5.544  12.036 -2.9728  0.0807 -1.4782
 7867TIP3   OH245015   0.521   4.858   0.308  0.1303 -0.2880 -0.2326
 7867TIP3    H145016   0.428   4.881   0.313 -0.0824 -1.3524  2.0971
 7867TIP3    H245017   0.562   4.936   0.270 -1.1748  2.1131  2.7988
 7868TIP3   OH245018   3.546   3.199   3.363 -0.1968  0.2010 -0.4613
 7868TIP3    H145019   3.501   3.178   3.445  0.0722 -0.1560 -0.4039
 7868TIP3    H245020   3.544   3.295   3.359 -2.3523  0.1719 -1.2415
 7869TIP3   OH245021   4.533   6.503   5.126  0.3142  0.1489  0.1858
 7869TIP3    H145022   4.586   6.425   5.111  0.0735  0.0212 -0.0074
 7869TIP3    H245023   4.573   6.545   5.202 -0.3308 -0.8598  1.1121
 7870TIP3   OH245024   0.006   3.338   4.267 -0.5486 -0.4379 -0.0364
 7870TIP3    H145025   0.014   3.430   4.294 -0.7860 -0.5500  0.4221
 7870TIP3    H245026   0.091   3.299   4.287 -0.2517 -0.1894 -0.7581
 7871TIP3   OH245027   6.700   2.438  16.176  0.1260  0.3153 -0.1226
 7871TIP3    H145028   6.738   2.406  16.094 -0.5789  0.8972 -0.6871
 7871TIP3    H245029   6.692   2.360  16.231  2.5088  0.2069  0.1990
 7872TIP3   OH245030   2.883   3.875  16.139 -0.7097 -0.2003  0.2434
 7872TIP3    H145031   2.960   3.918  16.175 -0.3529 -1.0088  0.4787
 7872TIP3    H245032   2.813   3.940  16.147  0.2399  1.1068 -1.3521
 7873TIP3   OH245033   4.322   2.942  13.827 -0.3375  0.0106  0.0829
 7873TIP3    H145034   4.410   2.978  13.814  0.0782 -0.4342  1.5509
 7873TIP3    H245035   4.298   2.969  13.916 -0.0719 -3.1704  1.2135
 7874TIP3   OH245036   6.679   5.567  13.733  0.3430 -0.2583  0.8321
 7874TIP3    H145037   6.649   5.652  13.766  0.0055 -0.8576  2.1598
 7874TIP3    H245038   6.625   5.503  13.780 -0.1247 -1.2040 -0.8983
 7875TIP3   OH245039   1.931   6.548   5.530  0.3473  0.5440 -0.1973
 7875TIP3    H145040   1.982   6.474   5.498 -0.4049  0.1741 -0.5722
 7875TIP3    H245041   1.977   6.577   5.609  1.5677  0.7142 -0.9488
 7876TIP3   OH245042   2.577   3.212  16.013  0.3128  0.3537  0.3497
 7876TIP3    H145043   2.490   3.247  16.030 -0.4518 -1.5861  0.7531
 7876TIP3    H245044   2.574   3.123  16.048  2.7546  0.5189  1.1591
 7877TIP3   OH245045   0.962   5.671  14.310 -0.6097 -0.3243 -0.2408
 7877TIP3    H145046   0.990   5.759  14.334 -2.1144  0.5232 -1.4104
 7877TIP3    H245047   0.942   5.628  14.394  0.6182  0.2268  0.3710
 7878TIP3   OH245048   1.669   4.429  15.818  0.0010  0.0629  0.0231
 7878TIP3    H145049   1.671   4.337  15.791 -1.6702  0.0397 -0.1751
 7878TIP3    H245050   1.710   4.476  15.746 -1.2880 -0.3394 -1.0298
 7879TIP3   OH245051   6.220   6.474   5.651  0.4703 -0.1171  0.1564
 7879TIP3    H145052   6.250   6.535   5.719 -0.8422  1.3799 -0.5501
 7879TIP3    H245053   6.227   6.524   5.570 -2.1338 -0.3075 -0.2690
 7880TIP3   OH245054   2.578   5.375  16.143 -0.5285  0.5304 -0.9413
 7880TIP3    H145055   2.556   5.325  16.063 -1.1225 -0.2203 -0.3291
 7880TIP3    H245056   2.673   5.383  16.141 -0.2372 -2.0291 -0.2710
 7881TIP3   OH245057   2.786   6.364  15.155 -0.8319 -0.5141 -1.0121
 7881TIP3    H145058   2.878   6.373  15.130 -1.5988 -0.0364 -4.1341
 7881TIP3    H245059   2.780   6.278  15.195  0.9106 -0.7303 -1.1425
 7882TIP3   OH245060   1.623   0.892  13.407  0.3660  0.4957  0.8527
 7882TIP3    H145061   1.556   0.826  13.419 -0.8042  1.2810 -0.9652
 7882TIP3    H245062   1.588   0.970  13.452  1.0351  0.3303  1.6810
 7883TIP3   OH245063   2.640   0.392  14.995 -0.3306 -0.3183  0.6455
 7883TIP3    H145064   2.586   0.419  14.921 -1.0663 -0.4104  1.1326
 7883TIP3    H245065   2.608   0.305  15.018  3.0388 -2.5112 -1.8963
 7884TIP3   OH245066   6.592   4.690   1.816 -0.5520 -0.3516 -0.0298
 7884TIP3    H145067   6.595   4.625   1.886  1.3856  1.3034  1.5775
 7884TIP3    H245068   6.681   4.692   1.781  0.0563  2.6775  1.3308
 7885TIP3   OH245069   3.089   3.873   0.209 -0.5589 -0.1294  0.0580
 7885TIP3    H145070   3.158   3.825   0.255 -1.2515  0.6201  1.9945
 7885TIP3    H245071   3.026   3.895   0.278 -1.6197  1.1413 -1.2688
 7886TIP3   OH245072   3.744   2.301   5.920 -0.2623 -0.8655 -0.0018
 7886TIP3    H145073   3.837   2.286   5.932  0.0980  0.7799 -0.4388
 7886TIP3    H245074   3.702   2.224   5.957  1.2420 -1.3243  0.8217
 7887TIP3   OH245075   4.170   4.982   5.314  0.3623  0.1355 -0.3382
 7887TIP3    H145076   4.242   4.939   5.270  0.0725 -0.8732  0.1415
 7887TIP3    H245077   4.097   4.920   5.309  0.0995  0.3051  0.8515
 7888TIP3   OH245078   6.624   4.809  15.938  0.1147 -0.0919  0.5170
 7888TIP3    H145079   6.693   4.874  15.921 -0.8595  0.4645 -1.5612
 7888TIP3    H245080   6.543   4.854  15.916 -0.9664 -0.8097  2.7193
 7889TIP3   OH245081   3.931   3.739   0.109  0.1222  0.0693 -0.2695
 7889TIP3    H145082   3.846   3.781   0.099  1.0396  2.7589  1.8154
 7889TIP3    H245083   3.987   3.780   0.044  0.7879  1.5226  1.1447
 7890TIP3   OH245084   4.164   3.459   2.582  0.1832  0.5966 -0.2729
 7890TIP3    H145085   4.152   3.525   2.514 -1.6331 -0.3346 -0.9179
 7890TIP3    H245086   4.076   3.445   2.618  0.3871 -1.8933 -0.5848
 7891TIP3   OH245087   3.057   1.632   0.917  0.5738  0.3659 -0.1635
 7891TIP3    H145088   3.110   1.566   0.961  0.7645  0.4997 -0.1871
 7891TIP3    H245089   3.090   1.716   0.951 -1.1237  0.4175  1.5273
 7892TIP3   OH245090   0.723   1.117   1.607  0.1614 -0.2440  0.4890
 7892TIP3    H145091   0.811   1.102   1.641 -0.1753 -1.2043  0.9748
 7892TIP3    H245092   0.665   1.067   1.665 -0.4618 -1.7041 -1.2721
 7893TIP3   OH245093   4.889   3.316  16.189 -0.5420  0.0748  0.0436
 7893TIP3    H145094   4.934   3.371  16.254  0.7399  1.4232 -1.8896
 7893TIP3    H245095   4.838   3.254  16.242  1.3497  0.3242  2.3463
 7894TIP3   OH245096   5.668   0.750  16.004  0.1169 -0.5319 -0.1515
 7894TIP3    H145097   5.655   0.827  15.948  0.6948 -0.3168  0.0088
 7894TIP3    H245098   5.757   0.758  16.037  0.1926 -1.2890 -0.1537
 7895TIP3   OH245099   0.375   2.481   2.698  0.1398  0.0188 -0.3710
 7895TIP3    H145100   0.460   2.437   2.703  0.2432 -0.0273 -1.9624
 7895TIP3    H245101   0.393   2.570   2.726  1.0630  0.4045 -2.0127
 7896TIP3   OH245102   3.962   6.078  13.986 -0.1779 -0.2612  0.1691
 7896TIP3    H145103   4.049   6.113  13.971 -0.3888 -0.3069 -1.2570
 7896TIP3    H245104   3.918   6.145  14.038  0.2477  0.4191 -0.3315
 7897TIP3   OH245105   1.993   4.994   0.808  0.4597 -0.5592 -0.6636
 7897TIP3    H145106   2.024   4.959   0.725  2.6742  0.2063 -0.2302
 7897TIP3    H245107   2.052   5.067   0.827 -0.9823  0.3001  0.8240
 7898TIP3   OH245108   2.436   0.226  11.426 -0.3220 -0.3098  0.6310
 7898TIP3    H145109   2.383   0.258  11.499  0.2703  0.6095  0.6829
 7898TIP3    H245110   2.461   0.305  11.378 -0.3715 -0.8685 -0.3432
 7899TIP3   OH245111   4.514   4.493  11.767 -0.0174 -0.2103 -0.7608
 7899TIP3    H145112   4.582   4.510  11.702 -0.4498 -0.7358 -1.3579
 7899TIP3    H245113   4.441   4.548  11.740  0.2944  0.6536  0.1054
 7900TIP3   OH245114   3.511   6.584  11.449  0.1189  0.2403 -0.1927
 7900TIP3    H145115   3.583   6.560  11.508  0.1136  1.2825  0.2533
 7900TIP3    H245116   3.555   6.627  11.376  0.0172  0.0892 -0.3423
 7901TIP3   OH245117   5.806   4.288   5.615 -0.1408  0.3766  0.1521
 7901TIP3    H145118   5.896   4.270   5.642 -0.2147 -0.1317  0.0733
 7901TIP3    H245119   5.773   4.349   5.680 -0.5640 -1.4190  1.7130
 7902TIP3   OH245120   5.599   1.026  11.225 -0.0881  0.6281  0.2556
 7902TIP3    H145121   5.514   0.984  11.242 -0.8732  2.1378  0.2122
 7902TIP3    H245122   5.647   0.962  11.172 -0.2670 -1.2322  2.2017
 7903TIP3   OH245123   5.045   2.280   5.786  0.3215  0.1515 -0.0844
 7903TIP3    H145124   5.110   2.227   5.833 -1.5580 -1.7498  0.5308
 7903TIP3    H245125   5.059   2.258   5.694  0.5390 -0.2769  0.0467
 7904TIP3   OH245126   2.127   1.686   2.576 -0.0137 -0.3066  0.1857
 7904TIP3    H145127   2.101   1.618   2.513  0.2729  0.2723 -0.5661
 7904TIP3    H245128   2.222   1.694   2.566 -0.1353  0.7304 -0.2823
 7905TIP3   OH245129   5.254   3.739   2.506 -0.3946 -0.1096 -0.1833
 7905TIP3    H145130   5.285   3.706   2.590  0.8970 -0.2362 -0.6926
 7905TIP3    H245131   5.200   3.815   2.528  1.0974  0.7356  0.6769
 7906TIP3   OH245132   6.013   1.633   4.001  0.2544  0.5852  0.6045
 7906TIP3    H145133   5.918   1.648   4.004  0.2864  0.9066  0.0211
 7906TIP3    H245134   6.038   1.624   4.093 -0.4406 -0.1354  0.7422
 7907TIP3   OH245135   5.919   6.557  16.414  0.1529 -0.1467  0.2162
 7907TIP3    H145136   6.005   6.517  16.423 -0.2007 -0.8791  0.4427
 7907TIP3    H245137   5.892   6.536  16.324  0.7788  1.2692 -0.3380
 7908TIP3   OH245138   3.825   3.854  12.129 -0.0574  0.1423  0.1298
 7908TIP3    H145139   3.893   3.824  12.070 -0.2423  0.7798 -0.4157
 7908TIP3    H245140   3.862   3.843  12.217  1.2468  1.6765 -0.2039
 7909TIP3   OH245141   4.793   4.173   4.692 -0.0983  0.6808 -0.6486
 7909TIP3    H145142   4.778   4.237   4.762  1.8071  0.5334 -0.0341
 7909TIP3    H245143   4.878   4.198   4.655  0.6399 -1.4218 -0.4725
 7910TIP3   OH245144   5.854   1.035  14.015 -0.4467  0.0464 -0.0764
 7910TIP3    H145145   5.791   1.073  13.954 -2.0055 -0.0256  1.4443
 7910TIP3    H245146   5.895   0.964  13.966 -0.3427  1.1353 -1.6288
 7911TIP3   OH245147   1.075   4.935  11.969  0.6683  0.1827 -0.4410
 7911TIP3    H145148   1.156   4.896  12.001  0.7251  0.4346 -0.2748
 7911TIP3    H245149   1.102   5.015  11.925  0.3826  1.2182  1.1520
 7912TIP3   OH245150   3.868   1.325  11.881  0.0259 -0.4469 -0.1996
 7912TIP3    H145151   3.882   1.404  11.829  1.9425 -0.8150 -0.3189
 7912TIP3    H245152   3.837   1.259  11.819 -1.1301  0.0464 -0.1816
 7913TIP3   OH245153   6.090   4.973  14.023 -0.6522  0.1519 -0.1518
 7913TIP3    H145154   6.118   5.064  14.035  1.8186 -0.5865  0.1033
 7913TIP3    H245155   6.073   4.966  13.929  0.9861  0.4219 -0.4914
 7914TIP3   OH245156   0.927   4.390   3.810  0.1170  0.0380 -0.2725
 7914TIP3    H145157   0.916   4.425   3.721 -0.4606 -0.7414 -0.5143
 7914TIP3    H245158   0.975   4.459   3.856  0.7142  0.3207 -1.2732
 7915TIP3   OH245159   1.474   0.013   0.464 -0.5767  0.3009  0.4102
 7915TIP3    H145160   1.497   0.039   0.553 -0.5302  0.5817  0.3171
 7915TIP3    H245161   1.482   0.094   0.412 -0.1136  0.0333  0.0558
 7916TIP3   OH245162   6.405   5.968   0.713  0.3206  0.5714  0.1715
 7916TIP3    H145163   6.484   5.921   0.740  0.5051  0.6038 -0.3041
 7916TIP3    H245164   6.435   6.028   0.645 -0.1285  0.5464 -0.0505
 7917TIP3   OH245165   2.015   3.895   1.192  0.2718 -0.2195  0.0851
 7917TIP3    H145166   1.983   3.980   1.161  0.8880  0.4467  1.1831
 7917TIP3    H245167   2.106   3.892   1.163  0.6112  0.0500  1.0724
 7918TIP3   OH245168   1.036   4.482   4.942  0.3173  0.0409 -0.3007
 7918TIP3    H145169   0.945   4.477   4.913  0.2247  0.6597 -0.1227
 7918TIP3    H245170   1.082   4.421   4.885  0.0092  0.6921 -1.2679
 7919TIP3   OH245171   3.588   1.166   4.970 -0.7601  0.2501 -0.4747
 7919TIP3    H145172   3.603   1.216   4.890  0.8309  0.4026 -0.1188
 7919TIP3    H245173   3.516   1.212   5.014  0.3702  2.0243 -0.3589
 7920TIP3   OH245174   4.597   5.771   4.045  0.1130 -0.1058 -0.0138
 7920TIP3    H145175   4.507   5.747   4.022  0.4214 -0.3523 -1.0223
 7920TIP3    H245176   4.649   5.696   4.017  0.6915  0.2466  0.1104
 7921TIP3   OH245177   1.629   5.513   5.491  0.6321 -0.1413  0.0500
 7921TIP3    H145178   1.606   5.606   5.498  1.2611 -0.0799  1.7984
 7921TIP3    H245179   1.615   5.478   5.579  0.4565 -1.7160 -0.5602
 7922TIP3   OH245180   5.390   6.613  16.591 -0.2993 -0.4513  0.4154
 7922TIP3    H145181   5.407   6.702  16.622 -0.9054 -0.7090  1.5290
 7922TIP3    H245182   5.393   6.620  16.496 -1.5240  1.0030  0.4505
 7923TIP3   OH245183   5.071   5.825  14.217  0.7750 -0.4525 -0.1334
 7923TIP3    H145184   4.998   5.797  14.273  0.1165 -1.0676 -1.2423
 7923TIP3    H245185   5.118   5.890  14.268 -1.1527  0.7134  0.2360
 7924TIP3   OH245186   6.118   0.834   1.877 -0.0529  0.7402  0.6970
 7924TIP3    H145187   6.192   0.861   1.822 -0.5801  0.8483  0.0261
 7924TIP3    H245188   6.091   0.750   1.841 -1.1004  1.3222  0.0667
 7925TIP3   OH245189   4.946   1.555  13.843  0.5616 -0.5113  0.0487
 7925TIP3    H145190   5.030   1.558  13.887  0.7839 -2.2008 -0.1895
 7925TIP3    H245191   4.958   1.607  13.763  1.1462 -0.1539  0.3670
 7926TIP3   OH245192   0.249   6.235  13.801 -0.0396  0.4137  0.3310
 7926TIP3    H145193   0.171   6.253  13.749 -0.1696  0.4812  0.5479
 7926TIP3    H245194   0.227   6.266  13.889 -0.4940 -1.3674  0.8725
 7927TIP3   OH245195   0.690   3.407   1.957 -0.6503  0.6582  0.4212
 7927TIP3    H145196   0.618   3.470   1.947 -1.7922 -0.5767  0.5108
 7927TIP3    H245197   0.677   3.345   1.885  1.6103  1.5503 -0.8610
 7928TIP3   OH245198   6.700   6.595  12.950 -0.6469 -0.0721 -0.0626
 7928TIP3    H145199   6.740   6.509  12.957 -1.2886 -0.3473  0.2824
 7928TIP3    H245200   6.762   6.646  12.897 -0.2913 -0.7537 -0.3129
 7929TIP3   OH245201   3.687   5.228   1.669  1.0529 -0.1901  0.5873
 7929TIP3    H145202   3.738   5.188   1.598  0.4825 -0.7818  0.5046
 7929TIP3    H245203   3.699   5.322   1.657  0.1837 -0.2398 -0.8820
 7930TIP3   OH245204   0.652   5.700   5.726  0.0737  0.3164  0.3335
 7930TIP3    H145205   0.706   5.709   5.804  1.6825 -1.0184 -0.5663
 7930TIP3    H245206   0.589   5.631   5.747 -0.3473  0.8374  0.8507
 7931TIP3   OH245207   2.194   0.945   2.891 -0.1236 -0.2655  0.3887
 7931TIP3    H145208   2.252   1.018   2.914  0.1884 -0.4697  0.2505
 7931TIP3    H245209   2.235   0.868   2.929 -0.0342 -0.4867 -0.1433
 7932TIP3   OH245210   1.104   6.475  12.996 -0.3545 -0.5889 -0.2580
 7932TIP3    H145211   1.025   6.523  12.969 -0.1029 -0.7300 -1.3085
 7932TIP3    H245212   1.176   6.523  12.956  0.1846  0.0172  1.3754
 7933TIP3   OH245213   2.891   2.788  16.514  0.3121 -0.1881 -0.1940
 7933TIP3    H145214   2.986   2.792  16.525  0.3762  3.8004 -0.8259
 7933TIP3    H245215   2.856   2.802  16.602  0.2705 -1.3469 -0.0127
 7934TIP3   OH245216   3.530   2.025  14.464 -0.0633  0.0035 -0.1667
 7934TIP3    H145217   3.580   2.064  14.392  1.1322 -1.0625  0.0549
 7934TIP3    H245218   3.445   2.070  14.461 -0.6491 -1.0749 -3.2216
 7935TIP3   OH245219   4.738   4.796  14.801 -0.2995  0.2970  0.5567
 7935TIP3    H145220   4.797   4.812  14.875 -0.9005  2.0030  0.7160
 7935TIP3    H245221   4.772   4.853  14.732 -1.1179  0.4779  0.2998
 7936TIP3   OH245222   5.059   2.428   0.877  0.0551 -0.7607 -1.0899
 7936TIP3    H145223   5.037   2.501   0.819 -1.1574 -0.8144 -0.7337
 7936TIP3    H245224   5.095   2.470   0.955 -0.2035 -0.5623 -1.0744
 7937TIP3   OH245225   5.196   5.348   1.806 -0.1316  0.4477 -0.4290
 7937TIP3    H145226   5.201   5.312   1.717 -0.0530  0.3919 -0.4018
 7937TIP3    H245227   5.283   5.333   1.843 -0.5399 -0.7023  0.1155
 7938TIP3   OH245228   2.444   4.628  13.475 -0.0953  0.3180  0.3599
 7938TIP3    H145229   2.400   4.701  13.517  0.7357  0.6990  0.5887
 7938TIP3    H245230   2.462   4.658  13.385  0.8339  0.6638  0.6464
 7939TIP3   OH245231   0.878   0.056  14.318 -1.0465  0.4275 -0.1845
 7939TIP3    H145232   0.859   0.140  14.358 -2.9382  0.6271 -1.4169
 7939TIP3    H245233   0.796   0.029  14.278  0.5052 -0.1262 -3.2352
 7940TIP3   OH245234   0.655   0.494  15.854  0.5689  0.4785  0.1247
 7940TIP3    H145235   0.650   0.589  15.848  0.3527  0.4621  0.0399
 7940TIP3    H245236   0.572   0.463  15.818  0.1056  0.3079  1.2754
 7941TIP3   OH245237   1.164   4.804   2.239 -0.4096 -0.1528  0.1210
 7941TIP3    H145238   1.170   4.876   2.302 -0.6336  0.2474 -0.3079
 7941TIP3    H245239   1.080   4.763   2.257 -0.2287 -0.3847  0.4450
 7942TIP3   OH245240   0.878   2.024  15.759  0.1435  0.4740  0.4311
 7942TIP3    H145241   0.961   2.033  15.711  1.1444 -0.1017  1.9776
 7942TIP3    H245242   0.889   2.078  15.837 -0.9168  0.3249  0.6946
 7943TIP3   OH245243   2.378   0.639  15.652  0.1783  0.1538 -0.1420
 7943TIP3    H145244   2.382   0.603  15.740 -1.7708  0.9305  0.3114
 7943TIP3    H245245   2.372   0.733  15.665  0.3527  0.3102 -1.1240
 7944TIP3   OH245246   0.411   6.352  11.760 -0.3270 -0.2294  0.0736
 7944TIP3    H145247   0.358   6.421  11.719 -3.2203 -1.3750  1.5638
 7944TIP3    H245248   0.416   6.284  11.692  0.1441  0.3164 -0.4469
 7945TIP3   OH245249   0.740   4.907   4.909 -0.4398  0.0379  0.2452
 7945TIP3    H145250   0.800   4.982   4.907 -0.0103 -0.2482  1.3824
 7945TIP3    H245251   0.741   4.873   4.820  2.0195 -0.6372  0.4489
 7946TIP3   OH245252   5.033   5.859  16.342 -0.5208 -0.2653  0.1091
 7946TIP3    H145253   4.943   5.854  16.309 -0.6453 -0.0912  0.4161
 7946TIP3    H245254   5.043   5.950  16.368 -1.0170 -0.7699  2.2061
 7947TIP3   OH245255   1.782   6.700  12.635 -0.2381 -0.2639 -0.3754
 7947TIP3    H145256   1.821   6.738  12.556 -1.6490 -1.0727 -1.5094
 7947TIP3    H245257   1.688   6.717  12.626 -0.3274  0.7023  1.7486
 7948TIP3   OH245258   2.968   5.177   4.081  0.5872  0.5961 -0.6424
 7948TIP3    H145259   2.877   5.169   4.110  0.5985 -0.8270 -0.9413
 7948TIP3    H245260   2.969   5.136   3.995  1.0251  2.8009 -1.7557
 7949TIP3   OH245261   3.138   3.731   1.286  0.2228  0.2227  0.0638
 7949TIP3    H145262   3.200   3.726   1.359  0.4454  0.9348 -0.0631
 7949TIP3    H245263   3.084   3.652   1.294  0.7187 -0.0703  0.5642
 7950TIP3   OH245264   3.993   1.117   0.476  0.4051 -0.7859 -0.7892
 7950TIP3    H145265   3.931   1.187   0.496  0.8117 -0.5319 -0.4142
 7950TIP3    H245266   3.987   1.058   0.551 -0.6300 -1.6673 -1.5197
 7951TIP3   OH245267   0.469   2.101  16.469  0.4842  0.1671  0.2720
 7951TIP3    H145268   0.453   2.113  16.563 -0.4367  0.2025  0.1173
 7951TIP3    H245269   0.474   2.006  16.458  2.2787  0.1820  0.6087
 7952TIP3   OH245270   2.462   4.424   2.844  0.2568  0.1087 -0.1014
 7952TIP3    H145271   2.428   4.378   2.921  0.8196 -0.7442 -0.3459
 7952TIP3    H245272   2.556   4.426   2.857  0.4450 -0.7600 -1.1288
 7953TIP3   OH245273   5.014   6.568   0.301 -0.1020 -0.8307 -0.0579
 7953TIP3    H145274   5.063   6.526   0.231 -0.4179  0.2095 -0.9328
 7953TIP3    H245275   4.924   6.573   0.267 -0.1198  0.2914  0.1305
 7954TIP3   OH245276   5.050   2.974  16.878  0.2998 -0.4312  0.5315
 7954TIP3    H145277   5.053   2.879  16.887 -0.5473 -0.5248 -0.0948
 7954TIP3    H245278   5.136   3.004  16.909  0.5697 -1.3924  0.7319
 7955TIP3   OH245279   5.234   0.566  11.258  0.5039 -0.4503  0.5033
 7955TIP3    H145280   5.213   0.645  11.308 -1.9908 -1.8891  1.9771
 7955TIP3    H245281   5.273   0.507  11.323  0.1598 -1.2421 -0.0021
 7956TIP3   OH245282   3.184   1.273   2.599  0.2804 -0.4588  0.0880
 7956TIP3    H145283   3.190   1.284   2.694 -0.3247 -0.7496  0.1670
 7956TIP3    H245284   3.196   1.361   2.563 -1.3020 -0.0198  0.5379
 7957TIP3   OH245285   6.134   4.267   3.866 -0.6397 -0.0467  0.0630
 7957TIP3    H145286   6.093   4.251   3.781 -1.1211 -1.3611  0.5250
 7957TIP3    H245287   6.135   4.181   3.909 -2.7479  0.9654  2.4180
 7958TIP3   OH245288   0.509   0.669   5.273  0.3547 -0.4766 -0.5900
 7958TIP3    H145289   0.502   0.687   5.179 -0.9545 -1.0860 -0.6334
 7958TIP3    H245290   0.575   0.731   5.304 -1.0799  1.5855 -1.4311
 7959TIP3   OH245291   4.714   1.426  15.526 -0.1764 -0.8563  0.1863
 7959TIP3    H145292   4.769   1.502  15.506 -1.2865 -0.3276 -1.0764
 7959TIP3    H245293   4.760   1.381  15.596  2.3523 -0.9754 -1.4062
 7960TIP3   OH245294   6.168   1.906   1.719  0.0631  0.1362 -0.0133
 7960TIP3    H145295   6.248   1.944   1.680 -1.1899  1.0170 -1.8907
 7960TIP3    H245296   6.170   1.814   1.693  0.8372 -0.0404  0.6263
 7961TIP3   OH245297   6.221   1.991  15.704 -0.2819 -0.1354  0.3424
 7961TIP3    H145298   6.138   2.011  15.748  0.5181  1.8436  1.0677
 7961TIP3    H245299   6.256   1.916  15.753 -0.7818  0.1768  1.2054
 7962TIP3   OH245300   1.645   6.292   5.090 -0.7370  0.6309  0.0960
 7962TIP3    H145301   1.557   6.328   5.100 -0.4258  1.0051  1.9188
 7962TIP3    H245302   1.635   6.218   5.031 -1.9314  1.8327 -1.2662
 7963TIP3   OH245303   5.513   4.136  12.062 -0.1152  0.0231  0.1372
 7963TIP3    H145304   5.522   4.059  12.006 -2.8834 -0.3855  0.1208
 7963TIP3    H245305   5.531   4.210  12.004 -2.0985 -0.4400 -1.1859
 7964TIP3   OH245306   2.243   0.556  11.473  0.1948  0.5464 -0.1131
 7964TIP3    H145307   2.284   0.621  11.529  0.9490  0.0135 -0.0279
 7964TIP3    H245308   2.208   0.605  11.399  1.1517  0.9929 -0.2752
 7965TIP3   OH245309   2.508   3.123   3.771  0.3959 -0.3616 -0.3272
 7965TIP3    H145310   2.471   3.112   3.683  1.4250 -0.8303 -0.7256
 7965TIP3    H245311   2.501   3.216   3.789  2.0325  0.1113 -1.7957
 7966TIP3   OH245312   2.402   2.442  15.249  0.3620  0.4871  0.0962
 7966TIP3    H145313   2.403   2.376  15.180 -0.6519 -1.0802  1.4887
 7966TIP3    H245314   2.475   2.500  15.229  0.3486 -0.1586 -2.0234
 7967TIP3   OH245315   3.292   5.058  15.972  0.0277  0.3517  0.2791
 7967TIP3    H145316   3.376   5.068  16.018  0.5909 -0.3422 -0.5745
 7967TIP3    H245317   3.229   5.037  16.042  0.7196  0.0801  0.8343
 7968TIP3   OH245318   0.107   6.740  13.295 -0.5809 -0.0620 -0.3801
 7968TIP3    H145319   0.112   6.692  13.377 -0.8863 -0.8914 -0.8378
 7968TIP3    H245320   0.136   6.678  13.229 -1.2924  0.2752 -1.0233
 7969TIP3   OH245321   0.407   2.197   4.156 -0.0372  0.5152 -0.1200
 7969TIP3    H145322   0.354   2.262   4.110 -1.0074  0.5265  0.9548
 7969TIP3    H245323   0.402   2.223   4.248  1.7875  0.4486  0.0311
 7970TIP3   OH245324   5.140   0.837   2.792 -0.0646 -0.1343 -0.2547
 7970TIP3    H145325   5.176   0.880   2.870  0.8676  1.6313 -1.5910
 7970TIP3    H245326   5.172   0.890   2.719 -1.2324 -1.5173 -1.8266
 7971TIP3   OH245327   2.257   5.733  17.116  0.2653  0.3728  0.0459
 7971TIP3    H145328   2.246   5.717  17.022 -1.3748 -0.0561  0.2803
 7971TIP3    H245329   2.270   5.828  17.123 -0.3295  0.5082 -0.5726
 7972TIP3   OH245330   3.115   5.655   1.789 -0.6405 -0.0187  0.3256
 7972TIP3    H145331   3.132   5.578   1.735  0.7561  0.3688  0.1691
 7972TIP3    H245332   3.157   5.636   1.873 -0.6777  0.3780  0.4379
 7973TIP3   OH245333   5.518   3.148  12.055 -0.7270  0.0833 -0.2861
 7973TIP3    H145334   5.462   3.095  12.112  0.0947 -0.6224 -0.1116
 7973TIP3    H245335   5.555   3.215  12.113  0.9990 -1.3117  0.3260
 7974TIP3   OH245336   0.102   4.736   4.315 -0.6338 -0.0966 -0.0140
 7974TIP3    H145337   0.139   4.782   4.390 -0.4565  0.5698 -0.4993
 7974TIP3    H245338   0.088   4.646   4.346  1.3286 -0.3695  0.2146
 7975TIP3   OH245339   0.146   5.194  17.101 -0.4256  0.5766 -0.0525
 7975TIP3    H145340   0.192   5.162  17.024  1.7705 -0.3399  1.4949
 7975TIP3    H245341   0.056   5.164  17.092  0.3862 -1.7077 -1.0644
 7976TIP3   OH245342   4.375   4.092  15.905  0.3829  0.6062 -0.2702
 7976TIP3    H145343   4.282   4.101  15.925  0.1537 -2.3714  0.5654
 7976TIP3    H245344   4.412   4.051  15.984  1.5035 -2.1445 -2.0772
 7977TIP3   OH245345   1.585   3.221  12.802  0.3153  0.6484  0.0371
 7977TIP3    H145346   1.493   3.195  12.805  0.4374  0.2544  0.4424
 7977TIP3    H245347   1.633   3.140  12.821  0.6947  1.1992  1.5696
 7978TIP3   OH245348   6.578   6.301   0.931 -0.0777  0.4263 -0.2682
 7978TIP3    H145349   6.592   6.350   1.012 -0.1936  0.8134 -0.4744
 7978TIP3    H245350   6.628   6.220   0.942  1.2006  1.1655 -0.4439
 7979TIP3   OH245351   1.884   0.340  15.447  0.0446  0.1144  0.0024
 7979TIP3    H145352   1.969   0.383  15.436 -0.2970  0.4399 -1.7648
 7979TIP3    H245353   1.821   0.412  15.451 -0.2165 -0.1397  0.5642
 7980TIP3   OH245354   3.672   2.128  16.450 -0.3938 -0.0912  0.2700
 7980TIP3    H145355   3.592   2.180  16.449 -0.0522  0.4590  0.5071
 7980TIP3    H245356   3.716   2.153  16.532 -0.0042 -0.4110  0.1635
 7981TIP3   OH245357   0.575   6.437   0.715 -0.1303  0.2752  0.0581
 7981TIP3    H145358   0.596   6.391   0.796  2.8221 -0.4003 -0.9493
 7981TIP3    H245359   0.587   6.529   0.736 -0.6978  0.2131  0.6950
 7982TIP3   OH245360   0.882   0.280   1.879 -0.0199  0.0541 -0.3933
 7982TIP3    H145361   0.976   0.293   1.861  0.3420 -0.9221  0.6991
 7982TIP3    H245362   0.854   0.364   1.916  0.5987  0.1183 -0.0460
 7983TIP3   OH245363   1.026   3.148   1.263  0.5822 -0.0721 -0.2355
 7983TIP3    H145364   1.040   3.188   1.177 -0.0201  0.3301 -0.1519
 7983TIP3    H245365   1.087   3.074   1.266  0.8790  0.1452 -0.8536
 7984TIP3   OH245366   5.943   1.241  11.678 -0.3667  0.0982 -0.1425
 7984TIP3    H145367   5.853   1.246  11.646 -0.1769  0.3217 -0.6478
 7984TIP3    H245368   5.995   1.285  11.610  0.0061  0.8496  0.6047
 7985TIP3   OH245369   3.519   0.164   2.287 -0.3744 -0.2989 -0.9108
 7985TIP3    H145370   3.556   0.210   2.211  0.5704 -1.1004 -0.9642
 7985TIP3    H245371   3.451   0.222   2.320  0.5711  0.9983 -1.1582
 7986TIP3   OH245372   5.896   2.684  16.936  0.9092 -0.2605 -0.1721
 7986TIP3    H145373   5.947   2.749  16.890 -0.4961 -0.5440 -2.2549
 7986TIP3    H245374   5.888   2.719  17.025 -0.3967  2.8170 -1.3574
 7987TIP3   OH245375   2.549   1.502   3.956 -0.3596 -0.1182  0.0407
 7987TIP3    H145376   2.577   1.592   3.940 -1.4327  0.5173  1.4847
 7987TIP3    H245377   2.630   1.451   3.952  0.0399  0.5579 -2.6626
 7988TIP3   OH245378   2.403   1.669  12.125 -0.1046  0.3366 -0.0821
 7988TIP3    H145379   2.468   1.664  12.054 -0.2982 -0.7025 -0.1918
 7988TIP3    H245380   2.390   1.579  12.152  1.7019  0.8315  2.8713
 7989TIP3   OH245381   6.196   2.225   5.260 -0.5549 -0.0659  0.2064
 7989TIP3    H145382   6.277   2.177   5.242 -2.1504 -2.6431 -0.6855
 7989TIP3    H245383   6.166   2.189   5.344 -0.7957  0.8298  0.5082
 7990TIP3   OH245384   2.047   2.512   2.295 -0.0702  0.1769 -0.3702
 7990TIP3    H145385   1.979   2.579   2.286 -0.3868 -0.2364 -1.1515
 7990TIP3    H245386   2.001   2.437   2.334  0.3699  0.5354  0.8732
 7991TIP3   OH245387   5.942   5.799  14.821 -0.0424  0.1198 -0.2378
 7991TIP3    H145388   5.888   5.852  14.763 -1.2632 -1.8546 -1.0165
 7991TIP3    H245389   5.889   5.721  14.837  0.7093  0.1052  2.6928
 7992TIP3   OH245390   5.177   6.427  16.363  0.7088  0.3108  0.0771
 7992TIP3    H145391   5.165   6.395  16.452 -2.3889 -0.6571 -0.5552
 7992TIP3    H245392   5.171   6.522  16.371 -1.7644  0.1675  0.7417
 7993TIP3   OH245393   2.363   1.787  11.282  0.1629  0.3213 -0.3674
 7993TIP3    H145394   2.364   1.806  11.188 -3.1925  1.3647 -0.3549
 7993TIP3    H245395   2.310   1.707  11.289 -0.7835  1.0070  0.6552
 7994TIP3   OH245396   2.441   1.915  13.166 -0.4526 -0.3095  0.2884
 7994TIP3    H145397   2.433   1.853  13.239  0.2702 -1.9958 -1.0030
 7994TIP3    H245398   2.351   1.929  13.138 -0.6695 -0.3773  0.9125
 7995TIP3   OH245399   1.139   5.214   2.124 -0.0296  0.7850 -0.6659
 7995TIP3    H145400   1.074   5.278   2.154 -0.1221  1.5933 -2.4426
 7995TIP3    H245401   1.211   5.267   2.089  0.5271 -0.0920 -0.8826
 7996TIP3   OH245402   6.669   2.913  13.327  0.5900  0.1601  0.5434
 7996TIP3    H145403   6.574   2.898  13.322  0.8253 -1.3755  0.2637
 7996TIP3    H245404   6.707   2.827  13.315  2.0309  0.7089  1.0509
 7997TIP3   OH245405   4.193   6.038   2.170  0.4733 -0.1742  0.0780
 7997TIP3    H145406   4.126   6.090   2.215  0.6215  0.2567 -0.1925
 7997TIP3    H245407   4.157   6.024   2.082  0.9523  0.4997 -0.2376
 7998TIP3   OH245408   4.878   4.703   1.904  0.3835  0.3236 -0.3973
 7998TIP3    H145409   4.864   4.798   1.905 -0.6589  0.2170 -1.9424
 7998TIP3    H245410   4.973   4.693   1.893  0.6296  1.1576  0.7796
 7999TIP3   OH245411   5.614   0.818   1.244  0.0339 -1.0772  0.3400
 7999TIP3    H145412   5.688   0.866   1.280 -0.6594  1.0340 -0.8914
 7999TIP3    H245413   5.538   0.852   1.291 -0.5890 -0.1408 -1.2598
 8000TIP3   OH245414   0.340   4.990   4.707 -0.1180  0.7955  0.1591
 8000TIP3    H145415   0.435   4.978   4.714 -0.1516  1.5573  2.6086
 8000TIP3    H245416   0.320   5.062   4.766 -2.2969  0.3305  0.0689
 8001TIP3   OH245417   5.619   6.261   6.016  0.3131 -0.1844  0.8512
 8001TIP3    H145418   5.527   6.281   5.999 -0.4082 -1.4038  2.9351
 8001TIP3    H245419   5.618   6.171   6.049  2.3211 -0.3591  0.5701
 8002TIP3   OH245420   6.674   3.695   3.947 -0.2158  0.3980 -0.7377
 8002TIP3    H145421   6.660   3.764   4.012  0.8012  0.0962 -0.1717
 8002TIP3    H245422   6.761   3.713   3.911  0.0582 -0.5667 -0.5995
 8003TIP3   OH245423   3.790   0.525  12.984 -0.1280 -0.2084  0.0772
 8003TIP3    H145424   3.862   0.514  13.046  0.6991  0.8743 -0.6659
 8003TIP3    H245425   3.712   0.502  13.034  0.7194 -1.5046  0.8755
 8004TIP3   OH245426   4.212   5.648   4.365 -0.2010 -0.1615 -0.1743
 8004TIP3    H145427   4.127   5.627   4.404 -0.6049 -0.4954 -1.1901
 8004TIP3    H245428   4.199   5.633   4.271  0.4538  1.5184 -0.5746
 8005TIP3   OH245429   4.957   5.670   2.256  0.4863 -0.2578  0.2574
 8005TIP3    H145430   4.900   5.746   2.268 -0.5522 -0.9382 -0.2209
 8005TIP3    H245431   4.999   5.659   2.342 -0.1635  0.2143  0.6513
 8006TIP3   OH245432   6.212   5.089  11.395  0.5465  0.5197  0.1735
 8006TIP3    H145433   6.143   5.024  11.387  0.0191  1.1120 -0.1916
 8006TIP3    H245434   6.234   5.113  11.304 -0.2193  1.8301  0.3123
 8007TIP3   OH245435   5.368   2.281  11.112 -0.4648 -0.0176 -0.0759
 8007TIP3    H145436   5.405   2.296  11.025  1.2593 -0.0779  0.6107
 8007TIP3    H245437   5.343   2.189  11.112 -2.6400  0.4858 -1.2311
 8008TIP3   OH245438   2.947   4.667   3.601  0.3874  0.2231  0.1389
 8008TIP3    H145439   3.016   4.673   3.535 -0.5120  0.5047 -0.7889
 8008TIP3    H245440   2.868   4.695   3.557 -0.5557 -1.1353  0.8653
 8009TIP3   OH245441   6.283   0.113  12.842  0.0587  0.4139  0.4602
 8009TIP3    H145442   6.212   0.059  12.808  0.6722 -0.6439  0.8153
 8009TIP3    H245443   6.363   0.067  12.815  0.6562  2.0370 -0.7103
 8010TIP3   OH245444   5.072   1.073   3.522  0.3166  0.2193  0.7961
 8010TIP3    H145445   5.140   1.008   3.538 -0.5406 -0.7740  0.5640
 8010TIP3    H245446   5.057   1.069   3.427  0.3840  0.8975  0.7505
 8011TIP3   OH245447   5.294   5.870   4.960 -0.9713 -0.0738 -0.1181
 8011TIP3    H145448   5.359   5.939   4.972 -0.8447 -0.4638  1.7602
 8011TIP3    H245449   5.342   5.800   4.916  0.1080 -0.5687  1.7035
 8012TIP3   OH245450   3.706   2.715  10.815  0.2096  0.1654 -0.3651
 8012TIP3    H145451   3.666   2.760  10.741 -0.4964 -1.3704 -0.9538
 8012TIP3    H245452   3.675   2.625  10.808 -1.3022  0.2934  2.7795
 8013TIP3   OH245453   4.229   6.770   2.272 -0.2506 -0.8683 -0.2246
 8013TIP3    H145454   4.303   6.720   2.307 -1.0222 -1.1812  1.0463
 8013TIP3    H245455   4.268   6.827   2.206  1.6496  0.8508  2.1472
 8014TIP3   OH245456   4.630   1.600  14.091 -0.3084  0.2565  0.1945
 8014TIP3    H145457   4.668   1.514  14.109  1.4631  0.7801 -0.8220
 8014TIP3    H245458   4.576   1.619  14.168  0.0660 -1.3005  0.8877
 8015TIP3   OH245459   0.854   2.941   0.441 -0.5234 -0.2279  0.4753
 8015TIP3    H145460   0.857   3.037   0.439  1.9555 -0.2638 -1.1433
 8015TIP3    H245461   0.794   2.918   0.370 -0.4950  0.1136  0.3359
 8016TIP3   OH245462   6.658   5.443  14.837  0.1982 -0.4869  0.0715
 8016TIP3    H145463   6.747   5.430  14.870  0.9968  0.8186 -1.4717
 8016TIP3    H245464   6.602   5.418  14.911  1.8601  0.8494  1.8928
 8017TIP3   OH245465   0.031   6.177  14.278 -0.0474 -0.4046  0.2480
 8017TIP3    H145466   0.066   6.261  14.249 -0.3502 -0.5104 -0.4350
 8017TIP3    H245467   0.101   6.114  14.262  0.5750 -0.1313  1.7307
 8018TIP3   OH245468   3.228   4.853   5.827  0.5257 -0.3434  0.0216
 8018TIP3    H145469   3.223   4.854   5.923  0.6466  0.3154  0.0241
 8018TIP3    H245470   3.272   4.935   5.804 -2.2661  1.0755 -0.7306
 8019TIP3   OH245471   2.705   3.892  15.013  0.1534  0.0409 -0.6049
 8019TIP3    H145472   2.624   3.850  14.982  0.1796  0.4182 -1.2030
 8019TIP3    H245473   2.744   3.827  15.072  0.2869 -0.8624 -1.6506
 8020TIP3   OH245474   6.329   5.741  15.874 -0.6032 -0.3493 -0.3129
 8020TIP3    H145475   6.369   5.655  15.885 -0.9281 -0.3411  1.1611
 8020TIP3    H245476   6.243   5.722  15.836  0.1075 -0.4886 -1.9362
 8021TIP3   OH245477   2.245   5.886   6.142 -0.2258 -0.0823 -0.2394
 8021TIP3    H145478   2.260   5.975   6.173  0.8299 -0.9432  1.9938
 8021TIP3    H245479   2.303   5.877   6.067 -1.1974  1.4265 -1.2247
 8022TIP3   OH245480   3.975   6.486   5.863  0.0756 -0.1035 -0.1037
 8022TIP3    H145481   3.887   6.455   5.886 -0.2240  1.3873  0.8810
 8022TIP3    H245482   4.021   6.491   5.947  0.6245  0.5296 -0.4373
 8023TIP3   OH245483   3.223   0.178   5.433  0.3334 -0.1551  0.9252
 8023TIP3    H145484   3.144   0.144   5.391  0.3598 -0.8116  1.4030
 8023TIP3    H245485   3.238   0.120   5.507 -0.8876  2.1133  3.1361
 8024TIP3   OH245486   2.900   0.516  14.031 -0.0737  0.2254  0.0736
 8024TIP3    H145487   2.826   0.544  14.085 -0.5093  1.8661 -1.3144
 8024TIP3    H245488   2.961   0.475  14.094 -1.5623 -0.0108  1.4231
 8025TIP3   OH245489   0.818   4.696   6.353 -0.1056  0.5530 -0.3941
 8025TIP3    H145490   0.893   4.636   6.354  0.5948  1.4055  0.0508
 8025TIP3    H245491   0.742   4.639   6.352  0.4230 -0.4896  3.2163
 8026TIP3   OH245492   6.556   2.940   6.255 -0.0639 -0.1658  0.0676
 8026TIP3    H145493   6.530   2.848   6.251 -1.9978  0.2242  1.7792
 8026TIP3    H245494   6.596   2.951   6.341 -0.8411  0.8046  0.3296
 8027TIP3   OH245495   1.776   6.198   0.677 -0.3466 -0.2080  0.5850
 8027TIP3    H145496   1.854   6.144   0.669 -1.2120 -1.3086 -0.9807
 8027TIP3    H245497   1.774   6.225   0.769  2.6016  1.0525  0.3984
 8028TIP3   OH245498   0.062   2.159   5.562  0.4969 -0.3261  0.2680
 8028TIP3    H145499  -0.019   2.113   5.583 -0.1452  1.4591  2.0878
 8028TIP3    H245500   0.089   2.125   5.477 -2.6583 -0.3395 -0.8251
 8029TIP3   OH245501   1.604   1.675   0.889 -0.2527 -0.3068 -0.2762
 8029TIP3    H145502   1.554   1.642   0.963 -2.8806  0.3410 -1.6254
 8029TIP3    H245503   1.572   1.624   0.814  1.5579 -0.2343 -1.1421
 8030TIP3   OH245504   0.500   0.818   3.737 -0.2877  0.9223  1.0389
 8030TIP3    H145505   0.547   0.860   3.808 -0.5164 -0.0129  1.7756
 8030TIP3    H245506   0.412   0.855   3.741 -0.4197  0.5699  1.5288
 8031TIP3   OH245507   6.160   1.793  16.487 -0.1141 -0.4560 -0.4209
 8031TIP3    H145508   6.215   1.766  16.413 -2.6524 -0.2812 -2.5358
 8031TIP3    H245509   6.151   1.888  16.476  0.9875 -0.1062  1.3049
 8032TIP3   OH245510   5.606   3.735  12.506  0.1342  0.4946  0.3322
 8032TIP3    H145511   5.553   3.691  12.572  0.2678  0.1337  0.2062
 8032TIP3    H245512   5.575   3.699  12.422  0.2508  0.6344  0.2277
 8033TIP3   OH245513   2.084   0.590  16.832 -0.7840 -0.0477 -0.9395
 8033TIP3    H145514   2.053   0.503  16.858 -0.4040  0.6256  2.1536
 8033TIP3    H245515   2.006   0.636  16.801 -1.3328 -0.9168 -0.8766
 8034TIP3   OH245516   0.815   4.473  12.107 -0.1708  0.1929  0.1362
 8034TIP3    H145517   0.806   4.528  12.028 -0.0897  0.4478  0.3027
 8034TIP3    H245518   0.746   4.408  12.098  0.7452 -0.6747 -0.8665
 8035TIP3   OH245519   0.515   0.966   4.211  0.3684 -0.2055 -0.5448
 8035TIP3    H145520   0.486   0.890   4.261  0.5101  0.4392  0.5434
 8035TIP3    H245521   0.455   1.036   4.238  0.8053  0.2919 -0.8547
 8036TIP3   OH245522   5.765   3.344   3.545 -0.0001 -0.0144 -0.5867
 8036TIP3    H145523   5.711   3.310   3.616  1.4665 -0.8473  0.1716
 8036TIP3    H245524   5.833   3.278   3.533  1.4209  1.4443 -0.8604
 8037TIP3   OH245525   1.419   3.758   1.358  0.0901 -0.8071  0.1029
 8037TIP3    H145526   1.371   3.788   1.280 -1.3245 -1.7753  0.5574
 8037TIP3    H245527   1.480   3.692   1.325  1.8585  1.0746 -0.6168
 8038TIP3   OH245528   4.893   3.220  12.849 -0.3047 -0.4879  0.4605
 8038TIP3    H145529   4.944   3.243  12.771  0.6620  1.5240  1.5947
 8038TIP3    H245530   4.810   3.188  12.815 -0.0225  0.5968 -1.4059
 8039TIP3   OH245531   3.190   0.649   4.812  1.0153 -0.0104 -0.4123
 8039TIP3    H145532   3.112   0.639   4.867  1.3314 -2.0953 -0.2482
 8039TIP3    H245533   3.185   0.576   4.750  2.5874  0.1031 -0.7196
 8040TIP3   OH245534   5.398   6.465   1.556 -0.0502  0.0259  0.3499
 8040TIP3    H145535   5.347   6.518   1.619 -1.4939 -1.4067  0.4459
 8040TIP3    H245536   5.416   6.526   1.484 -1.7547  0.6702  0.4026
 8041TIP3   OH245537   0.935   5.434   3.230  0.1239  0.1284  0.2474
 8041TIP3    H145538   0.925   5.341   3.210 -0.7962 -0.1733  1.9039
 8041TIP3    H245539   0.869   5.478   3.176  0.5132 -0.1747 -0.4891
 8042TIP3   OH245540   5.007   3.161   5.985  0.0380  0.1581  0.2172
 8042TIP3    H145541   4.927   3.206   6.013 -1.6994 -2.0361 -0.8965
 8042TIP3    H245542   5.038   3.213   5.911  0.4694  1.8024  1.4969
 8043TIP3   OH245543   1.085   4.430  14.644  0.0384  0.1565  0.1213
 8043TIP3    H145544   1.094   4.431  14.739  1.9991  2.0657  0.0137
 8043TIP3    H245545   1.036   4.350  14.625 -0.1656 -0.4239  2.6986
 8044TIP3   OH245546   1.683   6.449   0.533  0.2452  0.4847  0.6538
 8044TIP3    H145547   1.722   6.369   0.569  2.0041  1.7624  1.7771
 8044TIP3    H245548   1.611   6.470   0.592  1.2783  0.9681  1.7894
 8045TIP3   OH245549   2.103   5.940   1.780 -0.3302 -0.0762 -0.0870
 8045TIP3    H145550   2.154   5.867   1.746  2.2228  0.7683  1.6375
 8045TIP3    H245551   2.028   5.947   1.720  0.8284 -2.2779 -1.9488
 8046TIP3   OH245552   4.566   3.710   5.370 -0.0258 -0.4262  0.6770
 8046TIP3    H145553   4.577   3.744   5.459 -0.7711 -0.2580  0.7121
 8046TIP3    H245554   4.648   3.732   5.326 -0.2855  1.0012  0.8398
 8047TIP3   OH245555   0.339   3.814   3.184  0.0504  0.4175  0.0600
 8047TIP3    H145556   0.355   3.785   3.094 -2.4590  0.0010 -0.3085
 8047TIP3    H245557   0.384   3.898   3.190  0.3312  0.4138 -1.5424
 8048TIP3   OH245558   1.162   5.858  13.038 -0.2913  0.5624 -0.1495
 8048TIP3    H145559   1.071   5.837  13.060 -0.5345  2.0623  0.4309
 8048TIP3    H245560   1.158   5.949  13.010  1.1262  0.8287  0.4626
 8049TIP3   OH245561   6.474   6.453  11.479  0.1933  0.3830 -0.3874
 8049TIP3    H145562   6.463   6.494  11.393 -0.0589 -0.7216 -0.8949
 8049TIP3    H245563   6.393   6.474  11.526  1.1253  2.7165  0.3744
 8050TIP3   OH245564   3.970   2.011   3.090 -0.1442  0.3897  0.0321
 8050TIP3    H145565   4.059   2.043   3.108  0.2077  0.3982 -1.5965
 8050TIP3    H245566   3.917   2.047   3.161  1.2324 -0.0795  1.3544
 8051TIP3   OH245567   6.738   1.489   6.134  0.3813  0.5604  0.5605
 8051TIP3    H145568   6.741   1.416   6.197  0.1059  0.4721  0.4707
 8051TIP3    H245569   6.718   1.566   6.187  0.9329  0.6164  0.6942
 8052TIP3   OH245570   1.234   5.561  11.313  0.1499  0.3075  0.3249
 8052TIP3    H145571   1.251   5.533  11.223  0.8334  3.8528 -0.7995
 8052TIP3    H245572   1.249   5.655  11.312  2.3580  0.2566  4.6676
 8053TIP3   OH245573   0.938   1.710   2.631  0.3468  0.0904  0.3181
 8053TIP3    H145574   0.954   1.793   2.588 -0.7080  0.6320  0.9164
 8053TIP3    H245575   0.967   1.723   2.721  0.0490 -0.1299  0.4515
 8054TIP3   OH245576   5.108   4.026  10.326 -0.2227  0.1060 -0.3124
 8054TIP3    H145577   5.033   4.084  10.308 -1.8388 -1.1627  1.8010
 8054TIP3    H245578   5.068   3.945  10.357  2.0517 -1.1065 -0.3462
 8055TIP3   OH245579   6.107   4.245  13.699  0.2521 -0.5301 -0.1590
 8055TIP3    H145580   6.048   4.219  13.628  1.1255  0.8123 -1.4369
 8055TIP3    H245581   6.113   4.167  13.755 -0.7850 -1.4962 -1.3371
 8056TIP3   OH245582   0.746   3.017   3.419  0.2220 -0.0881 -0.0717
 8056TIP3    H145583   0.698   3.065   3.351 -1.5022 -0.3830  0.8763
 8056TIP3    H245584   0.794   3.085   3.466 -0.5911  0.4574 -0.0098
 8057TIP3   OH245585   6.297   0.510   1.556  0.0356  0.1997 -0.4483
 8057TIP3    H145586   6.252   0.427   1.569  1.0316 -0.2172  0.4804
 8057TIP3    H245587   6.387   0.486   1.534  0.2699  1.0294 -0.4524
 8058TIP3   OH245588   4.279   1.096  15.913 -0.3081 -0.4648  0.7548
 8058TIP3    H145589   4.354   1.051  15.874 -0.2103  0.6737 -0.4740
 8058TIP3    H245590   4.204   1.066  15.861 -0.4805 -0.4663  1.0063
 8059TIP3   OH245591   0.380   2.883   1.233  0.4557 -0.1077 -0.9427
 8059TIP3    H145592   0.376   2.789   1.219  4.6133 -0.9159  1.4483
 8059TIP3    H245593   0.298   2.905   1.277  0.2397 -3.0650  0.3139
 8060TIP3   OH245594   2.827   4.139  13.278  0.2877  1.2896  0.2708
 8060TIP3    H145595   2.791   4.228  13.279  1.2852  1.7146 -0.0645
 8060TIP3    H245596   2.824   4.113  13.186 -1.9357  0.1310  0.6107
 8061TIP3   OH245597   0.430   3.513   4.291 -0.0114 -0.3192 -0.0298
 8061TIP3    H145598   0.516   3.478   4.314  0.5150  0.9262 -0.0016
 8061TIP3    H245599   0.409   3.473   4.207  0.2103 -1.2524  0.3421
 8062TIP3   OH245600   5.863   0.999   5.507 -0.1592  0.0960 -0.1675
 8062TIP3    H145601   5.879   0.953   5.424 -1.4857 -1.2173  0.2598
 8062TIP3    H245602   5.841   1.088   5.481  1.4458  0.2603 -1.0873
 8063TIP3   OH245603   3.314   4.901   5.348  0.2953 -0.6008  0.0269
 8063TIP3    H145604   3.375   4.910   5.275 -0.8418  2.1438 -0.7174
 8063TIP3    H245605   3.333   4.815   5.385  4.6317  0.0391 -0.1379
 8064TIP3   OH245606   3.191   3.139   1.875 -0.2948  0.1038 -0.0230
 8064TIP3    H145607   3.248   3.212   1.899 -0.5111 -0.4255  2.3056
 8064TIP3    H245608   3.250   3.065   1.866 -0.3474  0.0587  0.0036
 8065TIP3   OH245609   0.051   1.362  11.148 -0.0577 -0.2539 -0.2714
 8065TIP3    H145610   0.025   1.271  11.160 -0.6417 -0.2098 -1.1308
 8065TIP3    H245611   0.147   1.359  11.141  0.0665 -0.6068  1.2500
 8066TIP3   OH245612   6.046   6.693   4.919  0.0388  0.1746  0.2458
 8066TIP3    H145613   5.989   6.724   4.849  1.0813  0.5137 -0.4738
 8066TIP3    H245614   6.031   6.755   4.991 -1.6856 -0.6784  0.6858
 8067TIP3   OH245615   3.125   0.190  15.823 -0.0251 -0.0788 -0.0749
 8067TIP3    H145616   3.106   0.100  15.796 -1.9259 -0.2407  1.6193
 8067TIP3    H245617   3.123   0.240  15.741 -0.9594 -1.2546 -0.8016
 8068TIP3   OH245618   0.622   6.051  13.655 -0.3563  0.0374  0.2642
 8068TIP3    H145619   0.639   5.997  13.732  0.4588 -0.7566 -0.4468
 8068TIP3    H245620   0.701   6.043  13.603 -0.9548  0.4354 -0.7290
 8069TIP3   OH245621   0.445   4.331  11.713 -0.3259  0.0740 -0.6106
 8069TIP3    H145622   0.444   4.423  11.688 -0.6979  0.4588  0.7492
 8069TIP3    H245623   0.368   4.294  11.672  0.6524 -0.0152 -2.4545
 8070TIP3   OH245624   1.663   4.714   0.204  0.1388  0.6784  0.4864
 8070TIP3    H145625   1.711   4.668   0.273 -1.5372 -1.4501  0.3443
 8070TIP3    H245626   1.717   4.703   0.126  0.7606  0.7548  0.9005
 8071TIP3   OH245627   5.260   2.218  12.103  0.5744 -0.1640  0.4448
 8071TIP3    H145628   5.290   2.293  12.155 -1.2946  2.2013 -1.5955
 8071TIP3    H245629   5.322   2.148  12.122  2.0462  1.6855  2.9860
 8072TIP3   OH245630   5.811   0.672   2.367 -0.5354 -0.0048  0.0207
 8072TIP3    H145631   5.874   0.641   2.302 -0.3087 -1.4889  0.9105
 8072TIP3    H245632   5.796   0.764   2.344  1.2690  0.1315 -0.7414
 8073TIP3   OH245633   3.922   6.440   6.237  0.1600 -0.2941  0.9362
 8073TIP3    H145634   3.897   6.430   6.329 -3.3401 -0.2834  0.1193
 8073TIP3    H245635   3.905   6.532   6.217 -1.1453 -0.7595 -0.2095
 8074TIP3   OH245636   3.018   2.965  11.529 -0.2292  0.0851  0.2815
 8074TIP3    H145637   3.059   3.048  11.504  1.6444 -1.2659 -1.4540
 8074TIP3    H245638   2.932   2.990  11.563 -0.4750  2.6231 -1.9025
 8075TIP3   OH245639   6.428   2.959   1.849  0.3384  0.5899 -0.0361
 8075TIP3    H145640   6.507   2.946   1.901  0.4975  0.1232 -0.3867
 8075TIP3    H245641   6.358   2.967   1.913  0.6888  1.1298  0.2798
 8076TIP3   OH245642   3.325   3.483   2.258  0.2720  0.3817 -0.1335
 8076TIP3    H145643   3.235   3.516   2.262 -0.0114 -0.4538  1.3570
 8076TIP3    H245644   3.364   3.527   2.183 -1.7537 -0.2059 -1.6257
 8077TIP3   OH245645   0.487   3.388   2.853  0.5550  0.2281  0.2989
 8077TIP3    H145646   0.564   3.333   2.835  0.2985 -0.2122  0.5316
 8077TIP3    H245647   0.429   3.374   2.778  0.1598 -0.4114  0.7152
 8078TIP3   OH245648   3.913   5.661   1.948 -0.1678  0.3821 -0.0761
 8078TIP3    H145649   3.976   5.598   1.983 -0.1059  0.2630 -0.3998
 8078TIP3    H245650   3.951   5.689   1.864 -0.3852  0.5581 -0.1170
 8079TIP3   OH245651   6.507   0.842   2.844 -0.2293 -0.1415  0.6972
 8079TIP3    H145652   6.567   0.872   2.912 -1.4809 -0.3748  1.9634
 8079TIP3    H245653   6.526   0.749   2.834  1.6826  0.3804 -1.1525
 8080TIP3   OH245654   5.158   3.964   3.976  0.3129  0.1166 -0.7769
 8080TIP3    H145655   5.175   4.049   3.935  0.8281  1.1910  1.4865
 8080TIP3    H245656   5.110   3.985   4.056  0.4322 -1.7420 -0.1605
 8081TIP3   OH245657   1.274   3.465   5.222  0.3903 -0.4353  0.4051
 8081TIP3    H145658   1.196   3.450   5.168  1.5750 -0.7655 -1.2892
 8081TIP3    H245659   1.301   3.554   5.199  0.6416 -0.4029  0.8253
 8082TIP3   OH245660   4.888   5.870  10.466  0.1116  0.7101  0.4335
 8082TIP3    H145661   4.974   5.891  10.502  0.9067 -0.0272 -0.9625
 8082TIP3    H245662   4.890   5.776  10.448 -1.4360  0.4286  1.4785
 8083TIP3   OH245663   0.842   3.626   1.013  0.2187 -0.6704  0.0209
 8083TIP3    H145664   0.844   3.534   1.040 -3.0220 -1.3032 -1.3595
 8083TIP3    H245665   0.749   3.647   1.010  0.7515  1.8212 -2.3701
 8084TIP3   OH245666   4.774   1.403   5.709 -0.1859  0.1555  0.0483
 8084TIP3    H145667   4.699   1.462   5.700 -0.5390  0.0885  2.0720
 8084TIP3    H245668   4.774   1.352   5.627  0.2832  3.0219 -1.9003
 8085TIP3   OH245669   3.962   3.423  12.562 -0.4127 -0.3025 -0.5678
 8085TIP3    H145670   4.007   3.371  12.496 -0.5901 -1.9772  0.5620
 8085TIP3    H245671   3.914   3.489  12.512  2.2638  0.7785 -1.8652
 8086TIP3   OH245672   4.543   3.789   1.410  0.5395  0.0624  0.3208
 8086TIP3    H145673   4.526   3.847   1.485 -0.2186 -0.2983  0.4333
 8086TIP3    H245674   4.457   3.767   1.376  0.7492 -1.7031  0.8180
 8087TIP3   OH245675   5.737   1.856   5.858 -0.1356 -0.4082  0.0663
 8087TIP3    H145676   5.726   1.784   5.920  0.2837  0.3865  1.0783
 8087TIP3    H245677   5.667   1.918   5.881 -0.6452 -0.5745 -0.9518
 8088TIP3   OH245678   3.738   6.337  15.255  0.0389  0.3764 -0.1524
 8088TIP3    H145679   3.757   6.316  15.347  1.8447  2.8296  0.1498
 8088TIP3    H245680   3.799   6.283  15.205 -0.5447 -0.5390  0.1152
 8089TIP3   OH245681   3.255   5.899  14.781  0.6216 -0.4474 -0.5831
 8089TIP3    H145682   3.162   5.922  14.776  0.8349  0.7428  0.3592
 8089TIP3    H245683   3.256   5.804  14.783 -0.5692 -0.4801 -0.7080
 8090TIP3   OH245684   6.188   0.264  11.517 -0.0560  0.2457  0.5685
 8090TIP3    H145685   6.266   0.232  11.562  0.8456 -0.2069 -1.2329
 8090TIP3    H245686   6.136   0.186  11.499  0.9582 -0.0117 -1.6156
 8091TIP3   OH245687   2.089   2.839   6.342 -0.2256  0.0258 -0.0171
 8091TIP3    H145688   2.133   2.803   6.419  0.1383 -1.5111 -0.8786
 8091TIP3    H245689   2.097   2.934   6.351  1.6775 -0.1598  0.7803
 8092TIP3   OH245690   4.418   2.575   3.913  0.0136 -0.2871  0.6425
 8092TIP3    H145691   4.323   2.587   3.919  0.2538  2.6932  0.3030
 8092TIP3    H245692   4.431   2.529   3.830 -1.1525 -2.0461  1.3759
 8093TIP3   OH245693   4.634   4.631   2.036  0.0934 -0.5134 -0.0859
 8093TIP3    H145694   4.711   4.645   1.980 -1.1034  2.0439 -1.2474
 8093TIP3    H245695   4.633   4.707   2.094 -1.4904 -0.5397 -0.0387
 8094TIP3   OH245696   2.176   3.244  15.547 -0.1290  0.4534  0.0098
 8094TIP3    H145697   2.099   3.277  15.593 -1.6938  0.0819 -2.1900
 8094TIP3    H245698   2.195   3.311  15.482 -0.7064 -0.9511 -1.6715
 8095TIP3   OH245699   4.956   6.302   4.422 -0.0785  0.8410  0.3503
 8095TIP3    H145700   4.995   6.217   4.445  0.3828  0.7502 -0.7481
 8095TIP3    H245701   5.029   6.364   4.425  0.2057  0.6708 -1.7088
 8096TIP3   OH245702   1.390   6.497  11.497  0.5034  0.4702 -0.3472
 8096TIP3    H145703   1.451   6.565  11.525 -0.1359  1.3491 -1.0561
 8096TIP3    H245704   1.435   6.453  11.424  0.0134  1.6050 -1.3672
 8097TIP3   OH245705   2.787   2.381  12.646  0.1301  0.0294 -0.1939
 8097TIP3    H145706   2.753   2.433  12.720 -1.1416 -0.2782 -0.5340
 8097TIP3    H245707   2.880   2.374  12.663 -0.3457 -1.4422  2.2942
 8098TIP3   OH245708   0.376   3.373   2.567 -0.0046 -0.3851 -0.5350
 8098TIP3    H145709   0.431   3.382   2.490  0.6256  1.0194  0.0416
 8098TIP3    H245710   0.293   3.338   2.534  0.5684 -0.6799 -1.6967
 8099TIP3   OH245711   3.718   4.768  15.274 -0.0302  0.5058  0.3525
 8099TIP3    H145712   3.691   4.706  15.206  0.7767 -0.7467  1.1204
 8099TIP3    H245713   3.664   4.745  15.350  1.0808 -0.0594  0.9978
 8100TIP3   OH245714   3.065   4.686   5.474  0.0976 -0.2410  0.7387
 8100TIP3    H145715   3.027   4.683   5.562 -0.8900 -0.0780  0.3402
 8100TIP3    H245716   3.147   4.639   5.481 -1.0266 -2.2378  1.2561
 8101TIP3   OH245717   1.461   0.626  16.610  0.4337  0.3528 -0.4761
 8101TIP3    H145718   1.457   0.701  16.551  0.5880  1.2215  0.5869
 8101TIP3    H245719   1.421   0.554  16.561  3.6659  0.0610 -3.0498
 8102TIP3   OH245720   1.208   3.381   3.110 -0.1019  0.4305  0.3785
 8102TIP3    H145721   1.176   3.361   3.022  0.9828 -0.2728  0.1218
 8102TIP3    H245722   1.141   3.347   3.168  0.8189 -2.5101 -0.0974
 8103TIP3   OH245723   6.113   1.547   0.371  0.2516 -0.0765 -0.3390
 8103TIP3    H145724   6.073   1.634   0.378 -1.1825 -0.7249 -0.0575
 8103TIP3    H245725   6.061   1.502   0.305  2.3461 -0.0464 -2.1404
 8104TIP3   OH245726   5.869   3.705  13.804  0.1313  0.0439  0.4965
 8104TIP3    H145727   5.839   3.743  13.887 -1.3248 -0.7686  0.3677
 8104TIP3    H245728   5.808   3.633  13.787  0.6810 -0.0812 -1.0585
 8105TIP3   OH245729   1.520   4.545   1.944  0.2397 -0.1656 -0.0183
 8105TIP3    H145730   1.462   4.622   1.945 -0.2849 -0.4545 -2.5008
 8105TIP3    H245731   1.601   4.577   1.906  0.6334 -0.4842  0.5417
 8106TIP3   OH245732   4.220   6.027  13.518 -0.0263  0.3698  0.1489
 8106TIP3    H145733   4.161   5.973  13.467 -2.3739  0.7553  2.2653
 8106TIP3    H245734   4.271   6.076  13.453  0.9630 -2.9315 -1.8154
 8107TIP3   OH245735   1.201   0.621   1.673  0.2340  0.2683  0.0246
 8107TIP3    H145736   1.288   0.632   1.711 -0.9632  1.2582  2.6640
 8107TIP3    H245737   1.168   0.710   1.662 -0.4127 -0.0880 -1.1261
 8108TIP3   OH245738   3.038   5.487   4.846  0.3556 -0.4135 -0.1103
 8108TIP3    H145739   3.058   5.561   4.789  0.5285  0.1337  0.6490
 8108TIP3    H245740   3.117   5.433   4.844  0.9861  0.4466  0.8861
 8109TIP3   OH245741   0.500   1.333   1.618  0.2703  0.3149 -0.1764
 8109TIP3    H145742   0.572   1.275   1.596 -0.7595 -1.3927  0.7196
 8109TIP3    H245743   0.494   1.329   1.713 -0.3840  1.1938 -0.1683
 8110TIP3   OH245744   0.220   2.543  11.810 -0.1592  0.1570  0.3444
 8110TIP3    H145745   0.215   2.459  11.856 -3.0438 -0.7193 -1.2873
 8110TIP3    H245746   0.142   2.590  11.838 -1.0909  0.2875 -2.2284
 8111TIP3   OH245747   1.855   3.179   4.925  0.9508  0.2561  0.0239
 8111TIP3    H145748   1.865   3.184   4.830 -1.2204 -0.1462 -0.2818
 8111TIP3    H245749   1.939   3.145   4.956  1.3135 -0.7503 -1.8753
 8112TIP3   OH245750   4.143   1.606   3.075 -0.1593 -0.3166 -0.4432
 8112TIP3    H145751   4.135   1.530   3.016 -0.6767  0.3352 -1.2265
 8112TIP3    H245752   4.180   1.675   3.020  0.3067  0.0165  0.2691
 8113TIP3   OH245753   3.365   2.284   5.046  0.2120 -0.2740  0.3446
 8113TIP3    H145754   3.372   2.379   5.042  0.1996 -0.2373  0.9666
 8113TIP3    H245755   3.304   2.268   5.118 -1.9635 -0.7155 -1.5273
 8114TIP3   OH245756   5.759   5.770   4.545  0.2278  0.4178  0.0755
 8114TIP3    H145757   5.711   5.700   4.590 -1.0418  1.2374  0.0506
 8114TIP3    H245758   5.694   5.809   4.486  1.7333 -0.3253 -2.1656
 8115TIP3   OH245759   5.511   1.381  12.404 -0.1926  0.1641 -0.5891
 8115TIP3    H145760   5.543   1.306  12.354 -0.7076 -0.6711  0.3178
 8115TIP3    H245761   5.472   1.439  12.338 -1.0079 -0.9901 -1.1538
 8116TIP3   OH245762   1.594   1.124  13.933 -0.2460 -0.1360  0.5417
 8116TIP3    H145763   1.534   1.076  13.877  0.9323 -0.6533 -0.3175
 8116TIP3    H245764   1.669   1.065  13.945  0.1072  0.4885  1.5730
 8117TIP3   OH245765   3.701   6.380  14.143 -0.0540  0.9020 -0.0417
 8117TIP3    H145766   3.670   6.349  14.227  1.4191 -0.3558  0.0784
 8117TIP3    H245767   3.790   6.410  14.160  0.8222 -0.7508 -1.3879
 8118TIP3   OH245768   6.183   1.438  13.312  0.0589  0.4089 -0.5738
 8118TIP3    H145769   6.255   1.380  13.337 -1.2330 -0.8841  0.2906
 8118TIP3    H245770   6.201   1.520  13.358  1.2475  0.3037 -0.8122
 8119TIP3   OH245771   3.673   1.941   4.714 -0.3498  0.2830 -0.6302
 8119TIP3    H145772   3.766   1.917   4.717 -0.0766  1.4085  0.4659
 8119TIP3    H245773   3.651   1.963   4.805 -2.6094 -3.2336 -0.1249
 8120TIP3   OH245774   6.750   5.522  16.643  0.2535 -0.5069 -0.1881
 8120TIP3    H145775   6.812   5.590  16.619 -0.1580  0.9700  2.5413
 8120TIP3    H245776   6.790   5.480  16.720  0.1648 -2.9288 -1.3804
 8121TIP3   OH245777   5.801   0.338  14.075 -0.0424 -0.1621  1.1103
 8121TIP3    H145778   5.739   0.408  14.093  1.0919  0.9997  0.6798
 8121TIP3    H245779   5.752   0.257  14.090 -1.7645  0.6951  0.3536
 8122TIP3   OH245780   1.215   5.044   2.402  0.1163  0.0719 -0.6160
 8122TIP3    H145781   1.267   5.110   2.354 -1.2711  1.3215 -0.4629
 8122TIP3    H245782   1.151   5.095   2.450 -0.5373 -1.3830  0.0982
 8123TIP3   OH245783   0.281   4.125  16.904 -0.0302 -0.2033  0.6897
 8123TIP3    H145784   0.348   4.162  16.846 -0.1826 -0.7547  0.1536
 8123TIP3    H245785   0.281   4.183  16.980  1.6892 -0.6717  1.1035
 8124TIP3   OH245786   0.256   6.437  14.476  0.2185 -0.3311 -0.0881
 8124TIP3    H145787   0.284   6.474  14.392 -0.5613 -1.6510 -0.9598
 8124TIP3    H245788   0.185   6.377  14.453 -1.6891  1.0406  1.7522
 8125TIP3   OH245789   2.661   5.118   3.773 -0.7565  0.4595 -0.0805
 8125TIP3    H145790   2.726   5.076   3.830 -1.9555 -1.5508 -0.0934
 8125TIP3    H245791   2.619   5.184   3.828  0.9053  1.4329  0.0729
 8126TIP3   OH245792   1.922   4.336  15.065 -0.3652  0.1236 -0.3366
 8126TIP3    H145793   1.929   4.254  15.015 -1.4324 -0.6464  0.7435
 8126TIP3    H245794   1.959   4.402  15.006 -1.2132 -0.8132 -2.0081
 8127TIP3   OH245795   6.586   6.579   0.435 -0.1889  0.3241 -0.0276
 8127TIP3    H145796   6.678   6.568   0.413  0.1518  0.0425  1.4350
 8127TIP3    H245797   6.571   6.517   0.506 -1.6547 -0.0229 -0.6087
 8128TIP3   OH245798   0.299   6.001  16.771 -0.9459 -0.3041  0.2421
 8128TIP3    H145799   0.322   6.039  16.686 -2.1961 -0.1415 -0.0476
 8128TIP3    H245800   0.205   5.985  16.765 -1.2791  0.7283  1.9918
 8129TIP3   OH245801   3.737   2.683  11.896 -0.0589 -0.4937 -0.9300
 8129TIP3    H145802   3.666   2.722  11.946  1.5173  0.0366  1.0006
 8129TIP3    H245803   3.727   2.588  11.911 -0.5012 -0.4427 -0.8867
 8130TIP3   OH245804   0.556   5.651   3.661  0.1552 -0.2441  0.2987
 8130TIP3    H145805   0.568   5.718   3.593  0.3274 -0.6258 -0.0457
 8130TIP3    H245806   0.643   5.615   3.675  0.2982  0.4520  1.3714
 8131TIP3   OH245807   4.935   2.322   2.632 -0.2541  0.0104 -0.1984
 8131TIP3    H145808   5.006   2.386   2.623 -1.3005  1.1271 -0.6285
 8131TIP3    H245809   4.922   2.287   2.544 -0.0812 -0.3811 -0.0722
 8132TIP3   OH245810   5.419   0.189   2.482 -0.4586 -0.0630  0.2363
 8132TIP3    H145811   5.436   0.100   2.511  0.0270  0.5544  2.0008
 8132TIP3    H245812   5.461   0.244   2.548 -0.7039  1.4747 -0.8370
 8133TIP3   OH245813   3.619   6.000   1.920  0.1719  0.0892  0.3397
 8133TIP3    H145814   3.568   5.931   1.878 -1.0620  1.3825 -0.3918
 8133TIP3    H245815   3.645   6.058   1.848 -1.0430  1.7599  1.1647
 8134TIP3   OH245816   2.700   1.304  16.134 -0.2830 -0.3928 -1.1821
 8134TIP3    H145817   2.752   1.249  16.075 -0.5271  0.2162 -1.9800
 8134TIP3    H245818   2.631   1.340  16.079 -0.4933  0.2239 -0.5297
 8135TIP3   OH245819   0.887   2.840   6.690  0.4090  0.3130  0.0930
 8135TIP3    H145820   0.918   2.931   6.696  1.3478  0.0391 -0.3114
 8135TIP3    H245821   0.923   2.809   6.607  0.2962 -0.5014  0.3462
 8136TIP3   OH245822   0.169   4.093  16.377 -0.3704  0.3079 -0.9277
 8136TIP3    H145823   0.134   4.052  16.457 -0.4516  1.4885 -0.3293
 8136TIP3    H245824   0.109   4.166  16.360  1.4989  2.1332 -0.1210
 8137TIP3   OH245825   4.107   4.500   2.236 -0.2807 -0.4958  0.3930
 8137TIP3    H145826   4.097   4.432   2.302  1.0658 -0.2667  0.8612
 8137TIP3    H245827   4.197   4.530   2.246 -0.5534  0.6780 -0.4635
 8138TIP3   OH245828   1.955   5.500   4.807  0.4475  0.3905  0.3039
 8138TIP3    H145829   1.950   5.452   4.724  0.0877  0.4894  0.2670
 8138TIP3    H245830   1.932   5.590   4.783 -0.5969  0.2384  0.6629
 8139TIP3   OH245831   1.868   0.537  15.933  0.5549  0.5411 -0.9388
 8139TIP3    H145832   1.836   0.618  15.975  1.1065 -0.9696  2.8091
 8139TIP3    H245833   1.963   0.548  15.932  0.6217  0.0354 -0.5341
 8140TIP3   OH245834   0.211   2.744  15.225  0.1237 -0.1725  0.5525
 8140TIP3    H145835   0.161   2.700  15.156  1.0730  0.6804 -0.7136
 8140TIP3    H245836   0.150   2.808  15.261  0.1817  0.6318 -0.7511
 8141TIP3   OH245837   0.958   6.695  12.022 -0.1415 -0.5365  0.3417
 8141TIP3    H145838   1.000   6.743  12.094 -0.1288 -1.3225  0.8747
 8141TIP3    H245839   0.870   6.676  12.055 -0.9764  1.1748 -0.7988
 8142TIP3   OH245840   2.424   0.372  15.210  0.2221 -0.0507 -0.6030
 8142TIP3    H145841   2.392   0.439  15.270  1.6594  1.4319 -1.4123
 8142TIP3    H245842   2.429   0.416  15.125  1.0336 -1.2433 -1.2071
 8143TIP3   OH245843   5.314   3.698   2.771  0.2692  0.0604  0.5165
 8143TIP3    H145844   5.370   3.709   2.847  1.4267 -1.2927 -0.0840
 8143TIP3    H245845   5.289   3.605   2.773 -0.2844  0.1814 -0.3420
 8144TIP3   OH245846   4.730   5.155   4.213 -0.0730 -0.0278  0.1296
 8144TIP3    H145847   4.679   5.111   4.145 -1.9382  0.4966  1.1257
 8144TIP3    H245848   4.784   5.218   4.165 -0.9664 -0.0238 -0.9241
 8145TIP3   OH245849   1.012   2.658   1.959 -0.3602 -0.1924  0.5337
 8145TIP3    H145850   0.998   2.633   1.867 -3.2964  2.3877  0.0801
 8145TIP3    H245851   0.954   2.600   2.009 -0.7129  0.0659  0.4325
 8146TIP3   OH245852   5.499   3.397  16.232 -0.4169 -0.4318  0.2352
 8146TIP3    H145853   5.508   3.405  16.327 -0.5108  0.0428  0.2035
 8146TIP3    H245854   5.572   3.446  16.196 -0.1584 -0.9333  0.0636
 8147TIP3   OH245855   4.819   4.074  16.515 -0.1170 -0.1361 -0.4139
 8147TIP3    H145856   4.816   4.168  16.527  0.0788 -0.2890  0.9823
 8147TIP3    H245857   4.784   4.038  16.597 -1.8380 -1.2703 -1.5667
 8148TIP3   OH245858   4.168   2.299  13.945  0.7212 -0.4913  0.2471
 8148TIP3    H145859   4.160   2.379  13.997  1.7677 -0.0765 -0.1980
 8148TIP3    H245860   4.103   2.309  13.876 -0.9372 -1.2098  1.6175
 8149TIP3   OH245861   6.727   4.736   3.727  0.3734  0.3028 -0.0713
 8149TIP3    H145862   6.656   4.673   3.715  0.3656 -0.1292  1.8438
 8149TIP3    H245863   6.800   4.701   3.676  0.0712 -0.7550  0.1940
 8150TIP3   OH245864   5.193   3.529  11.488 -0.1980 -0.3062 -0.5137
 8150TIP3    H145865   5.243   3.564  11.414  0.0372  0.8533  0.1657
 8150TIP3    H245866   5.261   3.496  11.548 -0.3584 -0.6127 -0.4970
 8151TIP3   OH245867   6.557   0.710  11.838  0.2388 -0.0262 -0.7540
 8151TIP3    H145868   6.464   0.715  11.818 -0.0819 -0.6714  0.4882
 8151TIP3    H245869   6.577   0.791  11.885  0.1001 -0.2894 -0.2394
 8152TIP3   OH245870   6.206   6.713   6.621  0.0642 -0.1320 -0.2523
 8152TIP3    H145871   6.179   6.734   6.710 -2.5522 -2.0545 -0.4798
 8152TIP3    H245872   6.170   6.784   6.567 -0.7130 -0.3499 -0.0372
 8153TIP3   OH245873   5.152   4.618   1.874  0.3831  0.0829 -0.2005
 8153TIP3    H145874   5.230   4.569   1.901  1.0879  0.5958 -1.2258
 8153TIP3    H245875   5.153   4.696   1.928 -0.9831 -1.1450  1.7516
 8154TIP3   OH245876   4.136   5.196   4.295  0.5310 -0.1184  0.7125
 8154TIP3    H145877   4.171   5.269   4.346 -0.7616  1.6764 -0.7950
 8154TIP3    H245878   4.041   5.199   4.312  0.2907 -0.5345 -0.4405
 8155TIP3   OH245879   1.135   1.715   4.744 -0.0516 -0.0546  0.0102
 8155TIP3    H145880   1.134   1.786   4.680  0.1200  0.2776  0.3774
 8155TIP3    H245881   1.043   1.688   4.752 -0.4283  1.5226  1.4206
 8156TIP3   OH245882   5.303   2.271   5.461 -0.2056 -0.3057 -0.0803
 8156TIP3    H145883   5.317   2.192   5.409  0.1729 -0.0234 -0.4090
 8156TIP3    H245884   5.335   2.248   5.548 -0.1714 -0.5380 -0.1521
 8157TIP3   OH245885   2.198   2.824  13.378 -0.3619 -0.0005  0.7261
 8157TIP3    H145886   2.201   2.743  13.327  3.8009 -0.4452  1.3092
 8157TIP3    H245887   2.197   2.893  13.312  0.9110 -0.5743  0.0688
 8158TIP3   OH245888   1.863   4.342   4.258  1.1732  0.2547 -0.0866
 8158TIP3    H145889   1.942   4.388   4.229  0.6211  1.1595 -0.2082
 8158TIP3    H245890   1.846   4.377   4.346  0.7829  0.2391 -0.1528
 8159TIP3   OH245891   1.453   0.956  10.758 -0.4347  0.3070  0.3446
 8159TIP3    H145892   1.423   0.910  10.679  1.9346  0.3405 -0.6477
 8159TIP3    H245893   1.389   1.026  10.771 -0.6552  0.5834 -1.8343
 8160TIP3   OH245894   4.020   2.512  16.935 -0.2750  0.9102  0.5944
 8160TIP3    H145895   4.026   2.439  16.872 -1.5705  1.9859 -0.8395
 8160TIP3    H245896   3.992   2.471  17.016  0.4842 -0.3965  0.2276
 8161TIP3   OH245897   2.880   3.340  11.592 -0.0787 -0.7848  0.1085
 8161TIP3    H145898   2.898   3.315  11.501 -1.3996  1.3087 -0.8156
 8161TIP3    H245899   2.963   3.376  11.623  0.1926 -0.8303 -0.5352
 8162TIP3   OH245900   4.885   4.128  12.706  0.1997 -0.3663  0.1522
 8162TIP3    H145901   4.883   4.036  12.734  0.3980 -0.7090 -0.9390
 8162TIP3    H245902   4.814   4.169  12.756  1.0015 -0.7846  1.7114
 8163TIP3   OH245903   6.642   2.535  12.060 -0.0396 -0.9022  0.4937
 8163TIP3    H145904   6.650   2.449  12.020 -1.4042 -1.9079  2.2238
 8163TIP3    H245905   6.590   2.520  12.139 -1.1648  1.6514  0.3543
 8164TIP3   OH245906   6.672   6.358   5.138 -0.5705 -0.2698 -0.5693
 8164TIP3    H145907   6.602   6.422   5.150 -1.1450 -1.0804  0.5621
 8164TIP3    H245908   6.695   6.366   5.045 -3.6315 -1.4212 -1.5784
 8165TIP3   OH245909   2.706   4.173  14.717  0.0414 -0.0630  0.4644
 8165TIP3    H145910   2.676   4.137  14.800 -0.0991 -1.5859 -0.2106
 8165TIP3    H245911   2.720   4.266  14.734 -2.1869  0.1352  1.5932
 8166TIP3   OH245912   0.728   1.137   3.818 -1.1961  0.3781  0.2365
 8166TIP3    H145913   0.754   1.081   3.745 -0.6569 -1.4169  1.7260
 8166TIP3    H245914   0.720   1.225   3.779  0.5779 -0.2018 -1.6604
 8167TIP3   OH245915   4.053   2.631   6.056  0.0520 -0.5088 -0.9477
 8167TIP3    H145916   4.110   2.555   6.050  0.2525 -0.3001 -1.7365
 8167TIP3    H245917   4.023   2.646   5.966  0.5664  0.7679 -0.9275
 8168TIP3   OH245918   3.391   4.274   3.397  0.1565  0.2159 -0.4334
 8168TIP3    H145919   3.322   4.212   3.371 -1.2431  1.4929  0.0507
 8168TIP3    H245920   3.449   4.278   3.322 -0.4635 -0.6858 -0.9829
 8169TIP3   OH245921   0.240   0.975  11.333 -0.0929  0.1326 -0.7507
 8169TIP3    H145922   0.158   1.024  11.327 -1.1017 -1.3005  0.4046
 8169TIP3    H245923   0.269   0.965  11.243 -2.0148 -0.5930 -1.3501
 8170TIP3   OH245924   5.732   5.471   2.453 -0.5554  0.5158  0.0789
 8170TIP3    H145925   5.711   5.499   2.364  1.0990  2.3960  0.2020
 8170TIP3    H245926   5.789   5.395   2.442 -0.3970  0.7111 -0.4863
 8171TIP3   OH245927   5.012   0.740  12.747  0.5261  0.1975  0.5571
 8171TIP3    H145928   4.966   0.822  12.766 -0.6491 -0.2993 -0.0162
 8171TIP3    H245929   5.050   0.754  12.660  1.4634  0.5976  1.0188
 8172TIP3   OH245930   3.941   5.641  16.478 -0.2652  0.0326  0.1677
 8172TIP3    H145931   4.003   5.596  16.535 -0.2154  0.6760  0.6297
 8172TIP3    H245932   3.863   5.585  16.479  0.1189 -0.5142 -0.0061
 8173TIP3   OH245933   1.472   6.054   3.541  0.1538  0.9400  0.1662
 8173TIP3    H145934   1.532   6.065   3.468 -1.9490 -1.9673 -2.2726
 8173TIP3    H245935   1.515   5.989   3.597  0.0101 -0.0004 -0.7769
 8174TIP3   OH245936   0.992   0.217  14.093 -0.8172 -0.2205  0.3852
 8174TIP3    H145937   0.910   0.206  14.045 -0.3162 -0.5618 -0.4004
 8174TIP3    H245938   0.973   0.184  14.181 -1.2655 -1.1107 -0.0433
 8175TIP3   OH245939   6.383   4.193   4.149  0.2165  0.1757  0.2339
 8175TIP3    H145940   6.433   4.122   4.190 -0.4582 -0.8334 -0.6142
 8175TIP3    H245941   6.310   4.148   4.105  0.4172  1.2835 -1.2922
 8176TIP3   OH245942   4.125   5.296  15.424  0.3735 -0.3448 -0.1191
 8176TIP3    H145943   4.129   5.279  15.330  0.0966 -1.0149 -0.0152
 8176TIP3    H245944   4.195   5.361  15.439  1.2388 -1.1332 -0.5959
 8177TIP3   OH245945   6.650   3.745   1.747  0.4002  0.4760 -0.0067
 8177TIP3    H145946   6.560   3.776   1.758 -0.2482 -1.0380 -0.7382
 8177TIP3    H245947   6.672   3.702   1.830  0.4292  0.7720  0.1409
 8178TIP3   OH245948   6.120   0.816  16.290  0.3134 -0.5566 -0.9332
 8178TIP3    H145949   6.215   0.801  16.288  0.9806  2.7932 -0.0340
 8178TIP3    H245950   6.107   0.894  16.236 -1.3807  1.2532  1.8618
 8179TIP3   OH245951   3.338   1.236  14.626  0.4512  0.2875  0.0751
 8179TIP3    H145952   3.316   1.310  14.570 -0.1276 -0.6948 -1.0559
 8179TIP3    H245953   3.258   1.216  14.673  0.7111  0.6079  0.6591
 8180TIP3   OH245954   2.318   5.860   5.265  0.1228 -0.9228 -0.4014
 8180TIP3    H145955   2.342   5.951   5.254 -0.3451 -0.7718 -0.2220
 8180TIP3    H245956   2.343   5.839   5.354 -1.2903 -0.4683  0.1370
 8181TIP3   OH245957   4.838   6.421  15.666  0.1394 -0.5693  0.4161
 8181TIP3    H145958   4.750   6.389  15.687 -0.6101 -0.9042 -2.7222
 8181TIP3    H245959   4.873   6.355  15.606  1.4156  0.9849 -0.6055
 8182TIP3   OH245960   4.325   4.915  11.034 -0.7205  0.2740  0.4645
 8182TIP3    H145961   4.334   4.985  10.969  0.6557  0.0760  0.4134
 8182TIP3    H245962   4.273   4.848  10.991 -0.1723  0.3273 -0.2955
 8183TIP3   OH245963   6.186   3.228  12.385 -0.7690 -0.3611  0.4358
 8183TIP3    H145964   6.258   3.209  12.324 -0.5106  0.2948  0.5336
 8183TIP3    H245965   6.224   3.286  12.450 -1.7883  1.3843 -0.4416
 8184TIP3   OH245966   2.211   4.177  16.694  0.5124 -0.3717  0.4070
 8184TIP3    H145967   2.123   4.179  16.655 -0.8456  2.2570  3.1655
 8184TIP3    H245968   2.231   4.084  16.703 -1.3431 -1.0558 -1.5667
 8185TIP3   OH245969   3.272   5.858  12.139  0.0063  0.1694 -0.6742
 8185TIP3    H145970   3.240   5.806  12.065 -0.0247 -0.7684 -0.0241
 8185TIP3    H245971   3.339   5.803  12.179 -0.4253  0.3733  0.3709
 8186TIP3   OH245972   6.325   2.521  13.503  0.4603 -0.0591 -0.1948
 8186TIP3    H145973   6.411   2.483  13.484  0.6046 -0.1049  0.5287
 8186TIP3    H245974   6.303   2.488  13.590 -0.2477  0.0344 -0.3327
 8187TIP3   OH245975   6.497   4.777   2.254 -0.4645 -0.1769 -0.2682
 8187TIP3    H145976   6.479   4.826   2.174 -1.0922  0.4677  0.2575
 8187TIP3    H245977   6.520   4.843   2.319  2.9069 -0.8566 -0.5879
 8188TIP3   OH245978   1.099   5.764  11.963  0.7101  0.1753  0.2533
 8188TIP3    H145979   1.042   5.688  11.959  1.6291 -0.6258  1.6583
 8188TIP3    H245980   1.187   5.728  11.973  1.1602  1.4128  1.0534
 8189TIP3   OH245981   4.367   1.737  11.281  0.1249  0.1701 -0.0996
 8189TIP3    H145982   4.297   1.776  11.229  0.2921 -0.0289 -0.4823
 8189TIP3    H245983   4.421   1.690  11.217 -0.2940 -1.0336  0.3951
 8190TIP3   OH245984   6.400   2.804   5.451 -0.3109  0.1686  0.4639
 8190TIP3    H145985   6.486   2.801   5.493  0.9422 -0.9273 -1.9825
 8190TIP3    H245986   6.339   2.820   5.523  1.7472 -0.8434  2.5654
 8191TIP3   OH245987   4.498   2.745   2.823  0.7030  0.3771  0.0049
 8191TIP3    H145988   4.551   2.666   2.838  0.9230  0.5315  0.0494
 8191TIP3    H245989   4.539   2.786   2.746  0.8319  0.6535  0.2188
 8192TIP3   OH245990   2.107   2.056   0.029  0.6426  0.6189 -0.0800
 8192TIP3    H145991   2.176   2.030   0.091 -0.4987 -1.6694  0.3546
 8192TIP3    H245992   2.127   2.006  -0.050 -2.0432 -2.5406  1.0178
 8193TIP3   OH245993   1.535   6.761   6.716  0.9266  0.3258  0.2380
 8193TIP3    H145994   1.548   6.674   6.678 -0.1377  0.1518  0.2167
 8193TIP3    H245995   1.514   6.817   6.641  0.2833  0.2976  0.3868
 8194TIP3   OH245996   1.078   4.887   4.271  0.0308  0.5494 -0.8200
 8194TIP3    H145997   1.136   4.944   4.322  2.2982 -1.7512 -0.6221
 8194TIP3    H245998   1.080   4.922   4.182 -0.7270  2.2273 -0.2189
 8195TIP3   OH245999   0.985   0.855  16.156 -0.2977 -0.2165 -0.8906
 8195TIP3    H146000   1.046   0.781  16.155  0.3988  0.3291 -2.3720
 8195TIP3    H246001   0.932   0.843  16.077 -1.9901 -0.5553  0.2601
 8196TIP3   OH246002   5.383   5.126   2.135  0.2798  0.2029  0.2795
 8196TIP3    H146003   5.291   5.137   2.158 -0.0870  0.0834 -1.0406
 8196TIP3    H246004   5.407   5.039   2.167 -1.0205 -1.1629 -2.1877
 8197TIP3   OH246005   5.190   0.179   4.701 -0.4647 -0.0811  0.7714
 8197TIP3    H146006   5.142   0.262   4.694  2.4961  1.7279  0.0384
 8197TIP3    H246007   5.152   0.124   4.632 -1.7705  1.0488  0.5358
 8198TIP3   OH246008   2.668   5.370   4.372  0.2498  0.2063 -0.0103
 8198TIP3    H146009   2.689   5.314   4.447  1.0775 -1.3630 -1.3425
 8198TIP3    H246010   2.572   5.371   4.369  0.1566 -2.5118 -0.8442
 8199TIP3   OH246011   1.601   2.156  12.427 -0.0482 -0.0898 -0.5617
 8199TIP3    H146012   1.681   2.130  12.383 -0.4555  1.5678 -2.4514
 8199TIP3    H246013   1.531   2.135  12.365 -0.9371 -0.1997  0.4491
 8200TIP3   OH246014   4.506   5.754  12.459  0.2666 -0.1448 -0.1957
 8200TIP3    H146015   4.563   5.724  12.530  0.6800  0.3242 -0.3232
 8200TIP3    H246016   4.552   5.829  12.421 -1.2360  1.3780  0.8184
 8201TIP3   OH246017   3.671   6.421   5.856  0.1685  0.4990  0.3605
 8201TIP3    H146018   3.627   6.491   5.904 -0.9196  0.1296 -0.0604
 8201TIP3    H246019   3.600   6.363   5.828  0.9317 -0.1301 -0.3244
 8202TIP3   OH246020   3.519   6.788  15.770 -0.8968  0.2992  0.0763
 8202TIP3    H146021   3.533   6.869  15.721 -0.6822 -0.2357 -0.7686
 8202TIP3    H246022   3.448   6.809  15.831 -0.6749  1.1894  0.0423
 8203TIP3   OH246023   1.366   4.320   4.849  0.0895 -0.0310  0.0859
 8203TIP3    H146024   1.295   4.302   4.787  0.9943  1.3840 -1.4285
 8203TIP3    H246025   1.443   4.337   4.794  1.5184 -1.0816  1.6784
 8204TIP3   OH246026   1.207   0.294   2.953  0.0002 -0.1362 -0.4240
 8204TIP3    H146027   1.283   0.271   2.900  1.0304  1.8133  0.1045
 8204TIP3    H246028   1.214   0.239   3.030  0.8962  0.0159 -0.3858
 8205TIP3   OH246029   6.772   1.130   5.812 -0.1782  0.0645 -0.1007
 8205TIP3    H146030   6.815   1.209   5.846 -1.1140  0.4674  0.1618
 8205TIP3    H246031   6.683   1.135   5.845 -0.8811  0.0116 -1.8605
 8206TIP3   OH246032   3.637   5.273   0.318 -0.1426  0.0595 -0.3029
 8206TIP3    H146033   3.639   5.206   0.386 -0.1720  2.2867  2.0569
 8206TIP3    H246034   3.557   5.323   0.336  1.2382  2.3722 -0.1908
 8207TIP3   OH246035   2.270   1.905  17.052  0.1132  0.0945 -0.2388
 8207TIP3    H146036   2.237   1.815  17.049  2.0173 -0.7494  1.6914
 8207TIP3    H246037   2.366   1.895  17.050  0.4290  1.8999  2.2169
 8208TIP3   OH246038   0.281   2.239  10.883 -0.3132 -0.6809 -0.1985
 8208TIP3    H146039   0.210   2.270  10.827 -1.0939 -1.7301  0.1787
 8208TIP3    H246040   0.302   2.153  10.848 -0.0758 -0.8928  0.4674
 8209TIP3   OH246041   6.177   4.382   2.294  0.1112  0.5219 -0.0071
 8209TIP3    H146042   6.188   4.406   2.386 -0.4801  0.5778  0.0546
 8209TIP3    H246043   6.213   4.456   2.245  0.3462  0.5315  0.1792
 8210TIP3   OH246044   3.377   2.009  10.237  0.8110 -0.2322  0.0127
 8210TIP3    H146045   3.290   2.002  10.278  0.0733  0.7671 -1.3056
 8210TIP3    H246046   3.427   2.064  10.297  0.4973 -0.7250  0.7362
 8211TIP3   OH246047   2.400   3.831  15.935  0.6097 -0.2025  0.0920
 8211TIP3    H146048   2.466   3.887  15.893 -0.8645  0.8507 -0.9168
 8211TIP3    H246049   2.337   3.811  15.866 -0.5060 -0.6015  1.1821
 8212TIP3   OH246050   5.587   1.945  16.845  0.5225  0.4921 -0.4923
 8212TIP3    H146051   5.637   2.016  16.886 -0.1754 -0.8039  2.9484
 8212TIP3    H246052   5.647   1.871  16.845  0.5765  0.5002 -2.1898
 8213TIP3   OH246053   1.293   6.771   3.980 -0.1681  0.2625  0.2178
 8213TIP3    H146054   1.321   6.691   4.025  1.1356  0.8487  0.4941
 8213TIP3    H246055   1.209   6.748   3.940  0.2559 -1.2931  0.1535
 8214TIP3   OH246056   1.502   3.655   0.938 -0.0229 -0.4046 -0.0907
 8214TIP3    H146057   1.508   3.659   1.033  0.5309 -1.4526 -0.0768
 8214TIP3    H246058   1.427   3.598   0.920 -0.6572  0.4684 -0.2957
 8215TIP3   OH246059   5.799   1.704  16.762  0.1534  0.4625 -0.4876
 8215TIP3    H146060   5.887   1.739  16.752  0.1013  0.6913 -0.1624
 8215TIP3    H246061   5.790   1.641  16.690  0.8724 -0.1653 -0.0370
 8216TIP3   OH246062   2.131   4.853  14.574  0.3459  0.7271  0.0750
 8216TIP3    H146063   2.047   4.880  14.537  1.2739 -0.0312 -2.9207
 8216TIP3    H246064   2.127   4.757  14.576  1.1266  0.6804 -0.1604
 8217TIP3   OH246065   6.148   3.515  14.497  0.3756 -0.6278 -0.1592
 8217TIP3    H146066   6.154   3.427  14.461 -0.8161 -0.1279 -1.6833
 8217TIP3    H246067   6.129   3.571  14.421  0.8090  0.9025  0.8098
 8218TIP3   OH246068   2.748   4.927  15.311  0.0476  0.1720 -0.0062
 8218TIP3    H146069   2.769   5.019  15.293 -0.4952  0.3620  0.2983
 8218TIP3    H246070   2.695   4.899  15.237  0.6293 -0.0499 -0.3454
 8219TIP3   OH246071   0.442   0.181  13.886 -0.6721 -0.2311 -0.5139
 8219TIP3    H146072   0.389   0.201  13.809 -1.0238 -0.6979 -0.3943
 8219TIP3    H246073   0.468   0.267  13.919  0.2657 -0.0258 -1.6818
 8220TIP3   OH246074   3.483   0.378  13.576  0.3407  0.3300  0.3036
 8220TIP3    H146075   3.399   0.419  13.596 -0.4532 -1.0743  0.0482
 8220TIP3    H246076   3.515   0.426  13.500  0.2895  1.5528  1.0271
 8221TIP3   OH246077   4.591   0.651  12.355 -0.7282 -0.7076  0.2599
 8221TIP3    H146078   4.620   0.721  12.414 -1.1564  0.3614 -0.7479
 8221TIP3    H246079   4.525   0.603  12.405  0.0657 -0.8330  1.2129
 8222TIP3   OH246080   4.810   4.944   5.114  0.2909 -0.5886 -0.3615
 8222TIP3    H146081   4.769   5.015   5.164 -0.5596  0.5138 -2.4988
 8222TIP3    H246082   4.904   4.962   5.119  0.0526  1.0363 -1.3341
 8223TIP3   OH246083   3.560   6.659   3.300  0.2262 -0.6877  0.4640
 8223TIP3    H146084   3.560   6.730   3.236  1.0125  0.0299  1.2281
 8223TIP3    H246085   3.643   6.612   3.284  0.7957 -0.0465  1.4156
 8224TIP3   OH246086   5.319   5.122  15.045  0.2835 -0.2507 -0.3924
 8224TIP3    H146087   5.265   5.062  14.994 -1.7904 -0.0177  1.3523
 8224TIP3    H246088   5.301   5.098  15.136  0.9869  1.6784  0.3113
 8225TIP3   OH246089   3.328   4.648   1.690  0.3005 -0.9216 -0.6599
 8225TIP3    H146090   3.264   4.658   1.620 -0.7001 -3.1984 -0.1752
 8225TIP3    H246091   3.318   4.727   1.743 -1.4027 -0.7426 -1.1812
 8226TIP3   OH246092   0.528   6.415  14.569 -0.3893 -0.5718  0.1812
 8226TIP3    H146093   0.470   6.435  14.643 -1.8953 -1.7065 -0.6310
 8226TIP3    H246094   0.469   6.395  14.497  1.0486  0.4771 -1.3579
 8227TIP3   OH246095   0.235   0.184  10.574 -0.2895  0.2293 -0.3366
 8227TIP3    H146096   0.142   0.160  10.570 -0.4105  0.4475  0.7488
 8227TIP3    H246097   0.279   0.121  10.517 -0.8619 -1.2403  0.7593
 8228TIP3   OH246098   4.374   4.636  13.487 -0.1404 -0.0469 -0.4519
 8228TIP3    H146099   4.321   4.567  13.526 -1.9850  1.1485 -0.7455
 8228TIP3    H246100   4.453   4.591  13.456 -0.3749 -1.6585  1.1342
 8229TIP3   OH246101   5.798   1.316   2.711  0.4162  0.0984 -0.6393
 8229TIP3    H146102   5.864   1.246   2.710 -0.9075 -1.2345  0.5386
 8229TIP3    H246103   5.759   1.314   2.624 -0.2757 -1.3306 -0.3248
 8230TIP3   OH246104   2.037   6.481   3.491 -0.3405 -0.2054  0.3336
 8230TIP3    H146105   1.956   6.453   3.449 -0.0222 -2.0209  0.8492
 8230TIP3    H246106   2.106   6.431   3.447  0.1290 -1.1952  2.0923
 8231TIP3   OH246107   4.679   3.394  12.034 -0.3654 -0.0446 -0.5015
 8231TIP3    H146108   4.727   3.349  12.103 -0.1074 -0.3589 -0.8892
 8231TIP3    H246109   4.593   3.412  12.073 -0.1146  0.0628  0.0109
 8232TIP3   OH246110   3.263   1.151  11.658 -0.5287 -0.4445 -0.2012
 8232TIP3    H146111   3.313   1.198  11.591 -0.2530  0.8691  0.8754
 8232TIP3    H246112   3.257   1.213  11.731 -1.9728 -1.3368  0.4785
 8233TIP3   OH246113   4.146   4.910  11.402  0.2161  0.4619 -0.2124
 8233TIP3    H146114   4.227   4.962  11.399 -0.3698  1.4180  0.1565
 8233TIP3    H246115   4.081   4.968  11.441 -0.4452 -0.5833  0.3081
 8234TIP3   OH246116   5.150   2.228  13.733 -0.2102 -0.1210  0.0597
 8234TIP3    H146117   5.145   2.225  13.829 -1.2662  1.9563  0.1190
 8234TIP3    H246118   5.059   2.232  13.704  0.1235  1.4289 -0.8894
 8235TIP3   OH246119   5.296   1.630   5.380 -0.2324  0.4181  0.0717
 8235TIP3    H146120   5.223   1.674   5.422 -1.1600 -0.5936 -0.4227
 8235TIP3    H246121   5.328   1.568   5.445  0.8598  1.5529  0.6496
 8236TIP3   OH246122   1.929   0.882  15.083  0.0190 -0.2075 -0.0225
 8236TIP3    H146123   1.869   0.820  15.124  1.4284 -0.0542  2.4134
 8236TIP3    H246124   2.008   0.879  15.136  0.7323  2.5164 -0.7514
 8237TIP3   OH246125   2.412   2.946  13.518  0.1890 -0.4402 -0.0247
 8237TIP3    H146126   2.460   2.909  13.444 -1.3127  0.8080 -1.6875
 8237TIP3    H246127   2.320   2.926  13.500 -0.4837  2.2534  0.0367
 8238TIP3   OH246128   5.904   5.426   5.572  0.1552  0.4171  0.1485
 8238TIP3    H146129   5.889   5.479   5.651  0.3014 -0.5113  0.8071
 8238TIP3    H246130   5.830   5.365   5.569  0.2895  0.2678 -0.2914
 8239TIP3   OH246131   3.568   5.258  16.459 -0.3311 -0.0982 -0.2549
 8239TIP3    H146132   3.599   5.255  16.549  0.8060  0.5328 -0.6017
 8239TIP3    H246133   3.496   5.195  16.456  0.1791 -0.7700  0.8828
 8240TIP3   OH246134   2.694   3.251   5.748 -0.1938 -0.1357  0.4093
 8240TIP3    H146135   2.607   3.275   5.780 -0.8632 -1.0650 -0.6704
 8240TIP3    H246136   2.688   3.257   5.653  0.8430 -0.4869  0.3027
 8241TIP3   OH246137   5.974   6.028   0.939 -0.5625  0.2906  0.1744
 8241TIP3    H146138   6.000   5.959   1.000  0.8864 -1.0978 -1.8543
 8241TIP3    H246139   5.961   5.982   0.856 -1.8213  2.1732 -0.7382
 8242TIP3   OH246140   4.140   2.407  12.971  0.1998 -0.1313 -0.2190
 8242TIP3    H146141   4.049   2.377  12.964 -0.0681  0.6542 -0.1768
 8242TIP3    H246142   4.178   2.387  12.885  0.0296 -0.5984 -0.1862
 8243TIP3   OH246143   1.838   1.834  10.407  0.0269 -0.1498  0.0972
 8243TIP3    H146144   1.751   1.867  10.386  0.5785  0.3145 -1.6480
 8243TIP3    H246145   1.877   1.902  10.462  0.1838  0.8991 -1.2487
 8244TIP3   OH246146   1.601   6.463  15.145 -0.1476 -0.6318 -0.5041
 8244TIP3    H146147   1.556   6.392  15.098 -1.3962 -1.2168  1.4579
 8244TIP3    H246148   1.621   6.426  15.231 -0.6596  1.3100  0.5124
 8245TIP3   OH246149   3.629   3.462   2.722  0.5427  0.3271  0.2262
 8245TIP3    H146150   3.709   3.514   2.715  1.1898 -0.7696 -0.7354
 8245TIP3    H246151   3.588   3.470   2.637 -0.1409  0.4961  0.5655
 8246TIP3   OH246152   6.163   4.014  13.862  0.5600  0.4563 -0.1016
 8246TIP3    H146153   6.175   3.970  13.779 -0.6768 -1.4485  0.6684
 8246TIP3    H246154   6.076   3.987  13.892  0.4567  2.0676  1.2504
 8247TIP3   OH246155   0.131   3.174   1.653 -0.0386 -0.0870  0.5462
 8247TIP3    H146156   0.152   3.233   1.725  0.8174 -0.1960  0.3970
 8247TIP3    H246157   0.130   3.230   1.575  0.3994 -0.1983  0.4575
 8248TIP3   OH246158   3.673   2.084   0.295  0.2531  0.4371 -0.1935
 8248TIP3    H146159   3.710   2.034   0.367  0.7797  0.6204 -0.3335
 8248TIP3    H246160   3.682   2.027   0.219 -1.6434 -0.3651  0.1292
 8249TIP3   OH246161   5.490   2.782  12.734 -0.3797 -0.0602  0.3559
 8249TIP3    H146162   5.541   2.845  12.785  1.1996 -0.2083 -0.9550
 8249TIP3    H246163   5.401   2.815  12.737  0.4257  2.3899 -0.4623
 8250TIP3   OH246164   2.557   1.501   5.720 -0.6334  0.2698 -0.5566
 8250TIP3    H146165   2.529   1.553   5.795  0.2506  1.3650 -0.9569
 8250TIP3    H246166   2.492   1.518   5.653 -0.8513  0.1213 -0.3827
 8251TIP3   OH246167   4.750   4.397   1.166  0.3496 -0.1652 -0.2470
 8251TIP3    H146168   4.686   4.398   1.095 -2.8214  0.8849  2.3592
 8251TIP3    H246169   4.734   4.315   1.212 -0.2525  0.7508  1.2800
 8252TIP3   OH246170   4.021   4.556   0.854 -0.3495  0.0804  0.0834
 8252TIP3    H146171   3.931   4.587   0.846 -1.2406 -1.7592  2.0666
 8252TIP3    H246172   4.035   4.544   0.948  2.3774  1.3520 -0.0711
 8253TIP3   OH246173   6.588   6.363  12.136 -0.0499 -0.2926  0.1767
 8253TIP3    H146174   6.514   6.382  12.078  1.0267  2.4555 -0.4390
 8253TIP3    H246175   6.550   6.361  12.223 -1.2073 -1.4236 -0.3199
 8254TIP3   OH246176   6.299   4.656  11.690  0.0026  0.2255 -0.4293
 8254TIP3    H146177   6.354   4.636  11.765 -0.6868  3.0319  0.9832
 8254TIP3    H246178   6.360   4.683  11.622  0.6355 -2.3764 -0.9867
 8255TIP3   OH246179   5.335   2.279   1.150  0.0800  0.3440  0.2397
 8255TIP3    H146180   5.409   2.313   1.101  1.6975 -0.7318  1.8082
 8255TIP3    H246181   5.359   2.188   1.170 -2.5826 -0.7265 -0.9514
 8256TIP3   OH246182   6.715   1.654  14.468 -0.3295  0.6518  0.4675
 8256TIP3    H146183   6.697   1.596  14.543 -2.0500  0.2173 -0.2095
 8256TIP3    H246184   6.810   1.652  14.458 -0.2778 -1.7841  0.7259
 8257TIP3   OH246185   1.898   2.778   3.579 -0.3922 -0.1006  0.3016
 8257TIP3    H146186   1.919   2.702   3.526  1.8091  0.4381  0.3227
 8257TIP3    H246187   1.864   2.843   3.517 -0.0725 -0.2978 -0.0790
 8258TIP3   OH246188   2.903   3.297  10.526 -0.4627 -0.2302 -0.4447
 8258TIP3    H146189   2.875   3.273  10.438  0.6162  0.8097 -1.1084
 8258TIP3    H246190   2.950   3.221  10.559 -0.0731 -0.2949 -1.1446
 8259TIP3   OH246191   1.940   3.351   0.540 -0.1297 -0.7050  0.0903
 8259TIP3    H146192   1.895   3.296   0.476  1.0298  0.6343 -1.9675
 8259TIP3    H246193   1.872   3.407   0.576 -1.0217 -2.2993  1.0049
 8260TIP3   OH246194   1.732   1.672   3.648 -0.2643  0.5502 -0.7351
 8260TIP3    H146195   1.795   1.739   3.673  0.1662  0.0716 -0.5238
 8260TIP3    H246196   1.775   1.624   3.577 -1.1344  1.3757 -1.8845
 8261TIP3   OH246197   2.235   5.610   3.380  0.6902  0.2674 -0.5226
 8261TIP3    H146198   2.266   5.651   3.460  0.5559 -1.7981  0.6465
 8261TIP3    H246199   2.305   5.551   3.354  0.8606  1.1248 -2.1352
 8262TIP3   OH246200   2.008   0.966  14.558 -0.1678  0.5162  0.4437
 8262TIP3    H146201   1.954   1.044  14.547  0.2181  0.8762  1.0620
 8262TIP3    H246202   1.982   0.929  14.642  1.0536  1.1186  1.1144
 8263TIP3   OH246203   0.044   2.482   3.007 -0.0761  0.3310  0.3312
 8263TIP3    H146204  -0.005   2.424   2.949 -0.4918 -0.4516  1.4234
 8263TIP3    H246205   0.079   2.550   2.950 -1.7540  0.4441 -0.6211
 8264TIP3   OH246206   5.194   2.154   2.718  0.0957  0.5978  0.3061
 8264TIP3    H146207   5.109   2.174   2.756  0.0020 -1.8517  1.5292
 8264TIP3    H246208   5.252   2.221   2.753 -1.1187  1.8022  0.1166
 8265TIP3   OH246209   0.941   5.950  11.393  0.1294  0.3764  0.4728
 8265TIP3    H146210   0.875   5.961  11.462 -0.7835  0.8631 -0.4538
 8265TIP3    H246211   0.978   5.863  11.409 -1.2844 -0.2370  0.5619
 8266TIP3   OH246212   3.024   5.318  15.074 -0.5432  0.1774 -0.2551
 8266TIP3    H146213   3.068   5.236  15.097  1.8453  1.8871  1.8248
 8266TIP3    H246214   2.951   5.291  15.018  0.5322 -3.2716 -0.2435
 8267TIP3   OH246215   1.109   5.909   5.338  0.5216  0.0008 -0.3322
 8267TIP3    H146216   1.077   5.934   5.251  0.0076  0.9760  0.1274
 8267TIP3    H246217   1.092   5.985   5.393  0.3292 -0.7988  0.7564
 8268TIP3   OH246218   5.226   1.980   1.263  0.4215  0.6488  0.5181
 8268TIP3    H146219   5.199   1.926   1.338  0.7399  0.5569  0.5696
 8268TIP3    H246220   5.145   2.001   1.218  0.1818  1.0379  1.1167
 8269TIP3   OH246221   3.007   4.852  14.330  0.1066  0.1123  0.0744
 8269TIP3    H146222   3.048   4.838  14.244 -2.2625  1.2739 -1.3509
 8269TIP3    H246223   2.987   4.945  14.333 -1.5493 -0.2329  1.0658
 8270TIP3   OH246224   6.576   2.275   4.765 -0.1925  0.1171 -0.1423
 8270TIP3    H146225   6.547   2.250   4.677  0.9800 -1.1114 -0.2160
 8270TIP3    H246226   6.497   2.306   4.808 -1.1880 -1.0686 -1.0291
 8271TIP3   OH246227   3.849   5.530   3.480  0.2415  0.0681 -0.1005
 8271TIP3    H146228   3.824   5.480   3.558 -1.5504 -1.3737 -1.4911
 8271TIP3    H246229   3.815   5.618   3.496 -3.0140 -0.9685 -0.4534
 8272TIP3   OH246230   2.133   5.211  13.201 -0.2606 -0.0924  0.2521
 8272TIP3    H146231   2.071   5.265  13.153 -0.3226  0.6624  1.1593
 8272TIP3    H246232   2.198   5.273  13.234 -0.1262 -0.6173  0.9966
 8273TIP3   OH246233   2.681   1.666  17.071  0.0028 -0.5822 -0.4696
 8273TIP3    H146234   2.642   1.580  17.054 -0.6767 -0.2019 -0.9137
 8273TIP3    H246235   2.665   1.715  16.990  1.7672 -0.5237 -0.8101
 8274TIP3   OH246236   6.677   1.836  12.033  0.0263 -0.5264 -0.3724
 8274TIP3    H146237   6.725   1.802  12.108 -0.9594  1.1571  1.1048
 8274TIP3    H246238   6.745   1.851  11.967  1.1448 -0.7059  0.6894
 8275TIP3   OH246239   3.671   2.566  16.677  0.5693 -0.0448  0.0928
 8275TIP3    H146240   3.685   2.550  16.583  0.6483  1.2762 -0.1376
 8275TIP3    H246241   3.715   2.650  16.694  0.7769 -0.3933  1.3761
 8276TIP3   OH246242   2.188   3.863   4.930 -0.0298 -0.5429 -0.4954
 8276TIP3    H146243   2.256   3.866   4.997  2.4460 -1.2933 -2.7545
 8276TIP3    H246244   2.141   3.945   4.939  0.7692 -0.2456  1.5534
 8277TIP3   OH246245   3.480   4.553  13.155 -0.7155  0.1481 -0.2726
 8277TIP3    H146246   3.499   4.642  13.125 -0.0929 -0.1261 -0.6983
 8277TIP3    H246247   3.392   4.560  13.193 -0.4699  1.0550  0.1717
 8278TIP3   OH246248   4.772   0.993   3.636  0.4100  0.2989  0.2487
 8278TIP3    H146249   4.857   0.975   3.675  1.7481 -1.9102 -3.2356
 8278TIP3    H246250   4.710   0.938   3.684  1.4786 -0.2910  0.9613
 8279TIP3   OH246251   1.707   1.622  14.619 -0.0590  0.2220  0.5161
 8279TIP3    H146252   1.736   1.711  14.636 -2.2388  1.1733 -0.3855
 8279TIP3    H246253   1.754   1.569  14.684  1.3923  1.9713  0.9810
 8280TIP3   OH246254   4.065   1.138  10.414  0.1115 -0.2859 -0.0357
 8280TIP3    H146255   4.134   1.152  10.479  0.6473 -0.3275 -0.5865
 8280TIP3    H246256   4.034   1.226  10.393  0.8115 -0.1760 -0.6479
 8281TIP3   OH246257   1.709   1.849   3.317 -0.4608 -0.6967  0.7186
 8281TIP3    H146258   1.782   1.786   3.325 -0.2425 -0.6473 -0.5882
 8281TIP3    H246259   1.751   1.935   3.323 -0.2236 -0.6480 -1.0119
 8282TIP3   OH246260   4.966   6.232  14.492 -0.4202 -0.6410  0.3335
 8282TIP3    H146261   4.877   6.265  14.502  0.5399  2.3107  0.1213
 8282TIP3    H246262   4.964   6.183  14.410 -1.6424  0.3284 -0.2555
 8283TIP3   OH246263   6.355   3.291  15.726  0.1005 -0.3648 -0.6880
 8283TIP3    H146264   6.331   3.345  15.801  0.3735  0.0777 -0.9202
 8283TIP3    H246265   6.333   3.202  15.753  0.3577 -0.2300 -0.0186
 8284TIP3   OH246266   4.117   6.120   6.429  0.3144  0.2192  0.4590
 8284TIP3    H146267   4.141   6.053   6.366  0.2073 -0.4833  1.1457
 8284TIP3    H246268   4.138   6.081   6.514 -2.2060 -0.0091  1.0385
 8285TIP3   OH246269   3.295   5.911   3.423  0.7808 -0.3998  0.2852
 8285TIP3    H146270   3.334   5.902   3.336 -2.5051 -0.2016 -1.3726
 8285TIP3    H246271   3.312   5.827   3.466  0.8021 -1.2540 -1.3215
 8286TIP3   OH246272   4.765   5.206   2.916  0.8420  0.8967 -0.3345
 8286TIP3    H146273   4.718   5.225   2.997 -1.6023  0.5411 -1.5812
 8286TIP3    H246274   4.789   5.292   2.881  2.1839  1.0401  0.8710
 8287TIP3   OH246275   2.740   1.597  12.270  0.7124 -0.4954 -0.5662
 8287TIP3    H146276   2.714   1.638  12.188 -0.0515 -1.5329 -0.8623
 8287TIP3    H246277   2.684   1.520  12.278  1.7056 -1.1719  0.2453
 8288TIP3   OH246278   2.407   1.453  12.783  0.3283  0.1309  0.1452
 8288TIP3    H146279   2.457   1.523  12.741  2.3845 -0.1721  1.9208
 8288TIP3    H246280   2.340   1.499  12.835  1.1564  0.7499  0.6817
 8289TIP3   OH246281   2.929   6.022   5.633 -0.6619 -0.8452  0.4488
 8289TIP3    H146282   2.850   6.067   5.660 -1.5774 -1.4063 -1.1549
 8289TIP3    H246283   2.899   5.938   5.599  0.2319 -0.0021 -2.8243
 8290TIP3   OH246284   3.999   5.048  13.723  0.4115 -0.2761 -0.5153
 8290TIP3    H146285   4.007   4.961  13.763  0.7758 -0.7108 -1.4983
 8290TIP3    H246286   4.087   5.084  13.727  0.7237 -0.8134 -1.9668
 8291TIP3   OH246287   1.338   5.123  12.495  0.4518 -0.0852 -0.0758
 8291TIP3    H146288   1.420   5.165  12.470 -0.2306  0.9303 -0.7166
 8291TIP3    H246289   1.352   5.093  12.584  1.4988  0.1301 -0.1560
 8292TIP3   OH246290   5.381   1.169   0.580 -0.3547 -0.4180  0.2982
 8292TIP3    H146291   5.381   1.139   0.671  0.0166  0.8775  0.7458
 8292TIP3    H246292   5.288   1.181   0.559 -0.3893  0.6091  0.9812
 8293TIP3   OH246293   3.683   3.185  11.416 -0.0659  0.2280  0.9267
 8293TIP3    H146294   3.605   3.240  11.425  0.7835  1.1812  3.3627
 8293TIP3    H246295   3.697   3.178  11.322 -3.5600 -0.7295  0.3578
 8294TIP3   OH246296   2.836   3.920   3.674 -0.0662 -0.2529  0.2968
 8294TIP3    H146297   2.776   3.995   3.680 -0.2412 -0.1560 -1.8533
 8294TIP3    H246298   2.793   3.852   3.726 -0.6846  0.6379  0.9988
 8295TIP3   OH246299   2.882   1.286  14.794 -0.1881 -0.2844  0.4476
 8295TIP3    H146300   2.801   1.249  14.829 -1.3333  0.9352 -0.8129
 8295TIP3    H246301   2.927   1.212  14.754  0.4435 -1.4275  3.0362
 8296TIP3   OH246302   2.553   2.911   3.924 -0.0802 -0.7717  0.1480
 8296TIP3    H146303   2.531   2.998   3.890  1.1062 -0.2331  0.6884
 8296TIP3    H246304   2.541   2.852   3.850  0.9723  0.1506 -0.7878
 8297TIP3   OH246305   5.346   2.087  12.828  0.3437  0.5211 -0.7802
 8297TIP3    H146306   5.342   2.174  12.868  1.6534 -0.1895  0.9661
 8297TIP3    H246307   5.261   2.048  12.847  0.2400  0.9172 -0.4274
 8298TIP3   OH246308   6.703   4.979  13.284 -0.1501  0.4266 -0.3473
 8298TIP3    H146309   6.771   4.914  13.299  0.0497  0.4561 -1.0499
 8298TIP3    H246310   6.623   4.927  13.271 -0.0379  0.3245 -0.6600
 8299TIP3   OH246311   4.125   5.830  15.330  0.0583  0.1957  0.0922
 8299TIP3    H146312   4.073   5.821  15.409 -0.1825 -1.5727 -0.2207
 8299TIP3    H246313   4.198   5.887  15.355 -0.4062  0.2536  1.3690
 8300TIP3   OH246314   0.259   0.608   1.155  0.4275 -0.1371 -0.0213
 8300TIP3    H146315   0.334   0.560   1.191 -0.2345 -1.8461 -0.7943
 8300TIP3    H246316   0.291   0.644   1.072  0.6216 -0.1831  0.0326
 8301TIP3   OH246317   0.683   1.034   2.626  0.0548 -0.3213  0.3018
 8301TIP3    H146318   0.657   1.098   2.560  1.9541  0.3035  0.1202
 8301TIP3    H246319   0.692   0.952   2.578 -1.4330 -0.5550  0.3617
 8302TIP3   OH246320   4.875   2.845   2.239  0.0113  0.2595  0.1390
 8302TIP3    H146321   4.882   2.804   2.325 -1.3122 -0.2121  0.0361
 8302TIP3    H246322   4.937   2.918   2.243  1.7365 -1.1479  0.6545
 8303TIP3   OH246323   3.046   2.478  15.110  0.3282  0.2484  0.7391
 8303TIP3    H146324   3.131   2.447  15.077 -0.3712  0.7292 -1.6884
 8303TIP3    H246325   2.987   2.404  15.097 -0.0709  0.6209  0.3764
 8304TIP3   OH246326   3.478   1.514   2.948  0.1503  0.2673 -0.1485
 8304TIP3    H146327   3.467   1.419   2.955  0.9228  0.1653 -0.2763
 8304TIP3    H246328   3.540   1.526   2.877 -1.3119  0.9567 -1.3637
 8305TIP3   OH246329   6.563   2.715   2.411  0.1151  0.1319  0.3732
 8305TIP3    H146330   6.491   2.765   2.373  0.4534  0.5507  0.2834
 8305TIP3    H246331   6.638   2.773   2.407  0.3448 -0.1115  0.9429
 8306TIP3   OH246332   3.812   4.366  16.231 -0.4693 -0.1165  0.7297
 8306TIP3    H146333   3.851   4.370  16.318  1.5698 -0.1177 -0.1349
 8306TIP3    H246334   3.833   4.278  16.199  1.0433  0.7050 -0.7073
 8307TIP3   OH246335   1.090   3.862   4.323  0.2394  0.4171  0.0661
 8307TIP3    H146336   1.160   3.866   4.389  1.4248  0.3672 -1.1365
 8307TIP3    H246337   1.061   3.952   4.313  0.4107  0.4981  0.2948
 8308TIP3   OH246338   2.578   6.623   6.376  0.0145  0.2472 -0.0259
 8308TIP3    H146339   2.492   6.582   6.384 -0.1044  0.2340 -1.1467
 8308TIP3    H246340   2.590   6.672   6.457 -2.0661  2.1558 -0.7697
 8309TIP3   OH246341   2.057   5.388   1.654 -0.2318  0.4091  0.5075
 8309TIP3    H146342   2.018   5.352   1.574 -1.8290 -0.1003  1.4570
 8309TIP3    H246343   2.109   5.316   1.690  0.4843  0.6368 -0.0436
 8310TIP3   OH246344   3.447   3.943  12.621  0.2592  0.2035  0.0276
 8310TIP3    H146345   3.389   3.871  12.648  0.3145  0.3653  0.6047
 8310TIP3    H246346   3.485   3.914  12.538 -1.7288  0.7125 -1.1116
 8311TIP3   OH246347   2.006   1.396   1.712  0.1133 -0.0993 -0.0209
 8311TIP3    H146348   2.044   1.440   1.636 -1.7474 -1.2102 -1.6869
 8311TIP3    H246349   1.945   1.459   1.748  0.2943  0.0852 -0.0333
 8312TIP3   OH246350   5.846   4.163  14.590 -0.4642 -0.1414  0.5163
 8312TIP3    H146351   5.786   4.185  14.661  0.5192  2.5568  0.6308
 8312TIP3    H246352   5.873   4.248  14.555  0.9672 -1.3487 -1.4974
 8313TIP3   OH246353   5.982   6.341  16.661  0.0967 -0.4843 -0.2244
 8313TIP3    H146354   6.064   6.361  16.706  0.3116 -2.0157  0.0999
 8313TIP3    H246355   5.918   6.398  16.703  0.3156 -1.7280  1.9620
 8314TIP3   OH246356   2.833   6.577  15.501  0.2565  0.1767  0.0992
 8314TIP3    H146357   2.899   6.569  15.432 -0.7298 -0.6038 -0.7865
 8314TIP3    H246358   2.791   6.661  15.484 -2.3334 -1.4743 -2.4824
 8315TIP3   OH246359   5.935   5.268   5.269  0.3390  0.1527  0.9156
 8315TIP3    H146360   5.977   5.354   5.260  2.9317 -1.1097  0.2319
 8315TIP3    H246361   5.846   5.282   5.238  0.9770  2.3824 -0.1251
 8316TIP3   OH246362   3.892   6.595  15.335 -0.5126 -0.6037  0.1046
 8316TIP3    H146363   3.908   6.563  15.423 -0.3763  1.2591  0.7992
 8316TIP3    H246364   3.838   6.672  15.347  0.1231  0.1132 -1.3761
 8317TIP3   OH246365   3.897   1.002  11.319 -0.4887 -0.0994  0.5619
 8317TIP3    H146366   3.869   1.094  11.323 -0.0252  0.0481  0.4911
 8317TIP3    H246367   3.865   0.972  11.234 -0.6630 -0.0115  0.5945
 8318TIP3   OH246368   4.927   4.223   1.426  0.1189  0.4022  0.2050
 8318TIP3    H146369   4.963   4.148   1.474  0.8336  0.7338  0.2110
 8318TIP3    H246370   4.913   4.290   1.494  0.4394  0.6172  0.0646
 8319TIP3   OH246371   0.849   4.032  16.839  0.4559  0.1111 -0.4761
 8319TIP3    H146372   0.926   3.980  16.861  0.4894 -0.7676 -2.4734
 8319TIP3    H246373   0.801   4.039  16.921  0.6641 -2.7675  0.0091
 8320TIP3   OH246374   2.916   4.615   3.146 -0.1960  0.6297  0.2660
 8320TIP3    H146375   2.826   4.623   3.176  0.1657  0.5051  1.4423
 8320TIP3    H246376   2.915   4.539   3.087 -0.4405 -0.8673  2.0893
 8321TIP3   OH246377   6.661   6.414  16.689 -0.0372  0.2763  0.4044
 8321TIP3    H146378   6.698   6.335  16.651  0.6224 -0.5012  2.5095
 8321TIP3    H246379   6.640   6.390  16.780 -3.2139  1.4753  0.1093
 8322TIP3   OH246380   4.914   2.707  11.398  0.9800 -0.1254 -0.2410
 8322TIP3    H146381   4.877   2.620  11.385  0.6531  0.2723 -2.1556
 8322TIP3    H246382   4.976   2.718  11.326  0.8696  1.2949 -0.1458
 8323TIP3   OH246383   2.605   2.732  17.246  0.4663 -0.4330  0.0703
 8323TIP3    H146384   2.658   2.803  17.210 -1.3371  0.9240 -0.0816
 8323TIP3    H246385   2.600   2.667  17.176 -0.0543  0.5360 -0.8219
 8324TIP3   OH246386   1.263   1.400  16.245  0.4375  0.1319 -0.3159
 8324TIP3    H146387   1.343   1.410  16.193  0.2686 -2.5066 -1.2487
 8324TIP3    H246388   1.197   1.448  16.196  1.3161  1.9319  0.2030
 8325TIP3   OH246389   0.295   0.012  12.253  0.0934 -0.8100  0.2930
 8325TIP3    H146390   0.276   0.040  12.343  1.5221 -0.9328  0.6591
 8325TIP3    H246391   0.358  -0.060  12.263  0.1649 -0.9137 -0.8001
 8326TIP3   OH246392   2.933   2.534  13.009 -0.0850  0.0477 -0.1623
 8326TIP3    H146393   2.968   2.517  12.922 -0.1360 -1.5195  0.0884
 8326TIP3    H246394   2.874   2.609  12.998 -0.0060 -0.0670 -1.4512
 8327TIP3   OH246395   6.532   5.675   2.542 -0.3171 -0.3092  0.9743
 8327TIP3    H146396   6.580   5.700   2.462 -1.3798 -1.9620 -0.2464
 8327TIP3    H246397   6.584   5.713   2.613  1.8213 -0.5017 -0.3687
 8328TIP3   OH246398   4.228   4.891  12.283  0.1421 -0.1874 -0.0211
 8328TIP3    H146399   4.212   4.801  12.313  1.6286 -0.4004  0.1982
 8328TIP3    H246400   4.322   4.894  12.265  0.1388  1.3702  0.1162
 8329TIP3   OH246401   4.896   1.171   4.906  0.1874 -0.6623  0.4863
 8329TIP3    H146402   4.965   1.118   4.866 -1.0571 -0.9620 -1.4079
 8329TIP3    H246403   4.831   1.107   4.935 -0.8170 -0.2975 -0.8238
 8330TIP3   OH246404   3.838   2.617   0.800  0.4308 -0.1326  0.2423
 8330TIP3    H146405   3.905   2.658   0.855 -1.2989  2.2585  0.7385
 8330TIP3    H246406   3.788   2.562   0.859 -0.0583  0.6989  0.6190
 8331TIP3   OH246407   1.755   2.922   0.046 -0.1086 -0.7702  0.0607
 8331TIP3    H146408   1.739   2.889  -0.043  1.6936  0.5653 -0.8241
 8331TIP3    H246409   1.736   3.016   0.040  1.8558 -0.3047  0.5313
 8332TIP3   OH246410   5.205   0.286   1.394 -0.2110 -0.4175 -0.4560
 8332TIP3    H146411   5.174   0.302   1.305  1.0324  0.7072 -0.7337
 8332TIP3    H246412   5.132   0.243   1.438 -1.0831 -0.4132 -1.8337
 8333TIP3   OH246413   5.867   5.011  11.739  0.0809 -0.0782 -0.6096
 8333TIP3    H146414   5.789   5.007  11.794  0.5475 -2.4151 -0.0377
 8333TIP3    H246415   5.939   5.027  11.801  0.5329 -2.1330 -0.5451
 8334TIP3   OH246416   0.088   1.934   5.831  0.0122  0.1663  0.1585
 8334TIP3    H146417   0.039   1.899   5.904 -0.3587  0.7840  0.2120
 8334TIP3    H246418   0.025   1.942   5.760 -0.0418  1.1979  0.3036
 8335TIP3   OH246419   5.072   3.946   2.550 -0.5225  0.4908 -0.1346
 8335TIP3    H146420   5.068   3.965   2.456  0.3795  1.7492  0.0553
 8335TIP3    H246421   5.099   4.028   2.590  0.8781 -0.4837  1.0468
 8336TIP3   OH246422   0.983   3.147   4.532 -0.0744  0.4919  0.4141
 8336TIP3    H146423   1.059   3.089   4.529 -0.6798 -0.3805  1.2035
 8336TIP3    H246424   0.976   3.183   4.444  0.5922 -0.2859  0.0312
 8337TIP3   OH246425   3.118   0.547  13.854 -0.1027 -0.5907  0.6697
 8337TIP3    H146426   3.186   0.480  13.867 -0.0187 -0.9681 -1.4487
 8337TIP3    H246427   3.047   0.519  13.912  0.7006 -1.3942  1.3061
 8338TIP3   OH246428   5.612   3.482   5.130 -0.0365 -0.1186  0.1185
 8338TIP3    H146429   5.521   3.453   5.124 -0.3293  0.3250  1.8252
 8338TIP3    H246430   5.613   3.541   5.206  1.3301  1.2489 -0.9035
 8339TIP3   OH246431   5.744   3.119   0.834 -0.7987 -0.0966 -0.6386
 8339TIP3    H146432   5.673   3.103   0.896 -0.7356  0.4691 -0.4107
 8339TIP3    H246433   5.778   3.205   0.859 -0.7217  0.1062 -1.4059
 8340TIP3   OH246434   2.838   4.464   2.589  0.1037 -0.3426 -0.0382
 8340TIP3    H146435   2.778   4.394   2.564  1.6461 -3.1019  3.2551
 8340TIP3    H246436   2.791   4.514   2.655  0.0404 -0.0017 -0.3356
 8341TIP3   OH246437   2.318   6.086  13.177 -0.0304  0.1569  0.2329
 8341TIP3    H146438   2.263   6.060  13.250  0.2831 -2.0104 -0.2419
 8341TIP3    H246439   2.310   6.015  13.114 -1.0146  2.3517 -2.3054
 8342TIP3   OH246440   1.767   0.146   2.222  0.2143 -0.1640 -0.0283
 8342TIP3    H146441   1.813   0.230   2.218 -0.4222  0.1747 -0.4486
 8342TIP3    H246442   1.727   0.145   2.309 -0.8627  0.5696 -0.4929
 8343TIP3   OH246443   5.142   1.888   4.061  0.5896 -0.9573  0.4661
 8343TIP3    H146444   5.087   1.882   3.983  1.5083 -3.2691 -0.0619
 8343TIP3    H246445   5.087   1.932   4.125 -2.3366 -3.9614  0.2829
 8344TIP3   OH246446   5.410   0.189   3.693  0.0574  0.1565 -0.1440
 8344TIP3    H146447   5.372   0.115   3.739 -0.4195  0.3804 -0.1730
 8344TIP3    H246448   5.443   0.153   3.611  0.3708 -0.1316  0.1065
 8345TIP3   OH246449   0.141   0.305  17.059 -0.1351 -0.2917 -0.3386
 8345TIP3    H146450   0.052   0.273  17.043  0.3698 -2.0553  0.1328
 8345TIP3    H246451   0.192   0.226  17.075  1.4706  0.7089 -0.3040
 8346TIP3   OH246452   5.988   5.739   2.608  0.6218 -0.3562 -0.2730
 8346TIP3    H146453   6.010   5.812   2.550 -1.5213 -1.1136 -2.1985
 8346TIP3    H246454   6.061   5.678   2.598  0.9057  0.1099 -1.2164
 8347TIP3   OH246455   6.314   1.294  13.660 -0.2598 -0.0525 -0.0323
 8347TIP3    H146456   6.239   1.346  13.690 -0.3001  0.7437 -1.4095
 8347TIP3    H246457   6.300   1.208  13.699 -0.0855  0.9702  2.4866
 8348TIP3   OH246458   4.793   6.060  15.410 -0.3066 -0.1388  0.2370
 8348TIP3    H146459   4.754   6.034  15.494 -0.5690 -3.3627 -0.7606
 8348TIP3    H246460   4.718   6.082  15.355 -0.1647  1.4180  0.6199
 8349TIP3   OH246461   1.318   3.767  16.905 -0.0074  0.1320  0.1270
 8349TIP3    H146462   1.285   3.678  16.896  2.5923 -1.0507  1.2127
 8349TIP3    H246463   1.320   3.783  16.999  0.3277  0.9956 -0.0138
 8350TIP3   OH246464   4.489   6.417   1.033  0.4088 -0.0728 -0.4849
 8350TIP3    H146465   4.491   6.486   1.100 -0.6616 -1.2200  0.7803
 8350TIP3    H246466   4.576   6.420   0.993  0.9119  0.9564  0.6386
 8351TIP3   OH246467   3.302   2.001  12.496  0.0132 -0.5110 -0.4885
 8351TIP3    H146468   3.336   2.003  12.585 -0.5368  1.4341 -0.2803
 8351TIP3    H246469   3.380   1.999  12.440  0.5468  2.4283  0.0053
 8352TIP3   OH246470   4.185   5.232   4.731  0.1243  0.6226 -0.1855
 8352TIP3    H146471   4.102   5.270   4.701  0.6058  1.9999  0.1576
 8352TIP3    H246472   4.215   5.180   4.656 -0.8185  0.4658 -0.4739
 8353TIP3   OH246473   5.062   5.853   2.747  0.4389 -0.0936 -0.8744
 8353TIP3    H146474   4.968   5.841   2.753  0.2652  0.6788 -1.7473
 8353TIP3    H246475   5.094   5.846   2.837 -0.4707 -0.2107 -0.5586
 8354TIP3   OH246476   5.920   6.021   3.567 -0.0399 -0.3557 -0.0324
 8354TIP3    H146477   6.007   5.983   3.573 -0.1722 -0.5256  1.1108
 8354TIP3    H246478   5.861   5.952   3.596 -0.4469  0.1102  0.2805
 8355TIP3   OH246479   6.226   6.581   4.285  0.5638  0.6817 -0.0065
 8355TIP3    H146480   6.196   6.491   4.287  2.3130  0.0693  0.2159
 8355TIP3    H246481   6.320   6.575   4.269  0.4061  2.5462 -2.1168
 8356TIP3   OH246482   3.923   1.572   1.560  0.1628  0.3005  0.1752
 8356TIP3    H146483   3.906   1.486   1.598  0.7496  0.4229  0.7309
 8356TIP3    H246484   3.913   1.633   1.633 -2.7348  1.0251 -0.6995
 8357TIP3   OH246485   3.943   0.570  14.486  0.1457  0.2870 -0.1106
 8357TIP3    H146486   3.927   0.485  14.446  0.1934  0.6280 -0.8607
 8357TIP3    H246487   4.007   0.551  14.556  0.3195 -0.2569 -0.4084
 8358TIP3   OH246488   3.174   6.700  12.195  0.4911  0.3950 -0.5067
 8358TIP3    H146489   3.178   6.605  12.193  2.2501  0.4443 -1.5695
 8358TIP3    H246490   3.104   6.720  12.258  0.3892 -1.5671  0.0733
 8359TIP3   OH246491   1.317   1.206   0.045 -0.0494 -0.1384  0.2558
 8359TIP3    H146492   1.281   1.137  -0.012 -0.2005 -0.5736  0.8639
 8359TIP3    H246493   1.369   1.159   0.110  0.2951  0.3696  0.3524
 8360TIP3   OH246494   0.655   3.145  15.296 -0.0915 -0.4819  0.4627
 8360TIP3    H146495   0.663   3.067  15.242  0.1103 -0.6455  0.7263
 8360TIP3    H246496   0.702   3.213  15.247 -1.6754 -0.0918 -0.5753
 8361TIP3   OH246497   0.357   5.178  14.345 -0.1476 -0.1840  0.1323
 8361TIP3    H146498   0.278   5.202  14.393 -0.1423 -0.8731  0.4895
 8361TIP3    H246499   0.425   5.170  14.412 -0.0356 -0.7008 -0.0396
 8362TIP3   OH246500   4.865   0.419   4.042  1.0425  0.6410 -0.2297
 8362TIP3    H146501   4.808   0.342   4.051 -1.7613  2.7661  3.0232
 8362TIP3    H246502   4.913   0.423   4.126  1.4298  2.1853 -0.4884
 8363TIP3   OH246503   2.466   6.095  10.762 -0.4646 -0.1529  0.0131
 8363TIP3    H146504   2.388   6.066  10.809  0.3209 -0.2558  1.3047
 8363TIP3    H246505   2.534   6.032  10.786  0.4859  0.9823  0.4121
 8364TIP3   OH246506   0.555   5.427   5.810 -0.6005  0.0543  0.4229
 8364TIP3    H146507   0.626   5.425   5.746  0.1422  1.1023  1.1772
 8364TIP3    H246508   0.552   5.338   5.846  0.3681  0.0209  0.4281
 8365TIP3   OH246509   4.698   4.364  16.992  0.1541 -0.7068  0.1122
 8365TIP3    H146510   4.778   4.319  16.962  0.5121 -0.9511  1.3561
 8365TIP3    H246511   4.627   4.315  16.951  0.5283 -2.6342  1.6364
 8366TIP3   OH246512   5.592   0.948  11.875 -0.1097 -0.2890  0.3791
 8366TIP3    H146513   5.589   0.942  11.971 -1.8741 -0.1719  0.3710
 8366TIP3    H246514   5.625   1.036  11.858  0.9353 -0.5716  0.8501
 8367TIP3   OH246515   4.985   1.479  14.226 -0.1987  0.2171  0.2151
 8367TIP3    H146516   4.931   1.529  14.165  0.1035 -1.0687 -1.1852
 8367TIP3    H246517   5.074   1.512  14.212 -0.0970 -0.2231 -0.2378
 8368TIP3   OH246518   1.976   2.448   1.839 -0.0579  0.1081 -0.1850
 8368TIP3    H146519   1.881   2.434   1.845  0.0176  0.1344  2.0271
 8368TIP3    H246520   1.990   2.531   1.885  1.2323 -0.9966  1.5215
 8369TIP3   OH246521   1.303   0.628   0.196  0.3041  0.1557 -1.0250
 8369TIP3    H146522   1.323   0.541   0.230 -0.2651 -0.1222 -1.3875
 8369TIP3    H246523   1.344   0.688   0.258  0.1291 -0.3576 -0.4055
 8370TIP3   OH246524   6.240   5.359  10.802 -0.5541 -0.3440 -0.0101
 8370TIP3    H146525   6.177   5.303  10.757 -0.1623 -0.0124 -0.9937
 8370TIP3    H246526   6.310   5.300  10.829 -0.4590 -0.4296 -0.4502
 8371TIP3   OH246527   6.755   0.397   3.858  0.2258  0.4032 -0.3487
 8371TIP3    H146528   6.779   0.454   3.785 -1.8963  0.8924 -0.7352
 8371TIP3    H246529   6.787   0.443   3.936  0.5995  0.9536 -0.8136
 8372TIP3   OH246530   2.056   6.368  16.898  0.6353  0.3405 -0.4434
 8372TIP3    H146531   2.100   6.284  16.890  2.1579  1.1472 -0.8179
 8372TIP3    H246532   1.963   6.345  16.903  1.0530 -1.4025  0.3088
 8373TIP3   OH246533   4.927   0.458  14.847 -0.3973  0.1511 -0.4882
 8373TIP3    H146534   4.968   0.534  14.887  0.7303 -0.9643  0.5545
 8373TIP3    H246535   4.926   0.478  14.753  0.8897  1.0040 -0.3463
 8374TIP3   OH246536   4.886   2.273   4.551 -0.6750  0.3990  0.0221
 8374TIP3    H146537   4.936   2.207   4.600 -0.5388  1.2860  1.1201
 8374TIP3    H246538   4.929   2.356   4.572 -1.3369  0.9397 -0.6975
 8375TIP3   OH246539   6.369   2.862   3.139  0.1107 -0.7231  0.4199
 8375TIP3    H146540   6.462   2.861   3.162  0.4719 -0.4407 -0.9706
 8375TIP3    H246541   6.355   2.783   3.087 -0.1211 -0.0935 -0.4958
 8376TIP3   OH246542   1.722   2.649   1.041  0.2912 -0.1329  0.0440
 8376TIP3    H146543   1.739   2.561   1.073 -0.3180 -0.9168 -1.6642
 8376TIP3    H246544   1.775   2.656   0.961 -0.9420  0.4139 -0.7527
 8377TIP3   OH246545   0.222   1.683   5.932  0.1763 -0.8146 -0.3608
 8377TIP3    H146546   0.142   1.698   5.983  0.0242 -0.4779 -0.6910
 8377TIP3    H246547   0.268   1.767   5.937  1.5242 -1.5923  1.5577
 8378TIP3   OH246548   3.552   3.241  12.930 -0.0050 -0.1789 -0.1191
 8378TIP3    H146549   3.529   3.240  13.023 -0.4731 -0.9222 -0.2386
 8378TIP3    H246550   3.485   3.296  12.889 -1.1864 -1.7093 -0.3472
 8379TIP3   OH246551   6.115   1.535   0.654  0.0330 -0.1935  0.4355
 8379TIP3    H146552   6.034   1.582   0.672  0.4934  0.7133  0.1706
 8379TIP3    H246553   6.133   1.551   0.562  1.0594  0.4916  0.7363
 8380TIP3   OH246554   1.159   5.307  11.910  0.3837  0.3869 -0.6303
 8380TIP3    H146555   1.108   5.275  11.984  1.9229 -1.0227 -0.1105
 8380TIP3    H246556   1.249   5.311  11.942  1.4287 -1.9900 -2.8253
 8381TIP3   OH246557   5.949   2.599  12.046  0.3446 -0.0054  0.0617
 8381TIP3    H146558   5.865   2.632  12.078 -0.3850 -0.1279 -1.6408
 8381TIP3    H246559   5.951   2.507  12.075 -0.9635 -0.5371 -1.4099
 8382TIP3   OH246560   3.567   0.173   0.686 -0.1031  0.2914  0.5353
 8382TIP3    H146561   3.506   0.142   0.619 -0.6228  1.5226  0.4038
 8382TIP3    H246562   3.514   0.182   0.765  0.4958 -1.0910  1.1211
 8383TIP3   OH246563   3.916   1.994  15.775  0.2419  0.5311 -0.1125
 8383TIP3    H146564   3.900   2.036  15.860 -0.1387  0.0635  0.0554
 8383TIP3    H246565   3.945   1.906  15.797 -2.6205 -0.5945 -0.4348
 8384TIP3   OH246566   0.482   1.857  11.832 -0.8705 -0.1042  0.2148
 8384TIP3    H146567   0.484   1.945  11.793  0.2197  0.6958  1.9751
 8384TIP3    H246568   0.465   1.872  11.925 -2.5661 -1.9084  0.2659
 8385TIP3   OH246569   2.487   1.397  14.096 -0.1696 -0.1068  0.6678
 8385TIP3    H146570   2.501   1.318  14.147  0.8135 -0.5477 -0.2420
 8385TIP3    H246571   2.559   1.398  14.033 -0.9939  0.7327 -0.2999
 8386TIP3   OH246572   1.861   1.509  15.220  0.4223 -0.5531 -0.2581
 8386TIP3    H146573   1.883   1.523  15.312 -1.0123  1.9673 -0.2134
 8386TIP3    H246574   1.886   1.418  15.203 -1.2613 -1.8279  3.1813
 8387TIP3   OH246575   0.833   6.712  14.570 -0.0295  0.0226  0.4182
 8387TIP3    H146576   0.867   6.754  14.491  0.6818  0.6530  1.0399
 8387TIP3    H246577   0.833   6.781  14.636 -0.4970 -0.5256  1.0054
 8388TIP3   OH246578   4.334   3.869   4.741 -0.4566 -0.2852 -0.5198
 8388TIP3    H146579   4.296   3.907   4.820  0.7283 -0.6500  0.2426
 8388TIP3    H246580   4.383   3.941   4.702  1.9608 -0.9877  1.0347
 8389TIP3   OH246581   3.427   1.322  13.937  0.1542  0.4718 -0.4510
 8389TIP3    H146582   3.346   1.330  13.986 -0.7840  1.4053 -2.0824
 8389TIP3    H246583   3.433   1.229  13.914  0.2914  0.1452  0.8507
 8390TIP3   OH246584   0.460   2.355  12.303  0.1117  0.5811 -0.2946
 8390TIP3    H146585   0.423   2.435  12.266  0.3719  0.9079  0.1446
 8390TIP3    H246586   0.475   2.375  12.395  1.2111  0.3962 -0.4170
 8391TIP3   OH246587   5.072   1.236  16.476  0.0574 -0.1149 -0.0193
 8391TIP3    H146588   5.055   1.310  16.535  0.4112 -0.4524  0.5133
 8391TIP3    H246589   5.161   1.250  16.445  0.2577 -0.5123  0.3709
 8392TIP3   OH246590   5.082   5.951  13.972  0.1156  0.0622  0.2162
 8392TIP3    H146591   5.037   5.936  14.056  0.3474  1.8514  0.7011
 8392TIP3    H246592   5.019   5.921  13.906 -0.8132  0.3031  0.9603
 8393TIP3   OH246593   1.960   2.921   5.608  0.6499 -0.3613 -0.1565
 8393TIP3    H146594   1.869   2.899   5.631  0.3091  0.4233 -0.7152
 8393TIP3    H246595   1.954   2.956   5.519  1.6452 -1.2393 -0.5945
 8394TIP3   OH246596   5.945   3.931  12.427  0.3378  0.3823  0.4556
 8394TIP3    H146597   5.926   3.996  12.494 -2.6052  1.5236 -1.2985
 8394TIP3    H246598   5.959   3.982  12.347  2.3993 -1.0054 -0.1586
 8395TIP3   OH246599   5.498   2.139  15.400 -0.0564 -0.8532  0.1924
 8395TIP3    H146600   5.483   2.139  15.306 -0.7658 -0.7673  0.2985
 8395TIP3    H246601   5.542   2.056  15.418 -0.5151 -1.1729 -0.1277
 8396TIP3   OH246602   2.503   1.896   0.448  0.6583  0.1520 -0.0340
 8396TIP3    H146603   2.567   1.922   0.382 -1.1304  0.5248 -1.6916
 8396TIP3    H246604   2.457   1.821   0.409 -1.2752  1.1535  0.1774
 8397TIP3   OH246605   4.744   1.574   2.002  0.1619  0.2507  0.0398
 8397TIP3    H146606   4.664   1.523   1.990  0.5114  0.1522 -2.3738
 8397TIP3    H246607   4.748   1.631   1.926  1.7230  1.2175  0.7808
 8398TIP3   OH246608   6.026   3.504   5.100  0.2370  0.5786  0.2105
 8398TIP3    H146609   5.972   3.506   5.179  0.2473 -2.9953  0.4615
 8398TIP3    H246610   5.964   3.489   5.028  0.5624 -0.6394  0.1539
 8399TIP3   OH246611   0.353   3.287  13.885 -0.1331  0.0241 -0.7416
 8399TIP3    H146612   0.382   3.196  13.880 -0.2465 -0.0843  0.2892
 8399TIP3    H246613   0.314   3.305  13.800 -3.2087 -1.9648  0.0698
 8400TIP3   OH246614   1.920   0.939   3.806 -0.2492 -0.5527  0.8681
 8400TIP3    H146615   1.946   0.958   3.716 -0.9532  1.4447  1.0327
 8400TIP3    H246616   2.001   0.951   3.857 -0.4859  1.4419  0.8537
 8401TIP3   OH246617   3.752   5.436   5.882 -0.1391  0.3350  0.3547
 8401TIP3    H146618   3.808   5.409   5.809 -1.3220  2.2615 -1.3781
 8401TIP3    H246619   3.664   5.437   5.845 -0.9087  0.4622  2.1065
 8402TIP3   OH246620   3.565   1.940   1.030  0.2783 -0.5154  0.1371
 8402TIP3    H146621   3.593   1.965   0.942 -0.8527 -0.4252 -0.2116
 8402TIP3    H246622   3.469   1.941   1.026  0.2125 -1.3519  1.1303
 8403TIP3   OH246623   0.528   4.139   2.608  0.1264  0.4906  0.3956
 8403TIP3    H146624   0.624   4.142   2.612  0.1310  0.5344  0.2524
 8403TIP3    H246625   0.502   4.099   2.691  0.3113 -0.4532  0.0082
 8404TIP3   OH246626   1.193   0.901   2.763 -0.3996  0.3401  0.1254
 8404TIP3    H146627   1.222   0.931   2.677 -1.4229 -0.9680 -0.7053
 8404TIP3    H246628   1.170   0.809   2.751 -0.5459  0.1236  1.8065
 8405TIP3   OH246629   4.260   6.482  14.362  0.4315 -0.1984  0.1014
 8405TIP3    H146630   4.301   6.402  14.329  0.7715 -0.0324  0.1165
 8405TIP3    H246631   4.200   6.451  14.430  1.9824 -0.2986  1.4873
 8406TIP3   OH246632   3.036   3.223   4.290 -0.6912 -0.7934  0.3844
 8406TIP3    H146633   3.025   3.195   4.381  0.7434 -0.9094  0.5328
 8406TIP3    H246634   3.041   3.319   4.296 -2.6960 -0.6201  0.1724
 8407TIP3   OH246635   3.923   3.389  16.443  0.3744  0.2009  0.0735
 8407TIP3    H146636   3.881   3.468  16.477 -1.7938 -0.0078 -1.8773
 8407TIP3    H246637   3.879   3.317  16.488 -0.1581  0.0388 -0.6781
 8408TIP3   OH246638   0.353   3.177   3.280 -0.1567  0.5302  0.0156
 8408TIP3    H146639   0.324   3.263   3.250  0.2521  0.5162 -0.4235
 8408TIP3    H246640   0.275   3.121   3.270 -0.0715  0.5598 -0.8880
 8409TIP3   OH246641   1.124   6.219  13.931  0.0117 -0.3277 -0.1063
 8409TIP3    H146642   1.201   6.270  13.903 -0.8596  1.2517  0.2129
 8409TIP3    H246643   1.057   6.239  13.866 -0.8211  0.2227  0.8839
 8410TIP3   OH246644   5.092   5.124   3.466 -0.5670 -0.9713  0.0045
 8410TIP3    H146645   5.170   5.106   3.415 -0.1558 -0.6050  0.4917
 8410TIP3    H246646   5.019   5.100   3.409 -0.1361 -0.1026 -0.9420
 8411TIP3   OH246647   5.232   3.476   0.443 -0.6171 -0.1889 -0.4653
 8411TIP3    H146648   5.246   3.387   0.474 -1.9670  0.0267  0.8892
 8411TIP3    H246649   5.316   3.502   0.405  1.1649 -0.6329  2.7687
 8412TIP3   OH246650   0.279   6.150  15.538  0.4397  0.5162 -0.0294
 8412TIP3    H146651   0.281   6.144  15.634  0.3095  0.0094 -0.0552
 8412TIP3    H246652   0.353   6.095  15.509 -2.0780 -3.0713 -0.3515
 8413TIP3   OH246653   6.584   5.729   3.997  0.0118  0.1723  0.0058
 8413TIP3    H146654   6.680   5.730   3.989  0.0187  0.8166  0.1392
 8413TIP3    H246655   6.555   5.801   3.941 -0.6883 -2.5150 -3.4928
 8414TIP3   OH246656   1.413   3.213  13.545  0.3092 -0.3408  0.1273
 8414TIP3    H146657   1.354   3.211  13.621 -0.5780  1.3232 -0.4617
 8414TIP3    H246658   1.452   3.126  13.543 -0.5672 -0.8253  1.7688
 8415TIP3   OH246659   3.754   1.970  16.248  0.0838 -0.3451  0.3896
 8415TIP3    H146660   3.822   1.912  16.283  1.4916  1.8455  1.4879
 8415TIP3    H246661   3.728   2.024  16.322 -2.1582 -0.4287 -0.2744
 8416TIP3   OH246662   4.071   5.711  10.471 -0.1416 -0.2326 -0.2062
 8416TIP3    H146663   4.028   5.781  10.522  0.0615 -0.0313 -0.3118
 8416TIP3    H246664   4.003   5.682  10.410 -0.1153  0.1157 -0.4029
 8417TIP3   OH246665   3.234   0.521  13.610 -0.5409 -0.9438  0.2162
 8417TIP3    H146666   3.192   0.574  13.543  0.7481 -0.2757 -0.1018
 8417TIP3    H246667   3.166   0.507  13.676 -1.2592  0.0814 -0.2766
 8418TIP3   OH246668   6.660   3.749   5.419  0.3463 -0.0858 -0.1332
 8418TIP3    H146669   6.620   3.662   5.427  1.7057 -0.6504  0.8239
 8418TIP3    H246670   6.648   3.772   5.326  1.0889 -1.8663 -0.7118
 8419TIP3   OH246671   4.158   1.097   0.724 -0.6902 -0.6879  0.2612
 8419TIP3    H146672   4.066   1.073   0.729 -1.4675  1.2652 -2.2373
 8419TIP3    H246673   4.190   1.055   0.644 -0.5965  1.8141 -1.1119
 8420TIP3   OH246674   1.994   6.769   3.175  0.2637  0.2143  0.1043
 8420TIP3    H146675   2.030   6.728   3.097  0.5218 -0.2195  0.4501
 8420TIP3    H246676   2.004   6.704   3.244  2.4544  1.5190  1.1258
 8421TIP3   OH246677   0.350   4.162   2.426  0.0416  0.4207  0.1149
 8421TIP3    H146678   0.419   4.157   2.492 -0.3313  0.2549  0.4977
 8421TIP3    H246679   0.386   4.220   2.359  0.8724 -0.3049 -0.0821
 8422TIP3   OH246680   2.182   1.181  15.958 -0.6432 -0.4653 -0.9030
 8422TIP3    H146681   2.158   1.234  15.882  1.0933  1.7264 -0.0118
 8422TIP3    H246682   2.147   1.229  16.033  0.1576 -1.0717 -0.1172
 8423TIP3   OH246683   6.750   0.833  16.721  0.1479  0.3622 -0.2477
 8423TIP3    H146684   6.802   0.773  16.775 -1.2499 -0.7656 -0.0921
 8423TIP3    H246685   6.725   0.904  16.780 -1.3207 -0.8335  0.6315
 8424TIP3   OH246686   4.353   3.888   4.437 -0.6660 -0.1609  0.0042
 8424TIP3    H146687   4.310   3.816   4.483  1.0031 -1.9515 -1.0961
 8424TIP3    H246688   4.441   3.855   4.418  0.5423  2.5732  0.3601
 8425TIP3   OH246689   4.902   1.722  14.123  0.0959 -0.2969 -0.1624
 8425TIP3    H146690   4.985   1.723  14.076  0.1207 -0.3664 -0.1191
 8425TIP3    H246691   4.836   1.707  14.056  0.0568  0.4488 -0.3002
 8426TIP3   OH246692   6.442   6.602   0.205  0.5707 -0.5548  0.0969
 8426TIP3    H146693   6.490   6.647   0.136 -0.3575 -0.5472 -0.5721
 8426TIP3    H246694   6.505   6.592   0.276  1.2785  0.2787 -0.3906
 8427TIP3   OH246695   3.419   3.502   3.535 -0.7493 -0.3470 -0.1431
 8427TIP3    H146696   3.462   3.548   3.607 -0.1902 -1.2525  0.1259
 8427TIP3    H246697   3.485   3.499   3.466 -0.3306 -1.7498  0.2740
 8428TIP3   OH246698   4.269   2.653  12.014 -0.3843 -0.0527 -0.1718
 8428TIP3    H146699   4.211   2.709  12.066 -0.6451 -0.6269  0.1755
 8428TIP3    H246700   4.257   2.566  12.052  0.9110 -0.1450  0.0936
 8429TIP3   OH246701   6.613   1.412  10.961 -0.1397 -0.2624 -0.0201
 8429TIP3    H146702   6.648   1.330  10.926 -1.1261 -1.5144  1.7752
 8429TIP3    H246703   6.690   1.467  10.974  0.4589 -0.5391 -2.0353
 8430TIP3   OH246704   1.082   0.516  16.077  0.0950 -0.3732 -0.4018
 8430TIP3    H146705   1.156   0.577  16.074 -0.6967  0.5676 -1.8077
 8430TIP3    H246706   1.047   0.516  15.988 -0.4993 -2.2009 -0.2096
 8431TIP3   OH246707   1.399   3.829  12.608 -0.6757  0.7242 -0.7285
 8431TIP3    H146708   1.311   3.809  12.640 -0.0661  0.2844  0.7650
 8431TIP3    H246709   1.457   3.791  12.674  0.6659  0.0054 -2.2792
 8432TIP3   OH246710   0.927   3.449  14.644  0.1050 -0.2398 -0.0456
 8432TIP3    H146711   0.885   3.509  14.581 -0.2763 -0.0967  0.3341
 8432TIP3    H246712   0.875   3.460  14.724  0.9869  0.0736  0.4951
 8433TIP3   OH246713   3.459   0.524   0.733  0.0328 -0.2980 -0.2758
 8433TIP3    H146714   3.509   0.586   0.680 -0.7988 -1.7521 -2.9249
 8433TIP3    H246715   3.412   0.579   0.796  1.6560  1.4500 -0.4951
 8434TIP3   OH246716   2.345   5.612  14.992  0.4271  0.1086 -0.3501
 8434TIP3    H146717   2.262   5.646  14.959  0.0265  0.6931  1.1452
 8434TIP3    H246718   2.346   5.637  15.085  0.5196 -3.1201  0.6590
 8435TIP3   OH246719   4.209   1.270   2.682 -0.0207 -0.5356 -0.2801
 8435TIP3    H146720   4.275   1.209   2.648  1.2100  0.0862  0.8843
 8435TIP3    H246721   4.178   1.317   2.605  0.2340 -1.4541 -0.9671
 8436TIP3   OH246722   4.977   0.007   3.537  0.7576 -0.1457 -0.6780
 8436TIP3    H146723   4.900   0.036   3.488  1.2003 -0.2779 -1.4815
 8436TIP3    H246724   5.018   0.089   3.567 -2.4597  0.0071  4.4285
 8437TIP3   OH246725   2.127   0.625  13.398 -0.4962  0.4437 -0.5148
 8437TIP3    H146726   2.199   0.688  13.404  0.2819 -0.5446  1.6241
 8437TIP3    H246727   2.049   0.676  13.420 -0.2212  1.1403 -1.1123
 8438TIP3   OH246728   0.568   0.745  10.493 -0.0264  0.2296  0.0816
 8438TIP3    H146729   0.610   0.660  10.480  0.7181  0.5329  0.4404
 8438TIP3    H246730   0.474   0.727  10.486  0.1488 -0.5109 -0.4498
 8439TIP3   OH246731   2.003   2.205   2.254 -0.6833 -0.7540 -0.0470
 8439TIP3    H146732   1.943   2.235   2.186 -0.0730 -2.3846 -1.3605
 8439TIP3    H246733   1.949   2.151   2.312 -0.5953 -1.9589 -1.0504
 8440TIP3   OH246734   1.667   3.730   5.743  0.5188 -0.2185 -0.2382
 8440TIP3    H146735   1.599   3.668   5.768  0.1625  0.5470  0.7367
 8440TIP3    H246736   1.745   3.699   5.789 -0.0204  0.9048  1.5459
 8441TIP3   OH246737   2.726   3.371  17.117 -0.3171 -0.5386 -0.1090
 8441TIP3    H146738   2.644   3.416  17.135 -0.8409 -0.8977 -1.4432
 8441TIP3    H246739   2.780   3.386  17.194 -1.4746  0.0748  0.5989
 8442TIP3   OH246740   6.689   2.798   3.489  0.3443 -0.3186  0.4098
 8442TIP3    H146741   6.681   2.859   3.562  0.9498  0.9375 -0.5191
 8442TIP3    H246742   6.687   2.854   3.411 -1.9817 -1.7385 -0.6499
 8443TIP3   OH246743   5.835   0.605  13.700 -0.5554 -0.2700 -0.3663
 8443TIP3    H146744   5.898   0.580  13.632 -1.4730 -1.0636 -0.9487
 8443TIP3    H246745   5.769   0.535  13.699  0.1145 -1.0434  2.3043
 8444TIP3   OH246746   3.605   6.034   2.410 -0.1565 -0.9967 -0.0781
 8444TIP3    H146747   3.587   6.117   2.454  0.6447 -1.6802  1.6262
 8444TIP3    H246748   3.619   6.057   2.318 -1.7365  0.5096  0.0130
 8445TIP3   OH246749   6.181   0.697   5.949 -0.1805 -0.5384 -0.5701
 8445TIP3    H146750   6.117   0.731   5.886 -0.3043  0.8708  0.2612
 8445TIP3    H246751   6.138   0.622   5.989 -0.9927 -0.1118 -0.6139
 8446TIP3   OH246752   1.073   3.964   2.262 -0.1495 -0.3232  0.2731
 8446TIP3    H146753   1.144   3.908   2.292  0.2265 -0.1063 -0.1995
 8446TIP3    H246754   1.068   4.034   2.327  0.0705 -0.3385  0.3069
 8447TIP3   OH246755   4.391   0.452  14.822  0.7179  0.0459  0.3047
 8447TIP3    H146756   4.455   0.390  14.789 -1.6494 -2.1857 -0.4006
 8447TIP3    H246757   4.375   0.425  14.913  0.5799  0.4255  0.3997
 8448TIP3   OH246758   1.744   0.716  11.824 -0.2797  0.0142 -0.6173
 8448TIP3    H146759   1.725   0.802  11.787 -1.7300 -0.3366 -0.7543
 8448TIP3    H246760   1.836   0.701  11.804  0.0100  1.5606 -0.5220
 8449TIP3   OH246761   5.769   5.985  11.905  0.1557 -0.1001 -0.4071
 8449TIP3    H146762   5.834   6.056  11.906 -0.4411  0.6042  2.9613
 8449TIP3    H246763   5.793   5.930  11.980 -1.9799 -0.9382 -0.2740
 8450TIP3   OH246764   3.126   4.852  14.589 -0.5326 -0.4972 -0.1006
 8450TIP3    H146765   3.090   4.840  14.501 -0.8093 -0.6578  0.0347
 8450TIP3    H246766   3.209   4.898  14.574 -1.9344  2.2238 -0.2795
 8451TIP3   OH246767   2.386   1.958   3.231 -0.7903  0.1053  0.0019
 8451TIP3    H146768   2.431   1.917   3.157  1.7272 -0.0858  1.5277
 8451TIP3    H246769   2.297   1.923   3.227 -0.1051 -1.6292 -1.6183
 8452TIP3   OH246770   5.784   3.055   0.010 -0.5762  0.6161  0.3684
 8452TIP3    H146771   5.848   3.124   0.028  0.4994 -0.2220 -0.1809
 8452TIP3    H246772   5.726   3.057   0.087  1.6976 -0.3812  2.2317
 8453TIP3   OH246773   0.163   1.302  10.087 -0.0258 -0.4657 -0.4652
 8453TIP3    H146774   0.252   1.288  10.054  0.3498 -2.0617  1.0804
 8453TIP3    H246775   0.154   1.241  10.160 -2.7167 -0.9974 -1.1079
 8454TIP3   OH246776   6.174   4.541  14.627  0.4294 -0.1122 -0.0028
 8454TIP3    H146777   6.184   4.446  14.623  0.1908 -0.2661  2.1294
 8454TIP3    H246778   6.240   4.570  14.690  1.2215  1.2966 -1.3993
 8455TIP3   OH246779   6.759   0.543  16.145  0.0987  0.1177 -0.0819
 8455TIP3    H146780   6.725   0.511  16.229  0.7452 -1.4069 -0.3550
 8455TIP3    H246781   6.790   0.631  16.163  0.7469 -0.3858  1.4431
 8456TIP3   OH246782   4.398   2.008   1.837  0.7424  0.5029 -0.0348
 8456TIP3    H146783   4.419   1.946   1.907  1.1093  0.5384 -0.1100
 8456TIP3    H246784   4.369   2.087   1.883  0.6292  0.4014  0.0688
 8457TIP3   OH246785   2.711   6.245   2.410 -0.1244  0.0188 -0.4311
 8457TIP3    H146786   2.683   6.176   2.469  2.8325 -0.8106  0.1748
 8457TIP3    H246787   2.718   6.202   2.324  1.1126 -0.3091 -0.1801
 8458TIP3   OH246788   0.303   3.131   2.265  0.3676 -0.0601  0.6792
 8458TIP3    H146789   0.249   3.177   2.329  0.6528  0.3509  0.6316
 8458TIP3    H246790   0.363   3.077   2.317 -0.5507 -1.0561  0.7166
 8459TIP3   OH246791   6.115   2.106  13.422 -0.2261 -0.3765 -0.2073
 8459TIP3    H146792   6.059   2.054  13.364  1.0200 -0.1780 -1.6226
 8459TIP3    H246793   6.204   2.082  13.398  0.3534  1.2010  0.2492
 8460TIP3   OH246794   2.283   6.653   6.041  0.6745 -0.3517 -0.0942
 8460TIP3    H146795   2.228   6.579   6.068  1.9917 -1.0914  0.6740
 8460TIP3    H246796   2.231   6.697   5.974 -0.3529 -1.7005 -0.2504
 8461TIP3   OH246797   3.449   0.080  15.383  0.1353  0.0162 -0.2431
 8461TIP3    H146798   3.360   0.111  15.364  1.0294  1.3790 -2.6514
 8461TIP3    H246799   3.452  -0.007  15.345 -0.4650 -0.4883  0.8220
 8462TIP3   OH246800   6.596   5.708   6.397 -0.4057 -0.2108 -0.0517
 8462TIP3    H146801   6.540   5.745   6.466  0.1047  0.1291  0.1785
 8462TIP3    H246802   6.657   5.778   6.374 -0.2620 -0.4815 -0.5172
 8463TIP3   OH246803   0.789   2.168   4.179  0.2173 -0.2944  0.4714
 8463TIP3    H146804   0.851   2.145   4.110 -0.1578 -1.9687  0.6545
 8463TIP3    H246805   0.710   2.117   4.159 -1.4817  2.3492 -0.2223
 8464TIP3   OH246806   5.195   3.521   3.399  0.1514  0.3764 -0.5920
 8464TIP3    H146807   5.103   3.546   3.411  0.2388 -0.0961  1.4083
 8464TIP3    H246808   5.202   3.436   3.442  1.1469 -0.4385 -2.3053
 8465TIP3   OH246809   5.038   3.583   0.647  0.5032  0.6996 -0.2953
 8465TIP3    H146810   5.093   3.551   0.575 -0.9879  0.0039 -1.1887
 8465TIP3    H246811   4.994   3.504   0.680 -0.3114  1.2872  0.0577
 8466TIP3   OH246812   4.909   2.288  13.056 -0.1765  0.5627 -0.6264
 8466TIP3    H146813   4.865   2.373  13.049 -0.6425  0.4808  0.9496
 8466TIP3    H246814   4.864   2.232  12.992 -1.0766  1.0055 -0.3979
 8467TIP3   OH246815   0.323   4.970   1.161  0.0833  0.5123  0.4173
 8467TIP3    H146816   0.272   5.025   1.219 -0.0581  0.7826  0.0371
 8467TIP3    H246817   0.376   5.031   1.110 -0.4699  0.3406 -0.3872
 8468TIP3   OH246818   0.767   3.223   2.526  0.3240 -0.2116  0.5650
 8468TIP3    H146819   0.716   3.295   2.488  1.1209  0.1925  0.2567
 8468TIP3    H246820   0.763   3.239   2.620  0.0180 -0.0919  0.5348
 8469TIP3   OH246821   5.819   3.099   4.283 -1.0388 -0.3609 -0.4699
 8469TIP3    H146822   5.809   3.193   4.270 -2.1140 -0.4194 -0.2100
 8469TIP3    H246823   5.732   3.070   4.312 -0.2594 -1.1495  1.1752
 8470TIP3   OH246824   0.147   5.456   1.277 -0.1920 -0.1500 -0.0981
 8470TIP3    H146825   0.090   5.384   1.250 -0.4028  0.5434 -1.5927
 8470TIP3    H246826   0.094   5.506   1.339 -0.2889 -0.8998  0.4332
 8471TIP3   OH246827   2.822   1.207   2.117  0.5595 -0.0606 -0.1378
 8471TIP3    H146828   2.808   1.301   2.110  3.2533  0.3131 -2.5260
 8471TIP3    H246829   2.875   1.197   2.197  2.5123  0.8774 -1.2438
 8472TIP3   OH246830   1.249   0.734  16.029 -0.5368  0.6265 -0.0806
 8472TIP3    H146831   1.322   0.693  15.981 -0.1552 -0.5952  1.4399
 8472TIP3    H246832   1.289   0.807  16.076 -0.1719 -0.2043  0.9656
 8473TIP3   OH246833   6.182   1.911   5.135 -0.0545  0.6230  0.0990
 8473TIP3    H146834   6.202   1.825   5.097 -2.2823 -1.0405  2.3069
 8473TIP3    H246835   6.223   1.909   5.222 -1.2106  1.2265  0.6851
 8474TIP3   OH246836   6.480   6.464   6.947 -0.2600  0.4057 -0.2972
 8474TIP3    H146837   6.455   6.429   6.861 -0.6416  0.8620 -0.3739
 8474TIP3    H246838   6.467   6.558   6.939  0.7931  0.5812 -0.1004
 8475TIP3   OH246839   3.156   0.135  13.213 -0.4727  0.6641  0.7076
 8475TIP3    H146840   3.243   0.175  13.213 -0.8114  1.4519 -0.2521
 8475TIP3    H246841   3.148   0.094  13.127 -1.0221  0.5438  0.8108
 8476TIP3   OH246842   6.770   4.247  13.840  0.3607  0.2775 -0.3482
 8476TIP3    H146843   6.820   4.230  13.760 -0.3707 -0.1089 -0.7351
 8476TIP3    H246844   6.812   4.323  13.879  1.4008 -0.1921 -0.5327
 8477TIP3   OH246845   2.439   2.307   1.732 -0.4400  0.8951  0.1745
 8477TIP3    H146846   2.450   2.373   1.664 -1.1431  0.1148 -0.7224
 8477TIP3    H246847   2.423   2.357   1.812  0.5107  1.8297 -0.1950
 8478TIP3   OH246848   4.645   0.299  13.336 -0.1755  0.3080  0.0208
 8478TIP3    H146849   4.650   0.204  13.330 -1.3223  0.2410 -0.0888
 8478TIP3    H246850   4.642   0.317  13.430  2.3476  0.4077  0.1480
 8479TIP3   OH246851   6.075   6.504  15.568 -0.2497  0.1859 -0.1908
 8479TIP3    H146852   6.135   6.459  15.627 -1.4450  0.2547  1.1461
 8479TIP3    H246853   6.102   6.477  15.481 -0.5970 -2.8030  0.4917
 8480TIP3   OH246854   4.329   4.016  11.896  0.3439 -0.3432  0.1622
 8480TIP3    H146855   4.270   4.086  11.924 -1.2875 -0.8960 -1.7205
 8480TIP3    H246856   4.404   4.062  11.857 -0.3424  0.3665 -0.3402
 8481TIP3   OH246857   3.375   1.841  16.952  0.3267  0.3237  0.1888
 8481TIP3    H146858   3.295   1.796  16.976  0.1941  0.7925  0.6254
 8481TIP3    H246859   3.349   1.901  16.882  1.0683 -2.4541 -2.6998
 8482TIP3   OH246860   2.916   0.721   5.467  0.3529  0.3700  0.4600
 8482TIP3    H146861   2.958   0.773   5.398 -0.4298 -0.4260 -0.6362
 8482TIP3    H246862   2.823   0.736   5.455  0.1512 -0.6964  0.5817
 8483TIP3   OH246863   4.586   5.406   2.210  0.3421 -0.2114 -0.1308
 8483TIP3    H146864   4.585   5.311   2.223  0.8622 -0.2423 -0.2727
 8483TIP3    H246865   4.677   5.425   2.187 -0.1067  0.0914 -1.7974
 8484TIP3   OH246866   1.806   3.647   0.931 -0.0838  0.1213  0.5382
 8484TIP3    H146867   1.755   3.720   0.966 -0.6386 -0.4832  1.0236
 8484TIP3    H246868   1.775   3.571   0.980  2.6426 -0.0138  2.2505
 8485TIP3   OH246869   2.527   2.239   1.328 -0.4030 -0.1151 -0.0488
 8485TIP3    H146870   2.567   2.201   1.250 -1.2798  0.4179 -0.7838
 8485TIP3    H246871   2.565   2.326   1.335 -0.6980  0.0248 -0.1764
 8486TIP3   OH246872   4.421   3.068   3.931  0.3872 -0.0154  0.6838
 8486TIP3    H146873   4.350   3.022   3.975 -0.2186 -0.6153 -0.8496
 8486TIP3    H246874   4.383   3.096   3.848  0.6313  3.5928  1.6535
 8487TIP3   OH246875   4.453   5.459   3.600  0.0787 -0.4043 -0.3132
 8487TIP3    H146876   4.445   5.479   3.507  0.1529 -0.8376 -0.4165
 8487TIP3    H246877   4.381   5.507   3.642 -1.6032 -2.2328 -0.9072
 8488TIP3   OH246878   2.384   0.210   1.376  0.3116  0.6743  0.1405
 8488TIP3    H146879   2.314   0.154   1.341  1.2702 -1.0533  0.8422
 8488TIP3    H246880   2.409   0.267   1.303 -0.4296 -0.0938 -0.7395
 8489TIP3   OH246881   5.331   1.229  12.059  0.3877  0.5668  0.2109
 8489TIP3    H146882   5.359   1.147  12.017  1.5020  0.6700  0.7094
 8489TIP3    H246883   5.284   1.276  11.990  0.5420 -0.0896 -0.3573
 8490TIP3   OH246884   0.455   2.258  11.868  0.6131  0.3987  0.4167
 8490TIP3    H146885   0.432   2.220  11.783  0.1841  2.1703 -0.2924
 8490TIP3    H246886   0.453   2.184  11.928  1.3117 -0.9857 -1.1690
 8491TIP3   OH246887   6.539   1.144  11.117  0.7946 -0.0896 -0.5653
 8491TIP3    H146888   6.459   1.195  11.110  0.8610 -0.0499 -1.0483
 8491TIP3    H246889   6.569   1.133  11.027  1.6126  0.3480 -0.3579
 8492TIP3   OH246890   6.396   0.568  16.117 -0.7168 -0.1752  0.5637
 8492TIP3    H146891   6.303   0.554  16.100 -1.2987  1.6101  1.9358
 8492TIP3    H246892   6.402   0.576  16.212  0.7468  0.2586  0.4638
 8493TIP3   OH246893   1.685   2.892   2.966  0.2819 -0.1861  0.6304
 8493TIP3    H146894   1.766   2.884   2.916  1.0003  0.7122  1.6038
 8493TIP3    H246895   1.617   2.904   2.901  1.3285  2.1184 -0.1389
 8494TIP3   OH246896   1.957   5.946   2.588 -0.2565 -0.0964 -0.0852
 8494TIP3    H146897   1.907   5.997   2.525  0.8972  0.5131 -0.5237
 8494TIP3    H246898   2.015   6.009   2.631  1.1496 -0.9818 -0.5847
 8495TIP3   OH246899   0.035   5.081  14.021  0.4027 -0.7339 -0.1701
 8495TIP3    H146900   0.073   5.168  14.037  0.0648 -0.4878 -0.6641
 8495TIP3    H246901   0.089   5.043  13.952 -0.0942 -0.4721 -0.7183
 8496TIP3   OH246902   1.298   6.736  15.104 -0.0143 -0.4739  0.0310
 8496TIP3    H146903   1.324   6.692  15.024 -0.3588 -0.8528  0.1198
 8496TIP3    H246904   1.378   6.741  15.156  0.5665  1.2247 -0.9895
 8497TIP3   OH246905   6.525   4.280   1.124 -0.5413  0.9451  0.2904
 8497TIP3    H146906   6.445   4.231   1.105  0.0300 -0.0431  0.3805
 8497TIP3    H246907   6.564   4.296   1.038  0.2155 -0.4066  0.3539
 8498TIP3   OH246908   5.519   1.270   1.844  0.6597 -0.2160 -0.2471
 8498TIP3    H146909   5.521   1.193   1.788 -0.8477  2.0179 -3.6778
 8498TIP3    H246910   5.611   1.288   1.864  1.1779 -1.6496 -1.2263
 8499TIP3   OH246911   0.763   4.613   0.452  0.1170  0.2620 -0.1394
 8499TIP3    H146912   0.806   4.538   0.494 -0.5824 -0.4641 -0.6972
 8499TIP3    H246913   0.698   4.642   0.516  0.3054  0.3128  0.0288
 8500TIP3   OH246914   0.077   2.255  15.790 -0.5138  0.5649 -0.5644
 8500TIP3    H146915   0.148   2.250  15.726 -1.3961 -0.1246 -1.4928
 8500TIP3    H246916   0.111   2.316  15.857  1.8760 -1.4189  0.1996
 8501TIP3   OH246917   4.741   0.834  14.302  0.1532  0.3411  0.2285
 8501TIP3    H146918   4.661   0.785  14.280  0.1751  0.4866 -0.1811
 8501TIP3    H246919   4.727   0.863  14.392 -0.2763  0.3957  0.1487
 8502TIP3   OH246920   4.798   0.478   6.004 -0.7306 -0.1203 -0.0508
 8502TIP3    H146921   4.788   0.478   6.100  0.4200  0.8577  0.0927
 8502TIP3    H246922   4.889   0.450   5.990 -0.0361  2.2206 -0.6941
 8503TIP3   OH246923   6.311   3.713   3.043  0.7041 -0.7175 -0.0141
 8503TIP3    H146924   6.254   3.780   3.005  2.2267 -0.2047 -1.5218
 8503TIP3    H246925   6.350   3.755   3.120 -0.3567 -0.8304  0.6074
 8504TIP3   OH246926   5.606   5.738  15.915  0.2804  0.1602 -0.5232
 8504TIP3    H146927   5.680   5.734  15.975 -0.2647 -0.7457  0.1094
 8504TIP3    H246928   5.641   5.704  15.832  0.6554  0.0566 -0.3258
 8505TIP3   OH246929   1.800   4.173   0.138  0.5007 -0.5294 -0.3536
 8505TIP3    H146930   1.867   4.105   0.138  0.7827 -0.3055 -2.0005
 8505TIP3    H246931   1.753   4.159   0.056 -0.6562  0.1095  0.1813
 8506TIP3   OH246932   3.509   1.183  11.557  0.0317  0.8365  0.2369
 8506TIP3    H146933   3.599   1.183  11.592  0.0599  3.2375  0.3089
 8506TIP3    H246934   3.519   1.156  11.466  0.2925 -2.7412  1.1711
 8507TIP3   OH246935   1.346   1.482   2.199  0.2003 -0.1373 -0.3974
 8507TIP3    H146936   1.437   1.494   2.228 -0.1417  1.1501  0.2509
 8507TIP3    H246937   1.347   1.509   2.107  0.1216  1.9247  0.1468
 8508TIP3   OH246938   3.177   0.117   1.372 -0.2857 -0.0693 -0.4946
 8508TIP3    H146939   3.264   0.153   1.354 -0.7780  1.8689  0.7767
 8508TIP3    H246940   3.194   0.047   1.435  0.5120 -1.0416 -1.7256
 8509TIP3   OH246941   5.461   3.386   4.136 -0.4999 -0.7890  0.2458
 8509TIP3    H146942   5.478   3.390   4.230 -1.3844 -0.8962  0.4176
 8509TIP3    H246943   5.548   3.390   4.096 -0.1699  0.2865  1.0230
 8510TIP3   OH246944   1.015   1.386  14.124  0.0342 -0.2191  0.3581
 8510TIP3    H146945   0.974   1.454  14.177  1.3135  0.3553  0.6611
 8510TIP3    H246946   0.960   1.309  14.136  0.0908 -0.0153  2.2638
 8511TIP3   OH246947   2.669   1.605   4.368 -0.1837  0.5370 -0.5252
 8511TIP3    H146948   2.720   1.528   4.394 -1.2579  0.3977  1.3353
 8511TIP3    H246949   2.632   1.583   4.283 -0.4739 -1.0211 -0.0173
 8512TIP3   OH246950   6.297   0.432  13.988 -0.4422 -0.4358  0.2397
 8512TIP3    H146951   6.284   0.362  14.052  1.0927  0.2230  1.3103
 8512TIP3    H246952   6.388   0.421  13.959  0.0206  1.4776  0.8878
 8513TIP3   OH246953   2.489   0.831   5.698 -0.0369 -0.1732 -0.2513
 8513TIP3    H146954   2.402   0.855   5.666  0.1272  0.9746  0.0917
 8513TIP3    H246955   2.473   0.764   5.764 -0.7214  0.3898  0.1775
 8514TIP3   OH246956   0.693   2.516   2.425  0.2624 -0.5250 -0.2216
 8514TIP3    H146957   0.651   2.602   2.415 -0.5116 -1.0458 -1.6788
 8514TIP3    H246958   0.762   2.531   2.489  0.7103  1.4136 -1.0752
 8515TIP3   OH246959   1.270   5.372  12.618 -0.0427 -0.0959 -0.8972
 8515TIP3    H146960   1.303   5.288  12.585  0.1029 -0.5547  0.3537
 8515TIP3    H246961   1.342   5.434  12.603  0.5526 -0.5991 -0.1992
 8516TIP3   OH246962   5.699   0.874  14.147 -0.7223 -0.2273  0.3600
 8516TIP3    H146963   5.750   0.948  14.114  0.8756 -1.6398 -0.4858
 8516TIP3    H246964   5.753   0.836  14.217 -0.9118 -1.3233 -0.0626
 8517TIP3   OH246965   6.185   1.360  14.783 -0.3020  0.2666 -0.3475
 8517TIP3    H146966   6.090   1.352  14.787 -0.3317  0.3383 -0.8173
 8517TIP3    H246967   6.217   1.293  14.843 -0.6673  1.9767  1.8789
 8518TIP3   OH246968   0.078   3.121   4.540 -0.1875 -0.4467  0.2067
 8518TIP3    H146969   0.126   3.167   4.471 -2.6928  0.1130 -1.2667
 8518TIP3    H246970   0.112   3.031   4.536  0.0611 -0.3170 -1.4359
 8519TIP3   OH246971   5.524   4.914   4.673 -0.7752 -0.2787 -0.6905
 8519TIP3    H146972   5.443   4.865   4.689 -0.2742 -1.4402 -1.5841
 8519TIP3    H246973   5.594   4.850   4.688  0.0317  0.7982  0.4493
 8520TIP3   OH246974   0.557   4.531  13.962 -0.1248  0.5170  0.0696
 8520TIP3    H146975   0.623   4.592  13.928 -1.3637  2.0294  0.2324
 8520TIP3    H246976   0.476   4.560  13.921 -0.5345 -2.0891 -1.1291
 8521TIP3   OH246977   3.940   2.096   1.668 -0.3620  0.8292 -0.8631
 8521TIP3    H146978   3.892   2.136   1.740 -2.2179 -1.5149 -0.6638
 8521TIP3    H246979   3.895   2.125   1.589 -1.3269 -0.2861 -0.7520
 8522TIP3   OH246980   5.605   0.447  15.679  0.3761  1.0413 -0.1626
 8522TIP3    H146981   5.583   0.535  15.710 -1.7002  0.7365 -0.5987
 8522TIP3    H246982   5.576   0.446  15.587  1.6737  0.3312 -0.5878
 8523TIP3   OH246983   0.997   4.873  15.655  0.0918  0.1482 -0.1408
 8523TIP3    H146984   1.078   4.835  15.688 -0.1197 -0.4232 -0.2804
 8523TIP3    H246985   0.950   4.801  15.614 -0.7322  0.3561  0.3906
 8524TIP3   OH246986   3.383   2.141  16.490 -0.4660  0.5800  0.7136
 8524TIP3    H146987   3.362   2.213  16.430 -2.0519  0.0577  0.5913
 8524TIP3    H246988   3.307   2.136  16.548 -0.0725 -0.5731  1.1469
 8525TIP3   OH246989   1.631   0.467   2.481 -0.4849  0.0215 -0.5914
 8525TIP3    H146990   1.660   0.553   2.450 -0.2873  0.0186 -0.4190
 8525TIP3    H246991   1.712   0.421   2.504 -0.6755  0.4484  1.0321
 8526TIP3   OH246992   0.851   4.168   2.048  0.0375  0.0162 -0.1291
 8526TIP3    H146993   0.847   4.260   2.022 -0.6371 -0.0612 -0.3177
 8526TIP3    H246994   0.938   4.158   2.087 -0.2138  0.9574  0.7346
 8527TIP3   OH246995   2.871   5.016  16.641  0.2788  0.0768 -0.1052
 8527TIP3    H146996   2.869   5.112  16.650 -0.9429  0.3958 -2.8525
 8527TIP3    H246997   2.946   4.999  16.583  0.0387 -0.5542 -0.2403
 8528TIP3   OH246998   3.123   3.361  15.435 -0.3616 -0.3079 -0.2647
 8528TIP3    H146999   3.057   3.346  15.503  0.8939  0.6832  1.2289
 8528TIP3    H247000   3.094   3.442  15.392  0.2918  0.6186  0.9692
 8529TIP3   OH247001   4.478   5.022   5.402 -0.0845  0.3025 -0.3798
 8529TIP3    H147002   4.410   5.035   5.335 -0.6741 -0.4727  0.0424
 8529TIP3    H247003   4.467   4.930   5.428  1.2077  0.1321 -0.3813
 8530TIP3   OH247004   2.170   5.147  12.227 -0.0842  0.5186  0.1847
 8530TIP3    H147005   2.160   5.182  12.139 -0.4767  0.0301  0.0349
 8530TIP3    H247006   2.138   5.057  12.222 -0.6955  0.6841  0.9679
 8531TIP3   OH247007   2.435   0.189   2.728 -0.1093  0.1776 -0.1314
 8531TIP3    H147008   2.434   0.207   2.822 -1.1350  0.7013 -0.2293
 8531TIP3    H247009   2.414   0.273   2.687 -0.3547 -0.2013 -0.8015
 8532TIP3   OH247010   2.560   4.536   2.291 -0.7529  0.4642  0.4949
 8532TIP3    H147011   2.547   4.456   2.342 -0.5858 -0.0879 -0.3108
 8532TIP3    H247012   2.493   4.596   2.324 -1.5787 -0.3704  0.3805
 8533TIP3   OH247013   1.184   1.061   5.270 -0.1482  0.1546  0.4657
 8533TIP3    H147014   1.105   1.035   5.318  0.3105 -0.6086  0.8341
 8533TIP3    H247015   1.221   1.133   5.321 -1.8404  2.1500 -0.9716
 8534TIP3   OH247016   3.859   2.473   2.874 -0.5527  0.1561  0.1565
 8534TIP3    H147017   3.884   2.412   2.943 -0.6641 -1.9496 -1.5503
 8534TIP3    H247018   3.838   2.417   2.799 -0.5533  2.3191 -1.5659
 8535TIP3   OH247019   5.650   5.022   5.050 -0.3442 -0.8236 -1.0132
 8535TIP3    H147020   5.710   4.951   5.073  0.0526 -0.1218  0.1895
 8535TIP3    H247021   5.665   5.035   4.956  0.2814 -1.6696 -1.0500
 8536TIP3   OH247022   4.512   0.644   6.003 -0.2701  0.3271 -0.0007
 8536TIP3    H147023   4.496   0.682   5.916 -1.1612  0.6415  0.2882
 8536TIP3    H247024   4.599   0.677   6.027 -0.7940  1.7769  0.0098
 8537TIP3   OH247025   5.191   5.625  15.438 -0.1889  0.1766 -0.4248
 8537TIP3    H147026   5.227   5.546  15.397 -0.9850 -0.0425 -0.7254
 8537TIP3    H247027   5.191   5.690  15.367 -1.7610 -0.2608 -0.8906
 8538TIP3   OH247028   1.645   3.785  16.200  1.1682 -0.3291 -0.1049
 8538TIP3    H147029   1.685   3.737  16.272  2.5498  1.7224  0.6138
 8538TIP3    H247030   1.702   3.862  16.189 -1.3037  1.5684 -0.6020
 8539TIP3   OH247031   2.945   1.296   6.565 -0.3112 -0.2583  0.3011
 8539TIP3    H147032   2.963   1.207   6.536  0.9039 -0.1846  0.7539
 8539TIP3    H247033   2.918   1.343   6.486 -1.4940 -1.1461  0.1616
 8540TIP3   OH247034   5.577   4.820  17.200  0.2787  0.0290  0.0100
 8540TIP3    H147035   5.505   4.856  17.252  0.4261  0.2178  0.0795
 8540TIP3    H247036   5.602   4.740  17.247  0.4428  0.2227  0.2572
 8541TIP3   OH247037   1.730   3.533   3.767  0.0219  0.3683 -0.1783
 8541TIP3    H147038   1.746   3.586   3.688 -0.7949  0.9510  0.0388
 8541TIP3    H247039   1.791   3.569   3.832 -1.3722  1.9100  0.3410
 8542TIP3   OH247040   5.655   1.435  16.552 -0.3870  0.2769 -0.4634
 8542TIP3    H147041   5.654   1.490  16.474  3.0801  1.1089 -0.0983
 8542TIP3    H247042   5.585   1.471  16.607  1.3980  4.2200 -0.4416
 8543TIP3   OH247043   5.768   6.575  16.640  0.2190  0.2020  0.2995
 8543TIP3    H147044   5.814   6.562  16.557 -1.6740 -2.1840 -0.4740
 8543TIP3    H247045   5.683   6.610  16.616 -0.2459 -0.2427  1.2251
 8544TIP3   OH247046   2.877   3.971   4.602  0.0448 -0.1291 -0.4068
 8544TIP3    H147047   2.901   3.927   4.520 -0.0466 -0.3934 -0.2930
 8544TIP3    H247048   2.946   4.036   4.616  0.5581 -0.7042 -0.2171
 8545TIP3   OH247049   4.377   6.305  14.159 -0.2830  0.5592  0.1010
 8545TIP3    H147050   4.323   6.244  14.109  0.0106 -0.6382  1.2008
 8545TIP3    H247051   4.443   6.335  14.097 -0.7902  0.2328 -0.6158
 8546TIP3   OH247052   1.910   3.793   3.300  0.1317  0.8516 -0.3950
 8546TIP3    H147053   1.952   3.775   3.216  1.4793  1.6146  0.0885
 8546TIP3    H247054   1.817   3.793   3.281  0.3219 -0.7876 -1.5316
 8547TIP3   OH247055   3.379   2.247   0.001 -0.0214 -0.5022 -0.3786
 8547TIP3    H147056   3.387   2.229   0.095 -1.5826 -0.2233 -0.1763
 8547TIP3    H247057   3.365   2.161  -0.039 -1.3266 -0.4391 -0.1088
 8548TIP3   OH247058   0.800   4.504   4.801  0.3899  0.3147  0.1179
 8548TIP3    H147059   0.772   4.596   4.801 -1.3558 -0.1484  1.3057
 8548TIP3    H247060   0.800   4.478   4.709 -1.4510  0.8923 -0.0807
 8549TIP3   OH247061   1.831   2.264   3.431  0.1799  0.1438  0.5070
 8549TIP3    H147062   1.795   2.344   3.468 -0.7707 -0.9035  1.9605
 8549TIP3    H247063   1.795   2.194   3.485  0.5244 -1.3252 -1.0585
 8550TIP3   OH247064   4.334   4.250   5.320  0.2552  0.0390 -0.2198
 8550TIP3    H147065   4.300   4.330   5.360  0.3521 -0.3166  0.5999
 8550TIP3    H247066   4.257   4.197   5.302  0.2471  0.0034 -0.0769
 8551TIP3   OH247067   2.468   1.778  14.939 -0.1234  0.1443 -0.0726
 8551TIP3    H147068   2.414   1.734  14.874 -1.6749  1.5022  0.2314
 8551TIP3    H247069   2.407   1.835  14.986  1.5017  1.3655  0.6335
 8552TIP3   OH247070   6.264   0.753   1.456  0.2959  0.3974 -0.1970
 8552TIP3    H147071   6.258   0.802   1.539  1.6570  0.0812  0.1100
 8552TIP3    H247072   6.285   0.664   1.482 -1.5450 -0.2561 -0.7943
 8553TIP3   OH247073   5.309   5.439  12.063 -0.8835  0.2937 -0.5176
 8553TIP3    H147074   5.280   5.353  12.093 -1.4040  1.1035  1.4884
 8553TIP3    H247075   5.284   5.498  12.134  0.1604  1.9861 -1.5002
 8554TIP3   OH247076   0.319   5.679  13.398 -0.3886  0.2794  0.1596
 8554TIP3    H147077   0.265   5.696  13.475  0.4931  2.0984  0.4171
 8554TIP3    H247078   0.257   5.683  13.325 -0.9668  0.0991  0.6265
 8555TIP3   OH247079   1.540   2.049   1.555  0.2917  0.5578 -0.5712
 8555TIP3    H147080   1.608   1.982   1.548  0.1708  0.6005 -2.6485
 8555TIP3    H247081   1.472   2.021   1.494  0.0157  2.3121 -1.1207
 8556TIP3   OH247082   3.309   2.026  11.481  0.5384  0.9855 -0.0763
 8556TIP3    H147083   3.237   2.003  11.539  1.6547  0.6426  1.2031
 8556TIP3    H247084   3.266   2.062  11.403 -1.0735 -0.5685  0.0214
 8557TIP3   OH247085   0.521   1.805  13.809  0.0026  0.1615  0.5709
 8557TIP3    H147086   0.550   1.895  13.823 -1.9049  0.9933 -0.5305
 8557TIP3    H247087   0.516   1.796  13.713  1.3668 -1.5453  0.6044
 8558TIP3   OH247088   2.770   1.809   6.121 -0.2375  0.1220 -0.4104
 8558TIP3    H147089   2.831   1.866   6.074 -2.4402  0.3726 -3.2223
 8558TIP3    H247090   2.684   1.829   6.083 -1.7949 -1.7109  1.8714
 8559TIP3   OH247091   5.383   3.388   5.043  0.1922 -0.7684 -0.3770
 8559TIP3    H147092   5.410   3.297   5.058  1.5460 -0.5638 -1.3034
 8559TIP3    H247093   5.289   3.388   5.055  0.2682 -2.1301  0.4229
 8560TIP3   OH247094   4.865   1.640  15.480 -0.1881  0.9047 -0.8118
 8560TIP3    H147095   4.900   1.694  15.551 -1.5744  1.0339 -0.1800
 8560TIP3    H247096   4.938   1.630  15.419  1.4781 -0.3089  1.2342
 8561TIP3   OH247097   5.651   1.068   2.899 -0.2299 -0.5364  0.4707
 8561TIP3    H147098   5.708   1.016   2.842 -0.5184  0.8349 -1.1416
 8561TIP3    H247099   5.711   1.127   2.945 -0.3162  1.1194 -1.4547
 8562TIP3   OH247100   2.025   3.065   0.539  0.3005 -0.1566 -0.5052
 8562TIP3    H147101   2.076   3.144   0.521 -0.3484  0.0661 -1.4171
 8562TIP3    H247102   1.941   3.079   0.495 -1.2320  0.2082  2.3447
 8563TIP3   OH247103   2.649   4.324   1.191 -0.0895 -0.1920 -0.6738
 8563TIP3    H147104   2.694   4.240   1.197  0.1558 -0.1270 -1.5650
 8563TIP3    H247105   2.660   4.363   1.278 -0.0109 -0.9723 -0.3244
 8564TIP3   OH247106   1.819   2.479  14.982  0.2635  0.1837 -0.2274
 8564TIP3    H147107   1.824   2.525  15.066 -0.1704 -0.9150  0.4389
 8564TIP3    H247108   1.888   2.517  14.929  0.1214  1.3571  0.3930
 8565TIP3   OH247109   3.447   5.786   0.070  0.2083  0.4581  0.2034
 8565TIP3    H147110   3.435   5.856   0.134  1.3858 -0.4717  1.4980
 8565TIP3    H247111   3.465   5.708   0.122  0.5061 -0.4833 -1.2450
 8566TIP3   OH247112   4.575   3.319  11.448  0.5555  0.2952  0.1731
 8566TIP3    H147113   4.622   3.267  11.382 -0.4234 -1.8144  1.0242
 8566TIP3    H247114   4.641   3.337  11.515  0.3311 -2.6275  1.3571
 8567TIP3   OH247115   5.191   6.566  12.040 -0.0566 -0.6345 -0.4249
 8567TIP3    H147116   5.162   6.475  12.029  0.3147 -0.4977 -3.7097
 8567TIP3    H247117   5.129   6.617  11.989  2.2704  0.3545 -2.5136
 8568TIP3   OH247118   1.016   5.348  12.741 -0.3444  0.0914  0.3525
 8568TIP3    H147119   1.109   5.330  12.722 -0.5942  0.2845 -1.1908
 8568TIP3    H247120   0.973   5.263  12.730 -0.7869  0.5577 -2.0768
 8569TIP3   OH247121   0.562   0.499   6.667  0.3866  0.8387  0.3545
 8569TIP3    H147122   0.624   0.482   6.595  0.6586  0.5933  0.6414
 8569TIP3    H247123   0.513   0.576   6.639 -2.2644 -1.4448 -1.9395
 8570TIP3   OH247124   6.626   3.004   5.236  0.0183  0.2610  0.1311
 8570TIP3    H147125   6.554   3.059   5.208 -0.1774  0.0726  0.2594
 8570TIP3    H247126   6.698   3.026   5.177 -1.1691 -2.1330 -2.4404
 8571TIP3   OH247127   4.192   2.044  14.873 -0.2421  0.3058  0.4321
 8571TIP3    H147128   4.105   2.070  14.842  0.5319 -0.1408 -2.4336
 8571TIP3    H247129   4.252   2.083  14.810  1.5446 -0.7005  1.4270
 8572TIP3   OH247130   4.581   4.147  16.152 -0.4213  0.3877  0.9497
 8572TIP3    H147131   4.630   4.066  16.166 -0.9259 -0.3683 -1.3561
 8572TIP3    H247132   4.489   4.120  16.152 -0.5498  0.5799 -1.6212
 8573TIP3   OH247133   1.234   5.825  11.313 -0.5524 -0.2031 -0.0578
 8573TIP3    H147134   1.158   5.855  11.362  1.7314 -0.1690  3.9473
 8573TIP3    H247135   1.273   5.905  11.278 -0.9338  0.0814  0.1590
 8574TIP3   OH247136   3.113   4.060   2.364  0.4762 -0.3245 -0.1788
 8574TIP3    H147137   3.076   4.086   2.448 -2.1056 -1.7036 -0.7648
 8574TIP3    H247138   3.160   4.137   2.333 -1.9879  1.6825  0.7056
 8575TIP3   OH247139   5.430   2.058  14.834 -0.2293  0.4547 -0.3900
 8575TIP3    H147140   5.424   2.146  14.797  0.2009  0.3083 -0.8257
 8575TIP3    H247141   5.524   2.040  14.837 -0.3413 -0.3054 -1.0787
 8576TIP3   OH247142   2.190   1.398   0.922 -0.7147 -0.6075 -0.1787
 8576TIP3    H147143   2.261   1.392   0.987 -0.8198  0.2061  0.0192
 8576TIP3    H247144   2.172   1.307   0.898  0.1650 -0.8435  0.0239
 8577TIP3   OH247145   1.047   1.951  15.058  0.2902  0.4802  0.0565
 8577TIP3    H147146   1.134   1.988  15.040 -0.2329  1.4686 -0.5137
 8577TIP3    H247147   0.995   2.025  15.088 -0.9088  0.3165 -1.5041
 8578TIP3   OH247148   5.345   4.000  16.297  0.0392 -0.2641  0.1093
 8578TIP3    H147149   5.285   4.059  16.342  1.5347  0.5675  1.1318
 8578TIP3    H247150   5.339   4.024  16.205  0.2475  1.1798  0.4505
 8579TIP3   OH247151   6.352   2.542  13.029  0.1953 -0.1720 -0.0078
 8579TIP3    H147152   6.337   2.598  12.953  1.1224  0.2961  0.1407
 8579TIP3    H247153   6.388   2.600  13.095  1.0118 -0.9034  0.2099
 8580TIP3   OH247154   1.202   3.098   3.699  0.2667 -0.5795 -0.5676
 8580TIP3    H147155   1.284   3.136   3.667  0.2728 -1.1370 -1.2175
 8580TIP3    H247156   1.201   3.121   3.792  1.1043 -0.4690 -0.5764
 8581TIP3   OH247157   2.382   2.179  15.163 -0.1200  0.0553  0.3802
 8581TIP3    H147158   2.296   2.219  15.168 -0.4987 -0.6944  0.1112
 8581TIP3    H247159   2.388   2.124  15.241  0.1791  0.2225  0.4773
 8582TIP3   OH247160   1.338   4.997   3.915  0.4957  0.9613  0.9209
 8582TIP3    H147161   1.321   5.040   3.999 -1.6584  1.0131  0.5096
 8582TIP3    H247162   1.317   5.064   3.850  0.8192  0.4865  0.3186
 8583TIP3   OH247163   6.189   0.655   3.589 -0.7169 -0.4653  0.5560
 8583TIP3    H147164   6.281   0.628   3.597 -0.8418 -0.6337  1.6592
 8583TIP3    H247165   6.141   0.592   3.644 -1.4154 -0.0037  0.4941
 8584TIP3   OH247166   3.023   3.981   5.797  0.1971  0.0201 -0.2957
 8584TIP3    H147167   2.982   3.909   5.845 -0.1182  0.0035 -0.5921
 8584TIP3    H247168   3.016   4.056   5.856 -1.2970  0.3017 -0.7978
 8585TIP3   OH247169   4.060   0.196   4.549 -0.1709 -0.4084 -0.0358
 8585TIP3    H147170   4.148   0.229   4.536 -1.0864  2.0736 -0.3540
 8585TIP3    H247171   4.036   0.157   4.465  1.0783 -2.4764  0.4811
 8586TIP3   OH247172   1.269   1.524  16.924 -0.0094 -0.3417  0.2589
 8586TIP3    H147173   1.290   1.591  16.858 -0.1106 -0.7970 -0.2471
 8586TIP3    H247174   1.237   1.450  16.872 -2.5032  0.1683  0.9678
 8587TIP3   OH247175   4.428   1.828   4.983  0.1170  0.2974  0.4019
 8587TIP3    H147176   4.508   1.820   5.035 -0.6092 -0.3736  1.4590
 8587TIP3    H247177   4.397   1.738   4.973 -0.8975  0.6057  0.6541
 8588TIP3   OH247178   2.313   2.694   1.359  0.0936 -0.6717 -0.1647
 8588TIP3    H147179   2.356   2.779   1.364  0.1743 -0.6888 -0.5062
 8588TIP3    H247180   2.220   2.713   1.373  0.2191 -0.6449  0.6423
 8589TIP3   OH247181   2.797   6.097  15.245  0.4104 -0.0245  0.1699
 8589TIP3    H147182   2.773   6.008  15.218 -1.2916  0.1225  1.0536
 8589TIP3    H247183   2.832   6.086  15.334 -2.2345  0.3998  1.3538
 8590TIP3   OH247184   3.029   1.581   5.176 -0.5017  0.3271  0.0519
 8590TIP3    H147185   3.048   1.621   5.261 -0.6478  0.1242  0.1800
 8590TIP3    H247186   2.980   1.502   5.197  0.2296 -0.1987 -0.1635
 8591TIP3   OH247187   4.159   1.440  16.408 -0.2753 -0.4225  0.3639
 8591TIP3    H147188   4.072   1.399  16.405 -0.4609 -0.0161 -1.2385
 8591TIP3    H247189   4.220   1.368  16.400 -0.5233 -0.6164  0.1750
 8592TIP3   OH247190   1.623   0.339   1.452 -0.7902 -0.1645  0.2632
 8592TIP3    H147191   1.679   0.363   1.526  1.2861 -0.8699 -1.0127
 8592TIP3    H247192   1.656   0.390   1.378 -3.6837  1.5552  0.0087
 8593TIP3   OH247193   3.445   2.388  13.336  0.4827 -0.4683 -0.3871
 8593TIP3    H147194   3.422   2.320  13.273  1.5044 -1.1644 -0.0266
 8593TIP3    H247195   3.475   2.461  13.282 -1.5534  0.1099 -0.8237
 8594TIP3   OH247196   5.474   6.458  13.054  0.0507 -0.3256 -0.2108
 8594TIP3    H147197   5.532   6.528  13.084  0.0178 -0.7219  0.8265
 8594TIP3    H247198   5.411   6.501  12.997  0.4329  0.3671 -0.1228
 8595TIP3   OH247199   0.963   5.571  14.575  0.3545 -0.0641 -0.2976
 8595TIP3    H147200   1.023   5.630  14.620  0.4927 -0.9332  0.6972
 8595TIP3    H247201   0.989   5.484  14.604  0.8724 -0.7415 -2.5635
 8596TIP3   OH247202   2.920   3.847  15.826 -0.5125  0.0632  0.0016
 8596TIP3    H147203   2.916   3.878  15.916  0.8119 -0.5304  0.2862
 8596TIP3    H247204   2.953   3.757  15.833 -0.9487 -0.1964 -1.0347
 8597TIP3   OH247205   3.807   6.696  17.169  0.0137 -0.0327  0.1576
 8597TIP3    H147206   3.798   6.630  17.101 -0.4038  0.4306 -0.2423
 8597TIP3    H247207   3.900   6.718  17.168  0.2583 -0.9773  0.6494
 8598TIP3   OH247208   3.527   0.337  16.642  0.7155  0.1083  0.3466
 8598TIP3    H147209   3.550   0.280  16.716 -0.8276 -1.5141 -0.3607
 8598TIP3    H247210   3.472   0.283  16.586 -1.0616  2.3746 -0.2547
 8599TIP3   OH247211   0.805   1.191  11.697  0.1996  0.1918  0.2955
 8599TIP3    H147212   0.721   1.198  11.652  0.4529  0.7530 -0.0863
 8599TIP3    H247213   0.828   1.281  11.720  1.8361  0.3258 -1.6766
 8600TIP3   OH247214   0.745   4.663   5.719  0.1440 -0.1416  0.5569
 8600TIP3    H147215   0.824   4.716   5.704 -0.0559  0.4363  1.4953
 8600TIP3    H247216   0.743   4.649   5.813 -0.1750 -1.2723  0.3883
 8601TIP3   OH247217   1.920   4.547  13.186 -0.2879  0.1165  0.4313
 8601TIP3    H147218   1.878   4.477  13.236  2.6007 -0.6015  2.0736
 8601TIP3    H247219   1.889   4.628  13.227 -0.9449 -0.3132  0.8029
 8602TIP3   OH247220   5.599   4.931  11.018  0.4627 -0.3065 -0.4111
 8602TIP3    H147221   5.580   4.947  10.926  1.1960  2.0605 -0.2336
 8602TIP3    H247222   5.694   4.942  11.024  0.4523 -0.6883  0.6035
 8603TIP3   OH247223   1.892   5.609  12.373  0.0605 -0.3851 -0.2324
 8603TIP3    H147224   1.893   5.532  12.429  0.4452 -0.9649 -1.0143
 8603TIP3    H247225   1.972   5.602  12.321 -1.2411 -0.9495 -2.2691
 8604TIP3   OH247226   6.115   3.708   5.413  0.0913  0.3811  0.0145
 8604TIP3    H147227   6.146   3.619   5.396  0.4898  0.5969 -0.3927
 8604TIP3    H247228   6.176   3.743   5.478  0.2563  0.5509 -0.2347
 8605TIP3   OH247229   6.404   1.398   2.092  0.0294  0.3751 -0.2490
 8605TIP3    H147230   6.466   1.408   2.019  0.7552 -0.6055  0.1973
 8605TIP3    H247231   6.449   1.434   2.167 -0.3191  0.4892 -0.0939
 8606TIP3   OH247232   0.451   3.169   4.873 -0.2367  0.3569 -0.7428
 8606TIP3    H147233   0.476   3.196   4.961 -0.9703 -2.5732  0.4421
 8606TIP3    H247234   0.356   3.162   4.875 -0.1406 -1.6406 -1.1162
 8607TIP3   OH247235   4.169   0.469   4.168 -0.5082  0.0660 -0.4581
 8607TIP3    H147236   4.231   0.517   4.223 -0.3932 -1.7581  1.0953
 8607TIP3    H247237   4.223   0.430   4.100 -0.1273 -0.3836  0.0884
 8608TIP3   OH247238   3.661   1.319   2.358  0.2866 -0.5115 -0.6547
 8608TIP3    H147239   3.703   1.404   2.341 -2.2235  1.1616  0.7211
 8608TIP3    H247240   3.609   1.303   2.279 -1.2655  0.6405  0.0774
 8609TIP3   OH247241   6.057   0.973   0.674  0.0654  0.3567  0.4456
 8609TIP3    H147242   6.073   1.063   0.645 -0.2824  0.0134 -0.8714
 8609TIP3    H247243   6.076   0.919   0.597  0.8445 -0.7636  1.3879
 8610TIP3   OH247244   1.486   1.545  14.786  0.9916  0.0868 -0.5608
 8610TIP3    H147245   1.440   1.518  14.707  2.6954  0.6117 -1.7943
 8610TIP3    H247246   1.558   1.601  14.754  2.0456 -0.1199  1.3025
 8611TIP3   OH247247   5.039   2.145  16.969 -0.1253  0.1550 -0.3345
 8611TIP3    H147248   5.006   2.057  16.952  1.1430 -0.2405 -0.9168
 8611TIP3    H247249   4.986   2.178  17.041  0.4271 -1.7250  1.0025
 8612TIP3   OH247250   6.054   4.136   5.627 -0.3077  0.6258  0.3131
 8612TIP3    H147251   6.002   4.085   5.565  0.6297 -0.6407  0.5330
 8612TIP3    H247252   6.088   4.071   5.689  1.0474  1.4859  0.5073
 8613TIP3   OH247253   3.226   2.437  14.293  0.0658  0.2822 -0.3308
 8613TIP3    H147254   3.194   2.443  14.203 -0.5071 -0.1650 -0.1655
 8613TIP3    H247255   3.150   2.462  14.347  0.3629  0.4130  0.0306
 8614TIP3   OH247256   1.090   3.303  13.551 -0.4369  0.2627  0.4793
 8614TIP3    H147257   1.141   3.331  13.476  0.0865 -0.4024  0.5794
 8614TIP3    H247258   1.083   3.208  13.542  0.4500  0.0447  1.7631
 8615TIP3   OH247259   1.993   0.139   3.640  0.3209  0.1348  0.0052
 8615TIP3    H147260   2.025   0.109   3.725 -0.2171 -0.5988 -0.0417
 8615TIP3    H247261   2.044   0.090   3.576 -0.3149 -0.4340 -0.0767
 8616TIP3   OH247262   0.966   4.899  11.704  0.2252 -0.1503  0.7428
 8616TIP3    H147263   0.993   4.989  11.686 -2.0024  0.7617  1.5940
 8616TIP3    H247264   0.996   4.882  11.793 -0.9113  0.4264  1.2481
 8617TIP3   OH247265   5.037   0.623  13.778 -0.3055  0.3326 -0.2000
 8617TIP3    H147266   5.013   0.712  13.752 -0.4409  0.9188  1.7973
 8617TIP3    H247267   5.120   0.633  13.825 -0.2417 -0.6122 -0.0910
 8618TIP3   OH247268   2.503   5.939  11.167 -0.5726  0.1061 -0.0850
 8618TIP3    H147269   2.544   6.015  11.208  0.4255  0.2791 -1.3484
 8618TIP3    H247270   2.430   5.917  11.225 -0.4743  1.6034  0.6479
 8619TIP3   OH247271   3.459   4.160   5.911  0.2319 -0.1173 -0.1180
 8619TIP3    H147272   3.488   4.250   5.923  0.1791 -0.1923  0.6211
 8619TIP3    H247273   3.365   4.162   5.929  0.2182 -0.3063 -0.1628
 8620TIP3   OH247274   4.140   3.182   6.004  0.0318 -0.2844 -0.1288
 8620TIP3    H147275   4.194   3.168   6.082 -2.9957 -2.5199  1.8084
 8620TIP3    H247276   4.164   3.110   5.945  1.2481  0.5372 -0.6941
 8621TIP3   OH247277   4.715   1.009  13.229 -0.6247 -0.0791 -0.1060
 8621TIP3    H147278   4.767   0.978  13.303  1.4331  1.8395 -0.6540
 8621TIP3    H247279   4.653   1.071  13.269 -1.8904 -1.6058  0.4071
 8622TIP3   OH247280   2.880   3.112  12.112 -0.0314  0.0332  0.1268
 8622TIP3    H147281   2.793   3.089  12.081  0.8890 -2.0574 -1.1180
 8622TIP3    H247282   2.917   3.166  12.042 -0.8492  2.3959  1.4009
 8623TIP3   OH247283   5.467   5.114  14.735 -0.1545  0.5300 -0.6596
 8623TIP3    H147284   5.504   5.104  14.823 -0.2216 -0.8795 -0.7731
 8623TIP3    H247285   5.401   5.182  14.745 -0.7669 -0.2055  0.5907
 8624TIP3   OH247286   1.851   5.098   2.775  0.1995 -0.4365  0.4842
 8624TIP3    H147287   1.880   5.146   2.698  0.2026 -0.1083  0.6874
 8624TIP3    H247288   1.769   5.140   2.801  0.9118  0.3921  1.4950
 8625TIP3   OH247289   5.871   3.260  16.296  0.3616 -0.4495 -0.1397
 8625TIP3    H147290   5.950   3.211  16.275  0.0718 -1.2065  0.4944
 8625TIP3    H247291   5.801   3.195  16.297  0.0239 -0.1052  1.0441
 8626TIP3   OH247292   0.592   5.716   0.183  0.1547  0.1022 -0.1788
 8626TIP3    H147293   0.584   5.741   0.276  0.9072 -2.0271  0.5060
 8626TIP3    H247294   0.582   5.799   0.136 -1.0396  1.1443  1.7460
 8627TIP3   OH247295   2.250   4.620   0.533  0.2042 -0.4012  0.2568
 8627TIP3    H147296   2.284   4.686   0.472 -0.9345  0.7193  0.7980
 8627TIP3    H247297   2.326   4.598   0.588  0.5987  0.5101  0.1013
 8628TIP3   OH247298   5.231   1.762   6.654  0.1441  0.4459 -0.1935
 8628TIP3    H147299   5.152   1.741   6.703 -0.2557  0.7557 -0.6918
 8628TIP3    H247300   5.202   1.825   6.588  0.4106 -0.8823 -1.6445
 8629TIP3   OH247301   2.226   2.750  15.135  0.2762  0.1918 -0.6856
 8629TIP3    H147302   2.147   2.751  15.189 -1.4074 -1.0491 -2.9503
 8629TIP3    H247303   2.277   2.824  15.167 -1.0106  0.0700  1.9408
 8630TIP3   OH247304   4.587   0.750   4.968 -0.1967  0.0828  0.1238
 8630TIP3    H147305   4.605   0.709   5.052  0.7592 -0.8439 -0.5105
 8630TIP3    H247306   4.535   0.685   4.920  2.3803 -1.0264 -1.3634
 8631TIP3   OH247307   4.353   0.948   2.820  0.6665  0.2783  1.0211
 8631TIP3    H147308   4.262   0.929   2.797  1.1960 -2.5759  0.8950
 8631TIP3    H247309   4.399   0.951   2.736  0.9330  0.0272  1.1539
 8632TIP3   OH247310   3.376   1.777   2.627  0.2088  0.1727  0.3727
 8632TIP3    H147311   3.325   1.819   2.558  1.2228  1.4119  0.3479
 8632TIP3    H247312   3.458   1.751   2.584  0.7352  0.7051  1.0293
 8633TIP3   OH247313   2.296   3.427   4.576 -0.2269 -0.1422 -0.0175
 8633TIP3    H147314   2.388   3.442   4.557 -0.3325  1.4535  0.5829
 8633TIP3    H247315   2.271   3.499   4.634 -1.9723 -0.2406 -0.5804
 8634TIP3   OH247316   5.839   6.728   0.183 -0.1996 -0.0447  0.0296
 8634TIP3    H147317   5.907   6.749   0.119  0.1798  0.1672  0.4988
 8634TIP3    H247318   5.857   6.637   0.207  0.1044  0.1039  0.3749
 8635TIP3   OH247319   1.058   2.021   6.248  0.0374  0.1560  0.2377
 8635TIP3    H147320   0.994   2.087   6.273  0.2717 -0.0856  1.5678
 8635TIP3    H247321   1.069   1.967   6.327 -1.2306 -2.4022 -1.1928
 8636TIP3   OH247322   0.799   2.918  12.112  0.5265 -0.1651  0.5014
 8636TIP3    H147323   0.732   2.918  12.044  2.0607 -0.1599 -1.0975
 8636TIP3    H247324   0.773   2.848  12.172  0.7825 -2.4197 -1.8759
 8637TIP3   OH247325   2.707   1.936  11.772  0.1050  0.3590 -0.0813
 8637TIP3    H147326   2.725   1.916  11.681  0.7658 -2.9981  0.6290
 8637TIP3    H247327   2.611   1.939  11.777 -0.0245 -1.4477 -0.6235
 8638TIP3   OH247328   0.944   5.078  12.720  0.3086 -0.4796  0.2242
 8638TIP3    H147329   0.937   5.071  12.815 -1.3371 -0.9994  0.0858
 8638TIP3    H247330   1.018   5.021  12.697  0.0753 -1.1525  1.1010
 8639TIP3   OH247331   3.748   5.767  11.869 -0.2330 -0.9063  0.9323
 8639TIP3    H147332   3.798   5.838  11.911  0.4612 -0.4538 -0.5862
 8639TIP3    H247333   3.666   5.763  11.918  0.3453 -0.0742  2.0023
 8640TIP3   OH247334   3.171   5.663   0.081 -0.0010  0.3988  0.8348
 8640TIP3    H147335   3.265   5.663   0.102 -0.6037  0.2058  4.0472
 8640TIP3    H247336   3.137   5.740   0.126 -1.2892  1.0395 -1.1267
 8641TIP3   OH247337   0.453   6.532   5.728  0.3156  0.0175 -0.1965
 8641TIP3    H147338   0.418   6.615   5.696 -0.2655 -0.3921 -0.6561
 8641TIP3    H247339   0.547   6.537   5.710  0.1834  0.3081 -0.8343
 8642TIP3   OH247340   5.800   4.240   0.100 -0.0981  0.5672  0.4713
 8642TIP3    H147341   5.754   4.266   0.020  0.6546  1.5662  0.3346
 8642TIP3    H247342   5.787   4.314   0.159  1.6095  1.0435  0.2967
 8643TIP3   OH247343   5.225   4.029   5.099  0.5913 -0.3104 -0.0313
 8643TIP3    H147344   5.254   4.105   5.048  0.1970 -0.5968 -0.6948
 8643TIP3    H247345   5.224   3.957   5.036 -1.6905 -0.2889 -0.0834
 8644TIP3   OH247346   6.139   1.961   3.614  0.5452  0.9017 -0.0308
 8644TIP3    H147347   6.196   1.906   3.560  0.5860 -0.4025  1.2712
 8644TIP3    H247348   6.055   1.916   3.615 -0.2026  2.2030 -0.9672
 8645TIP3   OH247349   0.922   5.879   0.793  0.3145 -0.0530 -0.3968
 8645TIP3    H147350   0.849   5.921   0.838  0.8645 -1.0970  1.5546
 8645TIP3    H247351   0.977   5.951   0.763 -0.4116  0.6860  0.0181
 8646TIP3   OH247352   3.622   4.913   2.029  0.2844 -0.5117 -0.4091
 8646TIP3    H147353   3.635   5.000   1.990  0.4621 -0.6303 -0.6143
 8646TIP3    H247354   3.707   4.869   2.019 -0.1762 -1.1882 -1.5024
 8647TIP3   OH247355   3.288   1.231   2.872  0.4578 -0.3637  0.6676
 8647TIP3    H147356   3.281   1.175   2.950  0.7125 -0.8550  0.3477
 8647TIP3    H247357   3.381   1.255   2.868 -0.0112  1.8960  2.0229
 8648TIP3   OH247358   5.861   4.501   4.308 -0.5557 -0.7190 -0.6369
 8648TIP3    H147359   5.920   4.506   4.383 -0.7529  0.3754 -0.5338
 8648TIP3    H247360   5.841   4.408   4.300  0.7105 -1.0455 -0.3155
 8649TIP3   OH247361   0.930   3.340   0.990  0.9273 -0.7969  0.4259
 8649TIP3    H147362   0.849   3.303   1.026  0.9604 -0.3300  1.0009
 8649TIP3    H247363   0.904   3.375   0.904  0.6452 -1.1398  0.3700
 8650TIP3   OH247364   6.077   1.228   5.876  0.1417  0.0751  0.1158
 8650TIP3    H147365   6.107   1.137   5.884  0.2897 -0.0004 -1.0912
 8650TIP3    H247366   6.041   1.249   5.962  0.5172 -0.9792  0.5469
 8651TIP3   OH247367   3.891   4.437  15.129  0.3798  0.0206  0.0202
 8651TIP3    H147368   3.821   4.441  15.064  0.8466  1.3193 -0.4301
 8651TIP3    H247369   3.911   4.343  15.136 -0.9946 -0.3173 -0.2595
 8652TIP3   OH247370   4.142   1.265  16.834  0.1663 -0.6940 -0.3039
 8652TIP3    H147371   4.116   1.182  16.794 -0.5390  0.0540 -1.4579
 8652TIP3    H247372   4.092   1.331  16.787  1.6288  0.4997 -0.2623
 8653TIP3   OH247373   5.483   5.630   4.262 -0.3521  0.2325 -0.1910
 8653TIP3    H147374   5.558   5.575   4.236  0.3656  0.9153  0.3682
 8653TIP3    H247375   5.432   5.575   4.322  1.0836  0.5867  1.4444
 8654TIP3   OH247376   4.916   1.642  16.162 -0.3100  0.3276 -1.1078
 8654TIP3    H147377   4.840   1.639  16.104 -0.0199 -0.3164 -1.4642
 8654TIP3    H247378   4.987   1.607  16.109 -0.1244 -0.6811 -0.2233
 8655TIP3   OH247379   2.451   1.117   1.335  0.1850  0.2174  0.5806
 8655TIP3    H147380   2.461   1.167   1.416  1.2755 -0.7638  1.0917
 8655TIP3    H247381   2.469   1.026   1.361 -0.3122 -0.2404 -0.5952
 8656TIP3   OH247382   1.274   2.203  14.029  0.2232 -0.2617 -0.3668
 8656TIP3    H147383   1.276   2.142  14.104  1.7918 -0.2731 -0.3885
 8656TIP3    H247384   1.364   2.234  14.021 -0.4790  1.9275 -0.4969
 8657TIP3   OH247385   5.724   0.777   0.854 -0.1071  0.2717 -0.4249
 8657TIP3    H147386   5.750   0.868   0.870 -0.1757  0.4979 -1.5786
 8657TIP3    H247387   5.629   0.778   0.859 -0.1839  0.5160 -1.6434
 8658TIP3   OH247388   4.340   2.042   1.307 -0.7139 -0.0831  0.1538
 8658TIP3    H147389   4.391   1.992   1.371 -1.4835 -2.2255 -0.8171
 8658TIP3    H247390   4.404   2.071   1.242 -0.4825 -1.4691 -0.2652
 8659TIP3   OH247391   1.169   2.296  11.113  0.0107  0.1086  0.3188
 8659TIP3    H147392   1.124   2.211  11.107  1.8566 -0.8743 -0.6413
 8659TIP3    H247393   1.262   2.273  11.113  0.5474  2.0528  2.2010
 8660TIP3   OH247394   6.209   4.088  11.978 -0.9576  0.1256  0.6317
 8660TIP3    H147395   6.166   4.173  11.970 -0.0353  0.5676  0.1766
 8660TIP3    H247396   6.301   4.106  11.956 -1.0905 -1.3264 -1.3277
 8661TIP3   OH247397   1.306   4.710  13.850  0.6041 -0.0460  0.0364
 8661TIP3    H147398   1.271   4.646  13.911  1.5116 -1.4664 -0.8739
 8661TIP3    H247399   1.328   4.660  13.772  3.1532  0.9892 -0.0134
 8662TIP3   OH247400   0.147   2.765  13.464 -0.3022  0.1528 -0.0561
 8662TIP3    H147401   0.222   2.798  13.413  0.1433  0.9429  1.0867
 8662TIP3    H247402   0.112   2.842  13.508 -0.9788 -0.4456  0.4734
 8663TIP3   OH247403   3.492   0.601   3.838  0.3091 -0.6243  0.0760
 8663TIP3    H147404   3.410   0.581   3.883  0.7632  0.4401  1.4645
 8663TIP3    H247405   3.479   0.690   3.804 -0.0854 -1.4531 -2.1538
 8664TIP3   OH247406   2.413   0.444   4.712  0.5244 -0.3624 -0.1139
 8664TIP3    H147407   2.470   0.479   4.780  0.8077 -1.6970  0.3625
 8664TIP3    H247408   2.380   0.521   4.667  0.3729  0.5618  1.4947
 8665TIP3   OH247409   5.797   0.628   6.348  0.6628 -0.1162 -0.5838
 8665TIP3    H147410   5.800   0.569   6.423  3.2321 -0.9863 -1.2359
 8665TIP3    H247411   5.811   0.715   6.384 -1.4936 -0.0512  0.2209
 8666TIP3   OH247412   3.432   3.737  16.844  0.0163 -0.2526  0.2272
 8666TIP3    H147413   3.341   3.714  16.827 -0.6554  1.1419  1.6604
 8666TIP3    H247414   3.433   3.768  16.935  2.7841 -4.5715  1.9943
 8667TIP3   OH247415   1.721   2.658   5.468 -0.3128  0.4504  0.7374
 8667TIP3    H147416   1.757   2.639   5.555  0.5517 -0.8972  0.1173
 8667TIP3    H247417   1.681   2.745   5.477  0.6976  0.8018  2.1855
 8668TIP3   OH247418   4.611   0.794   3.758  0.3362 -0.0306  0.4177
 8668TIP3    H147419   4.561   0.840   3.824 -0.0165  0.9301 -0.4899
 8668TIP3    H247420   4.656   0.724   3.806 -1.0668 -0.2823  1.4061
 8669TIP3   OH247421   3.488   1.626  11.968  0.4040  0.0382  0.4690
 8669TIP3    H147422   3.449   1.577  11.896  0.4774 -0.0239  0.4707
 8669TIP3    H247423   3.515   1.709  11.930 -1.2899  0.8002  0.8325
 8670TIP3   OH247424   5.591   3.230  16.663 -0.0386  0.2346  0.0118
 8670TIP3    H147425   5.570   3.140  16.688 -0.9045  0.0287 -1.3357
 8670TIP3    H247426   5.687   3.234  16.662  0.0211 -0.0795  2.0294
 8671TIP3   OH247427   2.255   5.373   6.601  0.3062 -0.4797 -0.2913
 8671TIP3    H147428   2.298   5.291   6.625  0.7308 -0.1067  0.2448
 8671TIP3    H247429   2.280   5.386   6.509  0.3897 -0.8555 -0.3260
 8672TIP3   OH247430   6.520   5.797   1.020  0.0553  0.1700  0.1996
 8672TIP3    H147431   6.575   5.873   1.001 -0.6703  0.9436  1.0740
 8672TIP3    H247432   6.498   5.762   0.933  0.8665  0.6083 -0.1959
 8673TIP3   OH247433   3.192   2.094  12.031  0.0483 -0.1286 -0.0531
 8673TIP3    H147434   3.278   2.131  12.051 -0.8592  0.7442  2.6588
 8673TIP3    H247435   3.156   2.071  12.116 -2.1819 -1.0320 -1.1753
 8674TIP3   OH247436   1.033   4.985  14.043  0.2182  0.5975 -0.8448
 8674TIP3    H147437   1.023   4.995  14.137  0.8564  0.8875 -0.8064
 8674TIP3    H247438   1.106   5.041  14.020  0.9801 -0.5445 -1.2990
 8675TIP3   OH247439   5.886   2.412   3.664  0.2314  0.6931  0.2397
 8675TIP3    H147440   5.912   2.458   3.585  1.5703 -0.7856 -0.2312
 8675TIP3    H247441   5.962   2.416   3.722  0.1311 -0.2817  0.4683
 8676TIP3   OH247442   1.167   4.198   5.387 -0.7966  0.3124 -0.5471
 8676TIP3    H147443   1.217   4.271   5.350 -0.3856 -0.9437 -2.6258
 8676TIP3    H247444   1.101   4.178   5.321 -1.8418 -0.2739  0.6469
 8677TIP3   OH247445   1.090   2.728   0.000  0.5902  0.0553 -0.2126
 8677TIP3    H147446   1.181   2.754  -0.014  0.3735  1.0134  0.0683
 8677TIP3    H247447   1.039   2.809  -0.014  0.0192  0.1986  2.2123
 8678TIP3   OH247448   3.612   5.850  13.372 -0.5976 -0.0049 -0.2369
 8678TIP3    H147449   3.657   5.799  13.304  1.4502  0.7763  0.4341
 8678TIP3    H247450   3.677   5.916  13.398 -2.3146  1.4456  0.5572
 8679TIP3   OH247451   6.498   3.380   1.315 -0.0621 -0.3083 -0.7186
 8679TIP3    H147452   6.481   3.460   1.364  0.9706 -0.2215 -0.4738
 8679TIP3    H247453   6.487   3.405   1.223  1.1589  0.3765 -0.7045
 8680TIP3   OH247454   4.808   4.388  14.136  0.4778 -0.5469 -0.0910
 8680TIP3    H147455   4.809   4.484  14.136  1.1732 -0.5469 -0.3575
 8680TIP3    H247456   4.770   4.364  14.220  2.1853 -0.0396  0.8616
 8681TIP3   OH247457   0.036   1.056  11.840 -0.2612 -0.5319  0.0321
 8681TIP3    H147458  -0.008   0.982  11.883  0.0129 -0.6639  0.0841
 8681TIP3    H247459   0.079   1.018  11.764  0.6460 -0.5931  0.5630
 8682TIP3   OH247460   1.046   4.544   2.501 -0.0351  0.3797  0.1122
 8682TIP3    H147461   1.037   4.566   2.594  0.5256  0.8374  0.0700
 8682TIP3    H247462   1.141   4.542   2.487 -0.0398 -1.9812  0.0740
 8683TIP3   OH247463   5.215   4.609  16.808 -0.0884 -0.2632 -0.2037
 8683TIP3    H147464   5.260   4.588  16.726  2.0391 -1.3680  1.1581
 8683TIP3    H247465   5.221   4.529  16.860  0.0171  0.8771  1.6244
 8684TIP3   OH247466   1.974   5.002  17.026 -0.3173 -0.0070  0.0770
 8684TIP3    H147467   2.021   5.076  17.066 -0.1432 -0.1942  0.2192
 8684TIP3    H247468   1.882   5.025  17.036 -0.2510  0.9064 -1.2253
 8685TIP3   OH247469   2.242   6.607   1.841  0.3888  0.5836 -0.6693
 8685TIP3    H147470   2.159   6.563   1.825  1.0068 -1.2074  0.6603
 8685TIP3    H247471   2.251   6.607   1.937  1.7310  1.0690 -0.7718
 8686TIP3   OH247472   1.523   6.556   5.584 -0.3594 -0.1427  0.1619
 8686TIP3    H147473   1.438   6.566   5.626 -0.0738  0.2039  0.6633
 8686TIP3    H247474   1.582   6.530   5.655  0.4986  2.1411  0.3699
 8687TIP3   OH247475   6.411   4.284   3.267 -0.1246  0.4887  0.3006
 8687TIP3    H147476   6.333   4.232   3.247  1.3883 -1.4652 -0.8402
 8687TIP3    H247477   6.427   4.335   3.188  0.0376  0.4898  0.3331
 8688TIP3   OH247478   3.429   0.644   2.955 -0.0266 -0.6538 -0.3087
 8688TIP3    H147479   3.424   0.688   2.870  1.0239  1.4368  0.6265
 8688TIP3    H247480   3.423   0.551   2.935 -0.7777 -0.1754 -2.5662
 8689TIP3   OH247481   1.344   0.309  11.187 -0.6272  0.2402 -0.8450
 8689TIP3    H147482   1.309   0.375  11.246 -0.8461  1.7105 -2.5062
 8689TIP3    H247483   1.321   0.225  11.227 -0.5304  1.1542  1.2285
 8690TIP3   OH247484   0.485   2.612  11.327 -0.8513  0.4050 -0.0161
 8690TIP3    H147485   0.576   2.612  11.298 -0.9025  0.2951 -0.1800
 8690TIP3    H247486   0.488   2.581  11.417 -0.4658  2.7319  0.8467
 8691TIP3   OH247487   5.251   0.968  15.215 -0.3045 -0.4034 -0.5439
 8691TIP3    H147488   5.250   0.879  15.180 -1.7126 -0.7247  0.2435
 8691TIP3    H247489   5.331   0.972  15.269 -0.5128 -1.3803 -0.1426
 8692TIP3   OH247490   2.333   4.495  14.280 -0.6602  0.5055 -0.9259
 8692TIP3    H147491   2.360   4.432  14.347  0.2948 -0.1532 -1.9011
 8692TIP3    H247492   2.248   4.526  14.310 -0.8217 -0.7076 -0.0447
 8693TIP3   OH247493   6.404   4.485  12.577 -0.3074 -0.2962 -0.2721
 8693TIP3    H147494   6.412   4.406  12.631 -1.4670 -0.1149  0.2099
 8693TIP3    H247495   6.323   4.527  12.608 -0.1101  0.6910 -1.0281
 8694TIP3   OH247496   5.871   3.837  13.080 -0.4367  0.7740 -0.0300
 8694TIP3    H147497   5.844   3.746  13.071  0.5690  0.4367  0.2260
 8694TIP3    H247498   5.919   3.856  12.999 -0.6150  1.0712 -0.0704
 8695TIP3   OH247499   5.483   6.422  16.318 -0.3722 -0.4148 -0.0544
 8695TIP3    H147500   5.391   6.442  16.337 -0.6989 -0.2442 -1.6578
 8695TIP3    H247501   5.494   6.449  16.226  1.7171  1.1047  0.5841
 8696TIP3   OH247502   1.481   3.018  14.396 -0.2595  0.0563  0.4854
 8696TIP3    H147503   1.559   3.010  14.340  0.5561  0.3152  1.5614
 8696TIP3    H247504   1.505   2.975  14.478 -1.2415  0.1941  0.8625
 8697TIP3   OH247505   6.630   2.437  12.931 -0.2727 -0.1194 -0.7356
 8697TIP3    H147506   6.581   2.467  12.854  0.6436  1.5873 -0.7102
 8697TIP3    H247507   6.699   2.380  12.896  0.7364  1.4074 -1.3330
 8698TIP3   OH247508   0.910   5.776   1.055 -0.5003 -0.1083  0.6044
 8698TIP3    H147509   0.935   5.800   0.966 -2.4617 -0.4312 -0.0651
 8698TIP3    H247510   0.960   5.695   1.072 -0.8230 -0.5672 -0.5578
 8699TIP3   OH247511   1.587   2.291   4.749 -0.3874  0.0729 -0.5157
 8699TIP3    H147512   1.668   2.243   4.738 -1.0990 -1.4199  0.4307
 8699TIP3    H247513   1.602   2.375   4.706  1.6635 -0.1448 -0.2832
 8700TIP3   OH247514   6.786   3.435  11.559  0.1979  0.2390 -0.3271
 8700TIP3    H147515   6.787   3.508  11.498 -0.7225  0.7016  0.1943
 8700TIP3    H247516   6.844   3.462  11.630  0.1958  0.2778 -0.3399
 8701TIP3   OH247517   1.968   0.873  16.726  0.2222 -0.3971 -0.1756
 8701TIP3    H147518   1.914   0.921  16.789 -1.1473  2.1137 -3.0146
 8701TIP3    H247519   2.055   0.913  16.736 -0.3593  1.1185 -0.8999
 8702TIP3   OH247520   3.155   5.282  13.236 -0.0088 -0.2023 -0.1925
 8702TIP3    H147521   3.105   5.259  13.158  0.4583 -0.1990 -0.5011
 8702TIP3    H247522   3.225   5.339  13.203 -0.9372  1.3932  0.4969
 8703TIP3   OH247523   0.591   2.286   2.081 -0.4287  0.1400 -0.8303
 8703TIP3    H147524   0.608   2.272   1.988  0.1682  0.7335 -0.8147
 8703TIP3    H247525   0.664   2.341   2.111 -0.1276 -0.7941  0.1913
 8704TIP3   OH247526   3.432   1.491   0.846  0.1815 -0.0795  0.2966
 8704TIP3    H147527   3.449   1.491   0.751  0.1361  0.9089  0.2752
 8704TIP3    H247528   3.484   1.417   0.879  0.3690 -0.3081 -0.4687
 8705TIP3   OH247529   3.536   2.116   5.933 -0.1150  0.0289  0.1620
 8705TIP3    H147530   3.462   2.163   5.895 -0.9896 -1.3267  0.1233
 8705TIP3    H247531   3.515   2.110   6.026 -0.2513 -0.7043  0.0851
 8706TIP3   OH247532   3.107   1.527  12.184  0.3647 -0.1020  0.4799
 8706TIP3    H147533   3.034   1.465  12.195 -1.6810  2.1949  0.6033
 8706TIP3    H247534   3.122   1.562  12.271  0.8391  0.2926  0.2416
 8707TIP3   OH247535   0.524   5.943   0.031  0.3339  0.1695  0.3638
 8707TIP3    H147536   0.587   5.942  -0.041  0.0007 -1.9311  0.0297
 8707TIP3    H247537   0.440   5.962  -0.011  0.3900  0.6836  0.4752
 8708TIP3   OH247538   1.398   3.692   4.940  0.1647 -0.7248  0.1094
 8708TIP3    H147539   1.340   3.616   4.941 -0.0300 -0.5794  0.0834
 8708TIP3    H247540   1.376   3.741   5.020 -1.4064  0.5440 -1.0187
 8709TIP3   OH247541   4.021   6.586   4.390 -0.3642 -0.8722 -0.1626
 8709TIP3    H147542   3.992   6.646   4.322 -0.5167 -1.1295 -0.3267
 8709TIP3    H247543   3.965   6.606   4.465 -0.4932 -0.8895 -0.2545
 8710TIP3   OH247544   5.836   3.757  15.297 -0.5214  0.2809 -0.1998
 8710TIP3    H147545   5.869   3.729  15.211 -0.5184  0.2673 -0.1945
 8710TIP3    H247546   5.852   3.851  15.299  0.2385  0.1512  0.1230
 8711TIP3   OH247547   6.064   2.343   1.243 -0.3890 -0.4982  0.0467
 8711TIP3    H147548   6.109   2.268   1.282  0.5242  0.6672  1.3310
 8711TIP3    H247549   5.997   2.304   1.188  1.5951 -2.2949 -1.2432
 8712TIP3   OH247550   3.786   4.178  13.927  0.5285 -0.1869  0.1319
 8712TIP3    H147551   3.839   4.099  13.933  0.8800  0.0660  0.4698
 8712TIP3    H247552   3.850   4.249  13.917  0.1802 -0.0315 -1.1221
 8713TIP3   OH247553   6.297   4.742   1.460 -0.2741  0.2032 -0.6737
 8713TIP3    H147554   6.325   4.736   1.551  0.2202  0.1771 -0.8271
 8713TIP3    H247555   6.365   4.696   1.411 -0.1256  0.9094 -1.1391
 8714TIP3   OH247556   0.407   5.217  16.936  0.0975  0.0833 -0.6405
 8714TIP3    H147557   0.425   5.148  17.000 -0.0966  1.9860  1.6072
 8714TIP3    H247558   0.476   5.281  16.949 -1.4523  1.7973 -0.3765
 8715TIP3   OH247559   6.402   2.875   1.143  0.3495  0.5247 -0.3467
 8715TIP3    H147560   6.325   2.898   1.090 -0.5370  0.0767  0.7080
 8715TIP3    H247561   6.463   2.837   1.080 -1.1094 -0.9948 -0.9337
 8716TIP3   OH247562   0.315   4.047  14.562 -0.7762  0.0305  0.9985
 8716TIP3    H147563   0.367   4.038  14.642 -0.4548 -0.1602  0.7715
 8716TIP3    H247564   0.346   3.976  14.505 -0.9399  0.2180  0.6722
 8717TIP3   OH247565   5.513   3.515  14.252 -0.9107  0.3095  0.2019
 8717TIP3    H147566   5.508   3.429  14.294  1.1769  0.4813  0.8980
 8717TIP3    H247567   5.489   3.498  14.161 -1.4194 -0.8187  0.5228
 8718TIP3   OH247568   5.105   6.745   3.143 -0.2792  0.3756  0.8928
 8718TIP3    H147569   5.068   6.819   3.097  0.5323  0.3091  0.1000
 8718TIP3    H247570   5.134   6.685   3.074 -0.6513 -0.5474  1.5086
 8719TIP3   OH247571   3.001   0.964  17.236  0.1058  0.1636  0.1395
 8719TIP3    H147572   2.913   0.934  17.263 -0.1589  0.1476 -0.7291
 8719TIP3    H247573   3.007   0.940  17.144  0.1667  2.1472 -0.4096
 8720TIP3   OH247574   3.882   5.720   5.079  0.3907 -0.1104 -0.9185
 8720TIP3    H147575   3.909   5.719   5.171  0.2848 -0.9562 -0.8912
 8720TIP3    H247576   3.787   5.709   5.083  0.0975  1.9490 -1.0510
 8721TIP3   OH247577   1.555   0.488  12.682  0.2610 -0.0025  0.0398
 8721TIP3    H147578   1.608   0.520  12.755 -0.1554  2.3630 -0.5989
 8721TIP3    H247579   1.619   0.453  12.620  0.7523 -0.5379  0.8368
 8722TIP3   OH247580   3.936   3.073  11.253 -0.2570  0.2199 -0.1102
 8722TIP3    H147581   3.987   3.009  11.203 -0.6958  0.4786 -0.9089
 8722TIP3    H247582   3.941   3.154  11.201 -0.7689  0.4806  0.2346
 8723TIP3   OH247583   6.203   4.825   0.105  0.2484  0.6153 -0.0571
 8723TIP3    H147584   6.108   4.828   0.114  0.3495  0.0764  1.4668
 8723TIP3    H247585   6.222   4.733   0.088  0.4514  0.8606 -1.2418
 8724TIP3   OH247586   5.280   3.669   1.523 -0.1499 -0.3733  0.1768
 8724TIP3    H147587   5.254   3.635   1.438 -0.2412 -0.7077  0.3385
 8724TIP3    H247588   5.317   3.594   1.569  2.9926  0.4200 -0.7528
 8725TIP3   OH247589   2.435   2.887   4.674 -0.1832 -0.3100  0.1138
 8725TIP3    H147590   2.517   2.845   4.648 -0.5549 -2.0327  1.5479
 8725TIP3    H247591   2.367   2.838   4.628 -0.4715  0.6790 -0.5381
 8726TIP3   OH247592   0.321   0.841  11.990 -0.3140 -0.0124  0.4850
 8726TIP3    H147593   0.348   0.932  11.983  1.9759 -0.6984 -0.6406
 8726TIP3    H247594   0.317   0.810  11.899  2.2273 -1.8439  0.9040
 8727TIP3   OH247595   3.656   0.449   4.723 -0.1784 -0.1069 -0.5347
 8727TIP3    H147596   3.711   0.398   4.664  1.1543 -0.9170  1.2922
 8727TIP3    H247597   3.655   0.398   4.804 -1.0444  1.4651  0.4939
 8728TIP3   OH247598   5.501   3.678  15.969 -0.3000  0.7971 -0.8528
 8728TIP3    H147599   5.467   3.589  15.962  0.3983  0.3950  0.5174
 8728TIP3    H247600   5.424   3.734  15.966 -1.1634 -0.0891  2.1233
 8729TIP3   OH247601   4.836   4.335   1.659 -0.0784 -0.2319 -0.3691
 8729TIP3    H147602   4.925   4.312   1.686  0.9674  1.3844 -2.1858
 8729TIP3    H247603   4.779   4.287   1.719  2.0159 -0.7831  1.2710
 8730TIP3   OH247604   3.361   4.484   4.295  0.1042 -0.5357  0.3161
 8730TIP3    H147605   3.390   4.538   4.222 -1.9334 -0.8273 -0.7734
 8730TIP3    H247606   3.387   4.534   4.373 -0.7982  1.5581 -0.6464
 8731TIP3   OH247607   2.314   4.877  12.344 -0.6651  0.4174 -0.2120
 8731TIP3    H147608   2.261   4.805  12.308 -0.7927  0.3640  0.0795
 8731TIP3    H247609   2.251   4.945  12.364 -0.2927  1.7202 -3.0236
 8732TIP3   OH247610   2.586   1.474  11.671  0.0688  0.1456  0.4190
 8732TIP3    H147611   2.675   1.452  11.645 -0.6972 -1.1728 -1.4225
 8732TIP3    H247612   2.553   1.528  11.599 -0.1201  2.1118  1.9035
 8733TIP3   OH247613   2.960   2.181   2.999 -0.4482  0.1135 -0.1735
 8733TIP3    H147614   2.964   2.260   2.945  0.5562 -0.4948 -1.0340
 8733TIP3    H247615   2.971   2.213   3.088  0.5555  0.9101 -0.5580
 8734TIP3   OH247616   0.147   4.016   0.981  0.2648 -0.1290  0.1518
 8734TIP3    H147617   0.175   4.101   0.947  0.6686 -0.5729 -0.6389
 8734TIP3    H247618   0.225   3.979   1.022 -0.0694  0.1439  1.0685
 8735TIP3   OH247619   4.590   6.254  13.581  0.6390  0.0647  0.0490
 8735TIP3    H147620   4.518   6.278  13.639  0.2822  1.0023 -0.7535
 8735TIP3    H247621   4.652   6.327  13.589  0.8798 -0.1033 -0.2815
 8736TIP3   OH247622   4.879   0.875  13.407  0.2791  0.3487  0.5677
 8736TIP3    H147623   4.926   0.899  13.487  1.6619  0.6507 -0.3096
 8736TIP3    H247624   4.942   0.823  13.357 -0.9161 -0.7067  0.1161
 8737TIP3   OH247625   2.181   5.591  13.726  0.4554  0.3845  0.2465
 8737TIP3    H147626   2.105   5.642  13.700  1.3180  2.7036  1.9542
 8737TIP3    H247627   2.148   5.528  13.790 -0.0175  1.5133  1.1346
 8738TIP3   OH247628   2.319   3.305  13.295  0.3981  0.4062 -0.4281
 8738TIP3    H147629   2.341   3.394  13.268 -0.1462  0.4227 -0.8258
 8738TIP3    H247630   2.236   3.287  13.252 -0.8034  0.6372  1.6368
 8739TIP3   OH247631   2.632   5.870   2.803  0.7629  0.1605  0.0622
 8739TIP3    H147632   2.585   5.786   2.805  3.5867 -1.5731  2.0315
 8739TIP3    H247633   2.607   5.913   2.885  1.5691 -0.1700  0.4908
 8740TIP3   OH247634   4.615   6.524   0.727  0.0250 -0.9127 -0.1443
 8740TIP3    H147635   4.657   6.440   0.750  0.2575 -0.4669  1.1741
 8740TIP3    H247636   4.688   6.581   0.703  0.2770 -0.1004  2.2653
 8741TIP3   OH247637   5.407   1.666  11.690  0.2692  0.0992  0.2558
 8741TIP3    H147638   5.327   1.628  11.727  0.3231  1.3681  1.8146
 8741TIP3    H247639   5.476   1.603  11.711 -0.1003 -0.3590  0.1082
 8742TIP3   OH247640   2.300   6.045  17.071  0.1983 -0.1594  0.0467
 8742TIP3    H147641   2.210   6.030  17.042  0.3821 -1.8316  0.2093
 8742TIP3    H247642   2.351   6.044  16.990  0.1051  0.6735 -0.0343
 8743TIP3   OH247643   2.449   3.808  15.668 -0.1556  0.1735  0.1558
 8743TIP3    H147644   2.509   3.759  15.724  0.9227  0.4435 -0.7298
 8743TIP3    H247645   2.488   3.895  15.660 -0.5835  0.3112 -0.5497
 8744TIP3   OH247646   4.579   0.080   3.382 -0.6410  0.1311 -0.8736
 8744TIP3    H147647   4.618   0.124   3.457  1.0453 -2.0688 -0.3492
 8744TIP3    H247648   4.571   0.149   3.316  1.4001  1.3573  0.0508
 8745TIP3   OH247649   4.213   2.089   0.634  0.0337  0.4618  0.0871
 8745TIP3    H147650   4.301   2.082   0.598 -0.2249  0.7356 -0.6169
 8745TIP3    H247651   4.225   2.082   0.729  0.9079  1.4982  0.0682
 8746TIP3   OH247652   4.733   6.298   5.128 -0.8222 -0.5370  0.1248
 8746TIP3    H147653   4.779   6.239   5.068 -0.0655  1.7123 -1.6512
 8746TIP3    H247654   4.801   6.327   5.189 -0.6095  0.2619 -0.4714
 8747TIP3   OH247655   5.765   2.665  14.203  0.1669  0.0170  0.1507
 8747TIP3    H147656   5.746   2.609  14.128  0.9029 -0.9854  0.6821
 8747TIP3    H247657   5.854   2.697  14.188  0.1413  0.1928  0.3623
 8748TIP3   OH247658   0.566   5.042   6.723 -0.8093  0.0745  0.3064
 8748TIP3    H147659   0.635   4.977   6.711 -0.7268 -0.3471  2.5988
 8748TIP3    H247660   0.492   5.009   6.672 -0.2043 -0.8923  0.0340
 8749TIP3   OH247661   3.643   6.049  11.157  0.6737 -0.5318  0.5943
 8749TIP3    H147662   3.705   5.985  11.192 -0.2679 -1.4301  0.6640
 8749TIP3    H247663   3.599   6.003  11.086 -0.6402 -0.2614  1.2164
 8750TIP3   OH247664   0.536   3.696   4.889  0.1193  0.0548  0.5273
 8750TIP3    H147665   0.511   3.788   4.898 -0.3153  0.1119 -0.9600
 8750TIP3    H247666   0.460   3.654   4.848  0.7643 -0.7164  0.0960
 8751TIP3   OH247667   5.384   2.403  15.147 -0.1961  0.3611 -0.3544
 8751TIP3    H147668   5.428   2.475  15.192  0.2178  1.0099 -1.7340
 8751TIP3    H247669   5.304   2.388  15.198  0.9005  0.0970  1.3912
 8752TIP3   OH247670   0.832   5.222  13.681 -0.3068 -0.1502  0.6597
 8752TIP3    H147671   0.769   5.228  13.609 -0.3461 -1.7769  0.5210
 8752TIP3    H247672   0.908   5.271  13.650  0.4904 -2.5070 -1.4442
 8753TIP3   OH247673   5.736   5.036  11.496  0.1128  0.0025  0.1272
 8753TIP3    H147674   5.709   4.948  11.470  0.0850 -0.0484  0.3315
 8753TIP3    H247675   5.779   5.025  11.581  0.2115  0.1703  0.1009
 8754TIP3   OH247676   2.944   2.100   0.617  0.1489  0.1101 -0.0518
 8754TIP3    H147677   2.856   2.138   0.624 -0.1922 -0.7909  0.7415
 8754TIP3    H247678   2.931   2.018   0.569  0.8039  0.7045 -1.2889
 8755TIP3   OH247679   4.461   2.016  11.598  0.0371 -0.0107 -0.3167
 8755TIP3    H147680   4.506   1.962  11.533  2.1241 -1.1226  1.8796
 8755TIP3    H247681   4.418   2.084  11.547  4.2830  1.2425 -2.7701
 8756TIP3   OH247682   0.571   6.603  16.801  0.1813  0.1319 -0.2809
 8756TIP3    H147683   0.564   6.638  16.712 -1.0330  2.0844  0.5080
 8756TIP3    H247684   0.562   6.680  16.858 -0.7284 -1.2447  1.5660
 8757TIP3   OH247685   4.099   5.236   0.947  0.2391  0.3302 -0.0973
 8757TIP3    H147686   4.141   5.219   1.031  1.8701 -0.3157 -0.9912
 8757TIP3    H247687   4.016   5.280   0.969  0.5242 -0.0287  1.8252
 8758TIP3   OH247688   6.358   6.348   2.782  0.1247  0.2182  0.3300
 8758TIP3    H147689   6.433   6.303   2.743  0.1107 -1.0269  1.6577
 8758TIP3    H247690   6.329   6.290   2.852 -1.7318  0.9624  0.2250
 8759TIP3   OH247691   4.236   0.525  11.323  0.3426  0.2898  0.5134
 8759TIP3    H147692   4.170   0.534  11.392 -1.2724 -2.2255 -0.5613
 8759TIP3    H247693   4.208   0.588  11.256 -1.3611 -1.0908 -0.1466
 8760TIP3   OH247694   4.357   3.321  16.587 -0.7910  0.5412 -0.9228
 8760TIP3    H147695   4.371   3.337  16.680  0.5676 -0.1155 -0.9931
 8760TIP3    H247696   4.304   3.395  16.557  0.1397  1.6175  0.0207
 8761TIP3   OH247697   0.680   3.802  13.814 -0.4327 -0.1347  0.2407
 8761TIP3    H147698   0.642   3.878  13.858 -0.5437 -0.3974  0.6070
 8761TIP3    H247699   0.753   3.775  13.870  0.8181  0.8355 -0.8601
 8762TIP3   OH247700   0.706   1.074  16.042  0.5065  0.0652  0.3124
 8762TIP3    H147701   0.621   1.057  16.082  0.5508 -0.0472  0.3611
 8762TIP3    H247702   0.766   1.085  16.116  0.2423  1.7613  0.3111
 8763TIP3   OH247703   5.233   0.036  14.387  0.1792  0.7688  0.5244
 8763TIP3    H147704   5.234  -0.043  14.441  0.4169 -0.5231 -1.2702
 8763TIP3    H247705   5.141   0.056  14.374  0.0525 -0.6752 -0.9917
 8764TIP3   OH247706   3.938   0.787   2.417 -0.6519 -0.1191 -0.8489
 8764TIP3    H147707   4.006   0.780   2.484 -0.0524 -0.1501 -1.4512
 8764TIP3    H247708   3.921   0.881   2.411 -1.2525 -0.1683 -0.1305
 8765TIP3   OH247709   2.777   5.663   6.820  0.4831  0.0861 -0.0734
 8765TIP3    H147710   2.735   5.610   6.888 -0.0735  1.1686  0.4646
 8765TIP3    H247711   2.726   5.646   6.741 -0.3304  0.5685  0.3321
 8766TIP3   OH247712   2.987   4.512   0.929 -0.4388  0.1156 -0.1721
 8766TIP3    H147713   3.052   4.553   0.871  1.1327  1.0848  2.1157
 8766TIP3    H247714   2.910   4.568   0.922  0.3545  1.2656 -0.0059
 8767TIP3   OH247715   1.927   1.524   5.581  0.5160  0.0563  0.7373
 8767TIP3    H147716   1.839   1.496   5.556  0.0381  1.9790  0.1622
 8767TIP3    H247717   1.930   1.511   5.676 -0.6627  0.6609  0.8782
 8768TIP3   OH247718   3.419   0.495   3.567 -0.5826  0.3389 -0.5714
 8768TIP3    H147719   3.508   0.461   3.580 -0.0274  1.2185 -1.8877
 8768TIP3    H247720   3.430   0.591   3.569 -1.5328  0.4552 -0.5997
 8769TIP3   OH247721   1.088   6.262   1.573  0.5274  0.5594  0.7556
 8769TIP3    H147722   1.095   6.224   1.661 -0.4767 -1.5138  0.0050
 8769TIP3    H247723   1.157   6.218   1.523 -1.3624 -1.2503 -0.4111
 8770TIP3   OH247724   4.795   3.364   5.984  0.4224 -0.3392 -0.1082
 8770TIP3    H147725   4.725   3.343   6.046  0.8233 -2.0283 -0.1891
 8770TIP3    H247726   4.754   3.424   5.922 -0.7264 -0.6470  0.3129
 8771TIP3   OH247727   2.855   0.719  13.255  0.3547 -0.6155 -0.3156
 8771TIP3    H147728   2.791   0.729  13.184 -1.5421  1.8299  1.5108
 8771TIP3    H247729   2.804   0.682  13.327  1.2739  0.2450  0.8169
 8772TIP3   OH247730   4.579   0.939   6.279 -0.2251 -0.5737  0.6315
 8772TIP3    H147731   4.589   0.993   6.358 -1.0824 -0.2757  0.5517
 8772TIP3    H247732   4.510   0.877   6.302  1.7291 -2.6437  1.2269
 8773TIP3   OH247733   3.060   3.098  10.663  0.0092  0.3536  0.0751
 8773TIP3    H147734   3.080   3.004  10.664 -0.9143  0.1101 -1.7009
 8773TIP3    H247735   3.117   3.134  10.731 -0.5961 -1.6665  1.7715
 8774TIP3   OH247736   3.785   2.261   2.566  0.1800 -0.0239  0.3523
 8774TIP3    H147737   3.802   2.226   2.479 -1.2451  2.6140 -1.1092
 8774TIP3    H247738   3.691   2.279   2.567  0.6081  2.6031  1.3367
 8775TIP3   OH247739   5.179   6.630   3.532  0.2391 -0.6060  0.3243
 8775TIP3    H147740   5.099   6.682   3.538 -0.4896 -1.7070  0.6267
 8775TIP3    H247741   5.203   6.632   3.440  0.4538  0.5730  0.3942
 8776TIP3   OH247742   1.748   1.760   6.357 -0.1290 -0.1025  0.0483
 8776TIP3    H147743   1.743   1.747   6.263  2.9424 -0.2661 -0.2201
 8776TIP3    H247744   1.767   1.853   6.367  0.0703 -0.1826  0.4437
 8777TIP3   OH247745   3.673   1.021   1.853  0.4838 -0.1416 -0.0686
 8777TIP3    H147746   3.698   0.967   1.928  0.2041 -0.6038 -0.3013
 8777TIP3    H247747   3.751   1.023   1.798  0.2832 -0.9067 -0.4013
 8778TIP3   OH247748   5.006   0.520  17.036 -0.2067 -0.4726  0.1827
 8778TIP3    H147749   5.039   0.586  16.974 -0.7733 -0.7178 -0.3859
 8778TIP3    H247750   4.937   0.474  16.988  0.8766 -2.1867  0.1838
 8779TIP3   OH247751   3.514   3.720  14.314  0.9208  0.1228 -0.3262
 8779TIP3    H147752   3.601   3.761  14.311  2.2350 -2.4775 -2.2136
 8779TIP3    H247753   3.460   3.775  14.257  1.5291  1.2923  0.1796
 8780TIP3   OH247754   0.050   1.797  15.658 -0.1163  0.2812 -0.0582
 8780TIP3    H147755   0.053   1.816  15.565  0.6401 -0.1189 -0.1268
 8780TIP3    H247756   0.118   1.731  15.671 -0.3158  0.2228  0.7494
 8781TIP3   OH247757   6.076   6.202   2.426 -0.1587  0.0872  0.6182
 8781TIP3    H147758   6.064   6.293   2.456 -1.0864 -0.1398  0.9661
 8781TIP3    H247759   6.105   6.155   2.503 -1.7886 -0.3381  1.0085
 8782TIP3   OH247760   1.023   1.682  15.524  0.6371  0.8907  0.4125
 8782TIP3    H147761   0.941   1.648  15.488  0.8949 -0.7317  1.2566
 8782TIP3    H247762   1.091   1.629  15.483  1.1310  0.9648  1.1201
 8783TIP3   OH247763   4.628   3.581  13.514 -1.3495  0.2783  0.5723
 8783TIP3    H147764   4.675   3.532  13.447 -1.7662  0.3383  0.2297
 8783TIP3    H247765   4.558   3.522  13.542 -1.1086  0.2113  1.0360
 8784TIP3   OH247766   6.505   0.096  13.128 -0.1071 -0.4211 -0.0790
 8784TIP3    H147767   6.438   0.106  13.196 -1.1068 -0.9501 -0.9490
 8784TIP3    H247768   6.560   0.024  13.159 -0.4448 -0.5310  0.2693
 8785TIP3   OH247769   0.619   3.785   3.560 -0.2796  0.4690  0.4830
 8785TIP3    H147770   0.572   3.709   3.524  2.0520 -0.8368  0.0135
 8785TIP3    H247771   0.708   3.753   3.575  0.5487  2.9011  1.1404
 8786TIP3   OH247772   4.975   2.546   3.707 -0.2025  0.4690 -0.1167
 8786TIP3    H147773   5.027   2.626   3.703  1.0396 -0.3254 -0.7671
 8786TIP3    H247774   4.936   2.546   3.794  3.1295 -0.1935  1.5348
 8787TIP3   OH247775   0.811   6.473  15.803  0.7024  0.9503 -0.1225
 8787TIP3    H147776   0.902   6.501  15.801  0.9716  0.1556  0.3063
 8787TIP3    H247777   0.771   6.515  15.727  1.6436  0.6051 -0.8321
 8788TIP3   OH247778   5.321   6.073  13.297  0.5800  0.2988  0.1151
 8788TIP3    H147779   5.262   6.004  13.269  1.0107  0.4837 -1.3205
 8788TIP3    H247780   5.402   6.028  13.322  1.1447  0.2931 -1.5829
 8789TIP3   OH247781   5.386   3.100  13.948 -0.2513 -0.5984 -0.4733
 8789TIP3    H147782   5.379   3.153  13.869  2.7548 -0.0692 -0.5004
 8789TIP3    H247783   5.444   3.028  13.924  0.1725 -0.8047  1.0712
 8790TIP3   OH247784   1.888   3.509  13.554  0.2962 -0.0529  0.3605
 8790TIP3    H147785   1.803   3.467  13.561 -0.4604  1.6327  2.1660
 8790TIP3    H247786   1.873   3.586  13.500  0.5131  0.5951  1.2061
 8791TIP3   OH247787   6.767   1.871   1.119 -0.2261  0.6223 -0.3871
 8791TIP3    H147788   6.722   1.937   1.171 -1.2549  0.4468 -1.0136
 8791TIP3    H247789   6.770   1.909   1.031  0.7132  0.5518 -0.3938
 8792TIP3   OH247790   0.367   6.001  14.983 -0.5539 -0.0744  0.0762
 8792TIP3    H147791   0.424   6.059  15.034  0.1924 -0.2092 -0.5899
 8792TIP3    H247792   0.418   5.921  14.971 -1.0735 -0.3799 -0.1146
 8793TIP3   OH247793   4.813   0.597  13.946  0.5125  0.5522  0.4349
 8793TIP3    H147794   4.795   0.514  13.989 -0.3918  1.0057  0.9673
 8793TIP3    H247795   4.909   0.601  13.939  0.5964 -0.1958  1.0649
 8794TIP3   OH247796   1.423   3.618   3.965  0.6723 -0.5402 -0.3409
 8794TIP3    H147797   1.459   3.617   4.054  0.9377 -3.4237 -0.4118
 8794TIP3    H247798   1.328   3.626   3.978  0.8523  2.4334 -0.0179
 8795TIP3   OH247799   4.892   2.186  17.212  1.0433  0.6249 -0.3494
 8795TIP3    H147800   4.914   2.170  17.304  0.5080  1.0143 -0.1516
 8795TIP3    H247801   4.810   2.139  17.199  0.5028  1.5581 -0.3075
 8796TIP3   OH247802   3.192   0.156   2.945 -0.0876  0.2910 -0.1368
 8796TIP3    H147803   3.113   0.103   2.948  1.2942 -1.9640 -0.8262
 8796TIP3    H247804   3.226   0.143   2.856  2.7606 -1.5986  1.0859
 8797TIP3   OH247805   3.071   1.711   3.131  0.6736  0.0557  0.1325
 8797TIP3    H147806   3.155   1.725   3.174  0.9796 -1.3674  0.0355
 8797TIP3    H247807   3.088   1.725   3.038  0.4853  1.0755  0.2407
 8798TIP3   OH247808   4.140   6.271  12.825 -0.2168 -0.0709 -0.2076
 8798TIP3    H147809   4.133   6.320  12.743 -0.9167 -0.3623 -0.3301
 8798TIP3    H247810   4.057   6.225  12.832 -0.5379  0.6751  1.1384
 8799TIP3   OH247811   3.922   4.729   2.282  0.3853  0.0941  0.2147
 8799TIP3    H147812   3.846   4.672   2.280  1.1432 -0.9674 -1.8438
 8799TIP3    H247813   3.997   4.669   2.285  1.1739  0.9998 -0.5763
 8800TIP3   OH247814   4.121   4.724  14.273 -0.0257  0.3791 -0.1501
 8800TIP3    H147815   4.062   4.713  14.198 -0.7585 -0.4636  0.5435
 8800TIP3    H247816   4.071   4.776  14.336 -1.2681 -2.8008  1.7084
 8801TIP3   OH247817   4.336   5.565  11.843  0.2592  0.4314  0.2018
 8801TIP3    H147818   4.426   5.557  11.875  0.2899  2.4054  0.7529
 8801TIP3    H247819   4.285   5.507  11.899  1.2044 -1.0011 -0.3547
 8802TIP3   OH247820   1.312   0.605   3.224 -0.8096  0.2651  0.1657
 8802TIP3    H147821   1.305   0.523   3.273  1.2939  0.6063  1.1350
 8802TIP3    H247822   1.234   0.605   3.167 -0.4187 -2.8280 -0.5710
 8803TIP3   OH247823   3.560   0.908  12.977 -0.0875  0.0965  0.5157
 8803TIP3    H147824   3.485   0.849  12.968  0.9711 -1.1223 -0.7266
 8803TIP3    H247825   3.623   0.876  12.913  0.5006  2.6538 -0.3090
 8804TIP3   OH247826   1.001   0.474   4.556  0.0761 -0.0999  0.0886
 8804TIP3    H147827   1.017   0.513   4.642 -0.9942 -2.6880  1.5726
 8804TIP3    H247828   1.069   0.511   4.500  2.0296  0.2593  2.5283
 8805TIP3   OH247829   2.777   1.378   1.196  0.2543  0.0924 -0.4308
 8805TIP3    H147830   2.808   1.304   1.248 -0.9709  0.0014  0.1956
 8805TIP3    H247831   2.788   1.349   1.105  0.5264 -0.5442 -0.2051
 8806TIP3   OH247832   0.477   3.049   3.574  0.6682  0.9870 -0.5391
 8806TIP3    H147833   0.568   3.044   3.546  0.6865 -1.1268 -0.2618
 8806TIP3    H247834   0.426   3.045   3.493  0.7709  2.9586 -0.7597
 8807TIP3   OH247835   2.931   0.462   4.268 -0.4982 -0.0984  0.4218
 8807TIP3    H147836   2.988   0.396   4.227  1.4008  0.3149  2.1939
 8807TIP3    H247837   2.897   0.513   4.195  0.1242 -1.3930 -0.8235
 8808TIP3   OH247838   6.741   2.135   2.965  0.0150 -0.1158  0.3448
 8808TIP3    H147839   6.833   2.128   2.939 -0.2387  0.1235 -0.6929
 8808TIP3    H247840   6.694   2.145   2.882 -0.7745  1.7276  0.9638
 8809TIP3   OH247841   3.312   0.804   5.819 -0.3169 -0.1155 -0.1107
 8809TIP3    H147842   3.281   0.863   5.750 -0.2088 -1.6814 -1.5570
 8809TIP3    H247843   3.406   0.822   5.827 -0.7294  1.7729  1.4199
 8810TIP3   OH247844   6.570   3.910  13.682  0.4092  0.5670 -0.1215
 8810TIP3    H147845   6.664   3.895  13.690  0.6134  1.2526 -0.9908
 8810TIP3    H247846   6.543   3.943  13.767  0.9694  0.4006  0.1234
 8811TIP3   OH247847   2.806   5.642   3.563  0.0468  0.7056 -0.2513
 8811TIP3    H147848   2.898   5.664   3.582 -0.8324  2.8248  1.9769
 8811TIP3    H247849   2.793   5.671   3.473  1.2253  1.5629 -0.1739
 8812TIP3   OH247850   6.326   4.746   4.760 -0.9387  0.0074  0.4756
 8812TIP3    H147851   6.340   4.816   4.696 -1.8455 -1.2378 -1.1468
 8812TIP3    H247852   6.231   4.741   4.769 -0.8394  0.6450  2.5544
 8813TIP3   OH247853   2.665   2.186   3.491  0.0816  0.2705 -0.1448
 8813TIP3    H147854   2.681   2.114   3.430  0.6835  0.9938 -0.8714
 8813TIP3    H247855   2.611   2.248   3.442 -0.7009  0.1814  0.5809
 8814TIP3   OH247856   1.156   0.786   1.047 -0.1410  0.7711  0.2382
 8814TIP3    H147857   1.072   0.757   1.012  0.0596  1.3270 -0.7464
 8814TIP3    H247858   1.156   0.756   1.138  0.7041 -3.8458 -0.9816
 8815TIP3   OH247859   0.249   5.314  12.597  0.2775  1.2270  0.0131
 8815TIP3    H147860   0.337   5.284  12.576 -0.4952 -0.2087 -1.4245
 8815TIP3    H247861   0.207   5.239  12.640 -0.8045  1.2327 -0.9889
 8816TIP3   OH247862   0.201   1.698   2.207  0.0677  0.4276 -0.0122
 8816TIP3    H147863   0.281   1.748   2.198  0.0202  0.6772  0.8206
 8816TIP3    H247864   0.156   1.738   2.282 -0.2788 -0.4389  0.2588
 8817TIP3   OH247865   1.543   2.745  10.393 -0.5313  0.2241  0.1220
 8817TIP3    H147866   1.544   2.650  10.383 -0.5598  0.2637 -0.2593
 8817TIP3    H247867   1.452   2.770  10.379 -0.3265  0.4273 -0.9648
 8818TIP3   OH247868   0.897   6.669  14.932 -0.8852 -0.3443  0.2339
 8818TIP3    H147869   0.840   6.614  14.879 -1.4204 -0.8296  1.2881
 8818TIP3    H247870   0.906   6.622  15.015  0.9653 -0.2130  0.1336
 8819TIP3   OH247871   0.272   2.949  14.769  0.8040 -0.0717 -0.5058
 8819TIP3    H147872   0.214   2.888  14.813  1.7228 -2.0711 -1.8716
 8819TIP3    H247873   0.343   2.964  14.831  0.5351 -0.3441 -0.1296
 8820TIP3   OH247874   3.611   4.170   4.911 -0.1520 -0.4500 -0.0186
 8820TIP3    H147875   3.607   4.194   5.004  2.0115  4.0571 -0.8427
 8820TIP3    H247876   3.521   4.181   4.880 -0.0337  3.8095  0.5471
 8821TIP3   OH247877   3.566   1.012  10.564 -0.0611 -0.5663 -0.1565
 8821TIP3    H147878   3.486   0.991  10.611 -0.0213 -1.5702 -0.5133
 8821TIP3    H247879   3.543   1.087  10.509 -0.7816 -0.8908 -0.3062
 8822TIP3   OH247880   2.818   6.332   3.104 -0.1165  0.5102 -0.7368
 8822TIP3    H147881   2.760   6.408   3.103 -1.5957 -0.4902 -3.8152
 8822TIP3    H247882   2.760   6.257   3.091  1.4855 -1.0071  0.3249
 8823TIP3   OH247883   0.411   1.465  13.860  0.3487 -0.1284  0.0527
 8823TIP3    H147884   0.416   1.442  13.768 -1.0989  1.6068 -0.5178
 8823TIP3    H247885   0.373   1.553  13.861  0.8154  0.1160  2.2825
 8824TIP3   OH247886   1.057   3.487  13.276 -0.0345  0.1079  0.1381
 8824TIP3    H147887   0.973   3.448  13.253 -1.4989  0.7459  3.7290
 8824TIP3    H247888   1.116   3.413  13.285 -0.6414 -0.5028 -0.7062
 8825TIP3   OH247889   1.535   2.628   3.844 -0.2084 -0.0956  0.2934
 8825TIP3    H147890   1.586   2.587   3.774  1.0402  1.1642  0.4166
 8825TIP3    H247891   1.562   2.583   3.924 -2.3129 -2.1713 -0.0594
 8826TIP3   OH247892   4.651   5.281  12.402 -0.1029 -0.1464 -0.3223
 8826TIP3    H147893   4.683   5.315  12.485 -0.0981  0.3403 -0.5155
 8826TIP3    H247894   4.634   5.360  12.349 -0.8731 -0.4193 -0.4958
 8827TIP3   OH247895   5.648   0.622   5.379  0.0030 -0.0630 -0.3141
 8827TIP3    H147896   5.603   0.603   5.462  0.3962 -0.5340 -0.2023
 8827TIP3    H247897   5.720   0.559   5.376 -0.4447 -0.5491 -1.3605
 8828TIP3   OH247898   3.756   4.196   2.186  0.3099  0.0360 -0.2701
 8828TIP3    H147899   3.824   4.140   2.223 -0.4753 -0.2743  0.7682
 8828TIP3    H247900   3.799   4.242   2.114  0.9159 -2.0119 -1.2629
 8829TIP3   OH247901   5.278   0.413  15.761  0.1390  0.1833  0.1537
 8829TIP3    H147902   5.349   0.377  15.707  0.4899  0.2481  0.5605
 8829TIP3    H247903   5.198   0.392  15.713  0.4817  0.7796 -0.6917
 8830TIP3   OH247904   5.313   3.043  13.539 -0.7054 -0.2810  0.0065
 8830TIP3    H147905   5.315   2.986  13.616 -1.1375 -0.5722 -0.2001
 8830TIP3    H247906   5.338   2.986  13.467  0.3166  0.1349  0.0142
 8831TIP3   OH247907   2.489   3.381   3.788  0.2705 -0.8373 -0.2171
 8831TIP3    H147908   2.562   3.387   3.851 -1.5709 -0.0004  1.9627
 8831TIP3    H247909   2.527   3.411   3.705  2.1782  0.4780  1.0408
 8832TIP3   OH247910   3.326   0.949   0.535 -0.6668 -0.1211 -0.3145
 8832TIP3    H147911   3.407   0.920   0.577 -0.7361 -0.9256 -0.7093
 8832TIP3    H247912   3.330   1.045   0.536  0.2175 -0.1585 -0.2046
 8833TIP3   OH247913   0.447   0.012   3.053 -0.7622  0.0468  0.0405
 8833TIP3    H147914   0.456   0.095   3.006  2.5160 -0.1527  0.1050
 8833TIP3    H247915   0.366  -0.026   3.019 -0.3018  1.4502 -2.9590
 8834TIP3   OH247916   0.114   1.430   6.407 -0.7328 -0.6159  0.2261
 8834TIP3    H147917   0.061   1.460   6.481  0.3209  0.2287  0.6806
 8834TIP3    H247918   0.057   1.372   6.357 -1.8542 -0.2352  1.0384
 8835TIP3   OH247919   0.558   1.757   0.666  0.4786 -0.0264  0.0694
 8835TIP3    H147920   0.614   1.787   0.737 -1.3208  2.8523  0.4297
 8835TIP3    H247921   0.592   1.803   0.589  0.4243 -0.6207 -0.3165
 8836TIP3   OH247922   3.682   2.375  12.917 -0.3716 -0.2706  0.2608
 8836TIP3    H147923   3.601   2.335  12.887 -1.6214  1.9874  0.4244
 8836TIP3    H247924   3.748   2.345  12.854 -1.8885  0.0643 -1.5965
 8837TIP3   OH247925   3.058   3.618   2.269  0.2459 -0.4504 -0.3918
 8837TIP3    H147926   2.985   3.664   2.310  0.2275 -1.1360  0.3568
 8837TIP3    H247927   3.046   3.635   2.175 -0.2982  0.2732 -0.2053
 8838TIP3   OH247928   0.553   1.963  17.027  0.0513  0.2413 -0.0262
 8838TIP3    H147929   0.525   1.938  16.939 -0.6991 -0.9729  0.5328
 8838TIP3    H247930   0.471   1.986  17.072  0.4424  0.9861  0.3321
 8839TIP3   OH247931   5.322   1.004  13.015 -1.2399 -0.5511  0.1173
 8839TIP3    H147932   5.408   0.977  13.046 -2.5796 -2.6641  2.4175
 8839TIP3    H247933   5.308   1.090  13.055  0.1589  0.2875 -1.1264
 8840TIP3   OH247934   6.304   1.524  16.724  0.1835 -0.1771 -0.4122
 8840TIP3    H147935   6.360   1.467  16.671 -0.2541  0.0885 -1.1856
 8840TIP3    H247936   6.262   1.464  16.787  2.8969 -0.1041  1.6568
 8841TIP3   OH247937   3.532   6.008   3.813  0.1620  0.5123 -0.3557
 8841TIP3    H147938   3.623   6.037   3.823  0.0192  1.4262 -1.4449
 8841TIP3    H247939   3.515   5.953   3.890  2.3683 -1.6210 -1.2608
 8842TIP3   OH247940   6.521   1.017   5.911  0.2485  0.3295 -0.0963
 8842TIP3    H147941   6.429   1.043   5.912  0.2737  0.5584 -1.4746
 8842TIP3    H247942   6.546   1.013   6.003 -0.6120  2.1891  0.2659
 8843TIP3   OH247943   6.220   0.940  11.556 -0.4240 -0.0669  0.1195
 8843TIP3    H147944   6.242   0.995  11.482  1.6723 -1.2165 -0.1873
 8843TIP3    H247945   6.185   1.000  11.622  1.9765  1.7064 -0.0971
 8844TIP3   OH247946   2.311   4.670  15.310  0.1064 -0.1124  0.0631
 8844TIP3    H147947   2.219   4.647  15.299  0.3356 -0.9490 -0.1482
 8844TIP3    H247948   2.359   4.603  15.261  0.8955 -0.5888  1.4066
 8845TIP3   OH247949   4.286   0.671  16.512 -0.2074  0.1836  0.0596
 8845TIP3    H147950   4.352   0.619  16.466 -1.9627 -1.4174 -0.7847
 8845TIP3    H247951   4.336   0.719  16.579  1.7980 -0.8319 -0.6121
 8846TIP3   OH247952   2.707   1.211  10.747 -0.1999 -0.6517 -0.0436
 8846TIP3    H147953   2.742   1.133  10.705  0.7249  0.0219 -0.5673
 8846TIP3    H247954   2.724   1.282  10.685  0.2623  0.1939  1.0081
 8847TIP3   OH247955   1.421   3.381  16.853 -0.0339  0.2074  0.7198
 8847TIP3    H147956   1.361   3.442  16.811 -0.7987 -0.9577  0.0523
 8847TIP3    H247957   1.491   3.436  16.887 -1.3950  1.5919  1.3897
 8848TIP3   OH247958   3.109   1.758  13.084 -0.2928  0.1838  0.5446
 8848TIP3    H147959   3.188   1.705  13.075 -0.4750  0.1416 -0.9233
 8848TIP3    H247960   3.064   1.720  13.160 -0.2314 -1.5371 -0.2315
 8849TIP3   OH247961   3.648   2.363  14.936 -0.0231 -0.2267  0.1224
 8849TIP3    H147962   3.587   2.324  14.999  2.4217 -1.5651  1.7976
 8849TIP3    H247963   3.625   2.456  14.935 -0.7355 -0.3322  2.3216
 8850TIP3   OH247964   3.979   6.087   2.355 -0.6919 -0.6376 -0.2098
 8850TIP3    H147965   4.026   6.080   2.439  0.3311  0.8723 -0.6006
 8850TIP3    H247966   3.934   6.003   2.345  0.0365 -1.2522  1.3376
 8851TIP3   OH247967   6.424   0.754  12.164  0.2934  0.0486 -0.9797
 8851TIP3    H147968   6.342   0.799  12.181  1.3887  1.2324  1.8159
 8851TIP3    H247969   6.478   0.818  12.117  0.9127  0.7377  0.6140
 8852TIP3   OH247970   4.862   3.534  12.983  0.2886 -0.0661 -0.3295
 8852TIP3    H147971   4.786   3.575  12.941  0.0331 -0.8395 -0.6442
 8852TIP3    H247972   4.848   3.440  12.971  1.7479 -0.2019 -1.2011
 8853TIP3   OH247973   2.957   1.598  14.216  0.6625 -0.9709 -0.3816
 8853TIP3    H147974   3.047   1.615  14.188  1.2419 -0.4713  1.6802
 8853TIP3    H247975   2.903   1.633  14.145  2.0665 -0.5579 -1.2757
 8854TIP3   OH247976   1.612   2.431   4.030 -0.2690  0.1322  0.1028
 8854TIP3    H147977   1.658   2.422   4.114 -1.9799  0.4921  1.1328
 8854TIP3    H247978   1.636   2.353   3.981  1.4220  0.3141  0.5819
 8855TIP3   OH247979   4.639   2.080   5.320  0.4106  0.6358 -0.3469
 8855TIP3    H147980   4.566   2.142   5.334 -0.0618  0.3361 -1.3931
 8855TIP3    H247981   4.600   1.994   5.334  1.0802  0.5343  1.1492
 8856TIP3   OH247982   6.558   4.355   5.171 -0.0343  0.1699  0.6799
 8856TIP3    H147983   6.475   4.311   5.185  0.2594 -0.9218 -0.7718
 8856TIP3    H247984   6.579   4.395   5.256 -1.9856  0.4185  1.0713
 8857TIP3   OH247985   3.566   3.321   2.217  0.2002 -0.3958  1.0575
 8857TIP3    H147986   3.609   3.284   2.294  0.3667  0.4750  1.3886
 8857TIP3    H247987   3.482   3.353   2.250  0.7442  1.0092  1.1302
 8858TIP3   OH247988   4.077   4.442   3.532 -0.0076  0.1992 -0.3547
 8858TIP3    H147989   4.057   4.372   3.471 -1.5860  0.3661 -0.0675
 8858TIP3    H247990   4.032   4.418   3.613  0.2869  1.0309  0.0740
 8859TIP3   OH247991   5.201   0.675   0.574  0.1081 -0.1855  0.3788
 8859TIP3    H147992   5.200   0.628   0.657 -0.7262  0.1409  0.5666
 8859TIP3    H247993   5.247   0.616   0.514  1.7533  0.0773  1.3339
 8860TIP3   OH247994   5.261   2.067  13.976  0.0162  0.3489 -0.6736
 8860TIP3    H147995   5.236   1.975  13.967 -2.2450  0.6627  1.3633
 8860TIP3    H247996   5.356   2.065  13.988  0.1407 -1.6002 -1.5641
 8861TIP3   OH247997   1.237   4.870   5.863 -0.0449  0.1723 -0.3106
 8861TIP3    H147998   1.291   4.802   5.820  0.8966  0.6704  0.0501
 8861TIP3    H247999   1.301   4.924   5.910 -1.0421 -0.3841  1.7966
 8862TIP3   OH248000   2.003   4.869  15.274 -0.0349 -0.1113  0.3735
 8862TIP3    H148001   2.021   4.835  15.361  0.8113 -2.5209 -0.6540
 8862TIP3    H248002   2.081   4.920  15.251 -0.0774  0.1634  0.8259
 8863TIP3   OH248003   2.036   3.323  16.310 -0.5356  0.1518 -0.3077
 8863TIP3    H148004   1.978   3.375  16.367 -1.7454 -0.8197 -0.6072
 8863TIP3    H248005   2.083   3.389  16.259 -1.1268  0.9937  0.1923
 8864TIP3   OH248006   2.226   1.275   1.824 -0.3333  0.4633  0.2567
 8864TIP3    H148007   2.159   1.333   1.789 -1.3068  0.7416  2.4218
 8864TIP3    H248008   2.198   1.187   1.798  0.8706  0.8201 -2.5797
 8865TIP3   OH248009   4.805   0.751   6.368 -0.6817 -0.1692  0.5490
 8865TIP3    H148010   4.796   0.661   6.338 -1.2378  0.1019 -0.1280
 8865TIP3    H248011   4.715   0.784   6.373 -0.3963  1.0101 -1.3232
 8866TIP3   OH248012   2.710   3.805   4.234 -0.5234 -0.4884 -0.0178
 8866TIP3    H148013   2.632   3.817   4.287  0.0686  0.4663  0.6764
 8866TIP3    H248014   2.782   3.804   4.298  0.2971  1.5807 -0.8292
 8867TIP3   OH248015   1.446   4.810  14.995  0.1554  0.3741  0.0243
 8867TIP3    H148016   1.517   4.799  14.932 -0.2967 -0.9725 -0.2835
 8867TIP3    H248017   1.451   4.902  15.022  2.3789  0.1646  0.4737
 8868TIP3   OH248018   5.874   6.256  17.248  0.0617  0.4080  0.6134
 8868TIP3    H148019   5.815   6.330  17.233  0.1727  0.6674  1.4201
 8868TIP3    H248020   5.946   6.270  17.187 -1.1443 -0.4275 -1.0759
 8869TIP3   OH248021   5.303   5.222  13.165  0.9669  0.4583  0.6191
 8869TIP3    H148022   5.289   5.218  13.070  0.3437 -1.7998  0.7525
 8869TIP3    H248023   5.241   5.158  13.201  1.2221  1.2334  2.5692
 8870TIP3   OH248024   4.874   0.758   0.196  0.3609 -0.2935 -0.2528
 8870TIP3    H148025   4.806   0.715   0.146 -0.4387  0.6056  0.0228
 8870TIP3    H248026   4.833   0.838   0.229  1.3319 -0.0880  0.5224
 8871TIP3   OH248027   5.800   2.088  13.748 -0.4418  0.7843  0.3662
 8871TIP3    H148028   5.734   2.023  13.774 -1.0080  1.4613  0.6640
 8871TIP3    H248029   5.762   2.131  13.672 -0.0092  0.6899  0.0911
 8872TIP3   OH248030   5.351   5.355  16.782  0.6092 -0.1051  0.7896
 8872TIP3    H148031   5.275   5.327  16.730  1.3563 -0.8913  0.0921
 8872TIP3    H248032   5.360   5.288  16.849  1.1991 -0.4754  0.3438
 8873TIP3   OH248033   2.981   0.266  16.038 -0.7117 -0.3626  0.1218
 8873TIP3    H148034   2.933   0.183  16.037  0.1338 -0.8730  0.7790
 8873TIP3    H248035   3.044   0.258  15.966  0.4321 -0.9489  1.1648
 8874TIP3   OH248036   3.919   2.553  15.315 -0.1060  0.3174  0.4401
 8874TIP3    H148037   3.850   2.567  15.380 -1.7179 -0.4761 -0.9985
 8874TIP3    H248038   3.917   2.458  15.299  0.3225  0.4848 -0.6740
 8875TIP3   OH248039   6.523   3.167   2.887 -0.1363  0.1474 -0.1105
 8875TIP3    H148040   6.520   3.243   2.829 -1.4462  0.4062  0.2628
 8875TIP3    H248041   6.582   3.193   2.958 -1.0120  1.0628  0.3128
 8876TIP3   OH248042   4.591   4.985   3.897 -0.9283  0.5848 -0.1358
 8876TIP3    H148043   4.655   5.050   3.924  0.4640 -0.7920  0.0338
 8876TIP3    H248044   4.567   5.011   3.808 -1.7696  2.3103  0.5595
 8877TIP3   OH248045   4.263   4.125   3.510  0.2869  0.2066 -0.2567
 8877TIP3    H148046   4.277   4.041   3.466 -1.1682 -1.1659  1.7436
 8877TIP3    H248047   4.342   4.139   3.562  0.0236 -0.5591  0.3611
 8878TIP3   OH248048   0.053   5.966  11.863  0.2960  0.4332 -0.0631
 8878TIP3    H148049  -0.019   5.933  11.811 -0.3042 -0.4364  1.2645
 8878TIP3    H248050   0.126   5.973  11.802 -0.2525 -0.9750 -0.9253
 8879TIP3   OH248051   2.768   5.099   5.763 -0.2873 -0.1871  0.1899
 8879TIP3    H148052   2.738   5.175   5.813 -0.1159  0.9169 -1.3142
 8879TIP3    H248053   2.849   5.072   5.807 -1.5072 -0.9820  2.1170
 8880TIP3   OH248054   5.594   5.547  15.130 -0.0674 -0.5277 -0.0967
 8880TIP3    H148055   5.657   5.491  15.175 -0.9231 -0.3382  1.4241
 8880TIP3    H248056   5.540   5.487  15.079  1.3223 -0.6859 -1.4351
 8881TIP3   OH248057   4.174   4.857   4.667  0.2380 -0.1521  0.0163
 8881TIP3    H148058   4.205   4.883   4.753  1.0715 -0.0424 -0.3044
 8881TIP3    H248059   4.198   4.930   4.609  0.3856 -0.5570 -0.4418
 8882TIP3   OH248060   4.277   0.107  13.172 -0.7404  0.0243  0.2764
 8882TIP3    H148061   4.362   0.106  13.130 -1.0063 -0.3493 -0.2617
 8882TIP3    H248062   4.217   0.070  13.107 -1.2300 -0.1574  0.8177
 8883TIP3   OH248063   4.422   2.793  15.841 -0.0861  0.6639  0.3166
 8883TIP3    H148064   4.474   2.802  15.761  0.2077 -0.5540  0.3519
 8883TIP3    H248065   4.469   2.846  15.906  1.4407 -0.8075  0.4804
 8884TIP3   OH248066   0.451   3.765  10.578  0.3632  0.8580 -0.5786
 8884TIP3    H148067   0.379   3.786  10.637  0.1921  1.5595 -1.0152
 8884TIP3    H248068   0.411   3.717  10.506  0.2393  1.6356 -1.0439
 8885TIP3   OH248069   3.292   0.014   0.801 -0.0359  0.5436 -0.3030
 8885TIP3    H148070   3.232  -0.000   0.874 -0.1796 -0.3211 -0.5783
 8885TIP3    H248071   3.244   0.073   0.742 -0.3913  0.3040 -0.2545
 8886TIP3   OH248072   0.859   3.235   0.450 -0.0567 -0.1293  0.7870
 8886TIP3    H148073   0.866   3.329   0.436  0.3210 -0.3729 -0.9788
 8886TIP3    H248074   0.765   3.217   0.446 -0.0474 -0.0163 -0.6638
 8887TIP3   OH248075   1.940   6.355   3.171 -0.4652 -0.4934  0.3215
 8887TIP3    H148076   1.872   6.316   3.116 -1.0968  0.2299  0.5711
 8887TIP3    H248077   1.896   6.373   3.254 -0.0204  0.1740  0.4164
 8888TIP3   OH248078   5.098   2.206   1.037 -0.3009  0.8955 -0.2303
 8888TIP3    H148079   5.105   2.270   0.965  0.9330  1.4530  0.3557
 8888TIP3    H248080   5.174   2.224   1.092 -0.3218 -0.6275  0.3369
 8889TIP3   OH248081   2.548   3.853   2.350 -0.4650  0.0677  0.7941
 8889TIP3    H148082   2.516   3.841   2.260 -0.1821  0.9862  0.5611
 8889TIP3    H248083   2.637   3.885   2.340 -0.1988 -0.4625  1.4225
 8890TIP3   OH248084   1.577   0.896  11.648 -0.5807  0.6075  0.2997
 8890TIP3    H148085   1.532   0.906  11.565  0.2630 -0.8374 -0.3693
 8890TIP3    H248086   1.509   0.871  11.710 -1.6708  3.9511  0.6938
 8891TIP3   OH248087   1.600   3.675   5.448  0.0348  0.6445 -0.4313
 8891TIP3    H148088   1.669   3.710   5.504  0.7740  0.5727 -1.2753
 8891TIP3    H248089   1.624   3.703   5.359 -0.3565 -0.4223 -0.8958
 8892TIP3   OH248090   4.207   5.508   0.343  0.5549  0.0092  0.3613
 8892TIP3    H148091   4.293   5.516   0.302 -0.0551  0.1980 -0.9119
 8892TIP3    H248092   4.203   5.417   0.372  1.4583  0.1844  1.1049
 8893TIP3   OH248093   2.117   4.469   1.654  0.3248 -0.1759  0.1231
 8893TIP3    H148094   2.196   4.457   1.706 -0.3673 -2.7796  0.7196
 8893TIP3    H248095   2.086   4.557   1.678  1.9880  0.1392  1.3225
 8894TIP3   OH248096   3.880   5.049  13.479  0.2140 -0.6216 -0.0326
 8894TIP3    H148097   3.925   5.076  13.560  0.8973 -0.7654 -0.3538
 8894TIP3    H248098   3.835   5.128  13.450 -2.8538 -1.3537  2.2410
 8895TIP3   OH248099   4.512   5.713  10.861  0.2751  0.5923 -0.2456
 8895TIP3    H148100   4.592   5.668  10.888 -0.0521  0.5273  0.6547
 8895TIP3    H248101   4.530   5.805  10.876  0.2624  0.5969 -0.2576
 8896TIP3   OH248102   1.110   2.349  13.082 -0.6224 -0.2606 -0.2686
 8896TIP3    H148103   1.050   2.289  13.039 -0.0486  0.2071 -1.7678
 8896TIP3    H248104   1.191   2.342  13.032  0.1135  0.2349  0.8075
 8897TIP3   OH248105   0.474   6.137   4.507 -0.4524  0.1812  0.2882
 8897TIP3    H148106   0.568   6.142   4.491 -0.7667  0.3644 -1.7286
 8897TIP3    H248107   0.447   6.227   4.523 -0.4362  0.2579 -0.1111
 8898TIP3   OH248108   4.601   0.184   0.001 -0.0968 -0.5149 -0.0645
 8898TIP3    H148109   4.696   0.185  -0.009  0.0192 -1.2241  0.8219
 8898TIP3    H248110   4.587   0.165   0.094 -1.1109 -3.4792 -0.7284
 8899TIP3   OH248111   6.690   1.101  11.534  0.0547 -0.5362 -0.5808
 8899TIP3    H148112   6.730   1.163  11.595 -1.6456 -0.3270  0.3725
 8899TIP3    H248113   6.646   1.037  11.589 -0.1443 -1.2930 -1.5824
 8900TIP3   OH248114   6.514   1.104  15.018  0.3127  0.1988  0.5020
 8900TIP3    H148115   6.487   1.065  14.935  0.6355 -0.6256  0.7766
 8900TIP3    H248116   6.475   1.191  15.017 -0.9970 -0.3636  0.1718
 8901TIP3   OH248117   6.311   3.769   4.564  0.1391  0.2540 -0.2196
 8901TIP3    H148118   6.247   3.754   4.633 -0.2307 -1.1976 -0.8421
 8901TIP3    H248119   6.358   3.686   4.556  0.7760  0.6779 -1.1154
 8902TIP3   OH248120   0.654   1.117  13.113  0.2155 -0.0272 -0.1243
 8902TIP3    H148121   0.600   1.038  13.111  0.0959 -0.1735  3.3807
 8902TIP3    H248122   0.593   1.187  13.139  0.8414  0.7309 -0.6446
 8903TIP3   OH248123   2.629   6.085   0.104  0.3117  0.0887 -0.1841
 8903TIP3    H148124   2.623   5.993   0.080 -1.4880  0.2852 -0.6358
 8903TIP3    H248125   2.696   6.088   0.172  2.1564 -1.1728 -1.8714
 8904TIP3   OH248126   1.168   0.387  14.949  0.5116 -0.4246  0.2860
 8904TIP3    H148127   1.179   0.344  14.864  0.5984  0.5272 -0.2024
 8904TIP3    H248128   1.105   0.332  14.996 -0.4143 -0.3579 -0.8296
 8905TIP3   OH248129   0.752   2.331  13.808  0.2061  0.4017 -0.1411
 8905TIP3    H148130   0.822   2.291  13.860 -0.1372 -0.0399 -0.0143
 8905TIP3    H248131   0.757   2.286  13.723  0.1358  0.4350 -0.1629
 8906TIP3   OH248132   6.515   6.011   3.889 -0.6363 -0.1527  0.4983
 8906TIP3    H148133   6.582   6.008   3.821 -0.7868  0.5899  0.3109
 8906TIP3    H248134   6.500   6.104   3.904 -2.8883 -0.2606 -0.6896
 8907TIP3   OH248135   1.797   6.270  15.802  0.0608 -0.0156  0.0178
 8907TIP3    H148136   1.747   6.345  15.834 -0.2402 -0.2673  0.1434
 8907TIP3    H248137   1.887   6.303  15.794  0.3200 -0.1693  1.9261
 8908TIP3   OH248138   2.357   6.590  16.699 -0.0949 -0.0831 -0.6527
 8908TIP3    H148139   2.439   6.541  16.698  0.3735  0.6435 -2.2024
 8908TIP3    H248140   2.342   6.611  16.791  2.4040  1.2308 -0.4602
 8909TIP3   OH248141   5.391   1.982  17.023 -0.0511 -0.0059 -0.2639
 8909TIP3    H148142   5.476   1.986  16.979  0.2574 -0.5345  0.2734
 8909TIP3    H248143   5.331   2.027  16.963  0.6155  0.4315 -0.6114
 8910TIP3   OH248144   1.789   5.060  11.164  0.6619 -0.1169  0.0156
 8910TIP3    H148145   1.783   5.128  11.097  0.3141 -0.1232  0.0354
 8910TIP3    H248146   1.808   4.980  11.116 -1.6840 -0.5297 -0.3394
 8911TIP3   OH248147   6.147   1.603   1.635 -0.1043  0.6244  0.3801
 8911TIP3    H148148   6.241   1.589   1.625 -0.2126 -1.0768  1.2791
 8911TIP3    H248149   6.109   1.568   1.555 -0.0899 -0.9025  0.9963
 8912TIP3   OH248150   6.134   2.988   4.056 -0.8092  0.1311  0.5337
 8912TIP3    H148151   6.084   3.063   4.024  0.3918  0.8084  0.1582
 8912TIP3    H248152   6.212   3.028   4.097 -1.0628 -0.8238  2.0259
 8913TIP3   OH248153   2.762   4.436   5.858 -0.0323  0.4800  0.2033
 8913TIP3    H148154   2.821   4.509   5.838  0.1638  0.1100 -0.5813
 8913TIP3    H248155   2.676   4.477   5.867  0.1294  0.8515  0.0698
 8914TIP3   OH248156   2.079   1.811   0.583 -0.2150 -0.2206 -0.3736
 8914TIP3    H148157   2.004   1.771   0.627  1.7150 -1.9880  1.5909
 8914TIP3    H248158   2.076   1.777   0.494 -0.9451 -1.5020  0.1065
 8915TIP3   OH248159   0.465   3.405  10.506  0.5420  0.1942 -0.2110
 8915TIP3    H148160   0.424   3.353  10.436  2.7622  1.2557 -2.4454
 8915TIP3    H248161   0.391   3.445  10.552 -1.0518 -1.4109 -1.2329
 8916TIP3   OH248162   2.190   3.473  13.850 -0.6004 -0.3607  0.6383
 8916TIP3    H148163   2.262   3.447  13.908  0.7956 -1.2161 -1.3530
 8916TIP3    H248164   2.188   3.568  13.855 -0.7229 -0.4238  2.2890
 8917TIP3   OH248165   6.447   2.243   4.509 -0.2145  1.0220 -0.2089
 8917TIP3    H148166   6.418   2.328   4.478 -0.8819  0.5812 -0.8492
 8917TIP3    H248167   6.420   2.182   4.439 -0.0821  0.2477  0.3975
 8918TIP3   OH248168   3.230   5.206   2.656 -0.8783 -0.0707  0.4850
 8918TIP3    H148169   3.178   5.254   2.720 -1.0808  1.1302 -0.5207
 8918TIP3    H248170   3.194   5.233   2.571  0.3527 -0.4306 -0.1826
 8919TIP3   OH248171   6.128   2.052  10.800  0.2066  0.3875 -0.0731
 8919TIP3    H148172   6.212   2.031  10.758 -0.0767  1.1400 -1.0399
 8919TIP3    H248173   6.151   2.073  10.890  0.8144 -1.4297  0.2445
 8920TIP3   OH248174   0.261   5.407   5.740  0.5965  0.3143 -0.3139
 8920TIP3    H148175   0.217   5.485   5.774 -2.6846 -0.9600 -1.2290
 8920TIP3    H248176   0.326   5.385   5.807 -1.7995  1.0370  2.4190
 8921TIP3   OH248177   1.852   1.655   0.761  0.4529 -0.0606 -0.1145
 8921TIP3    H148178   1.838   1.565   0.792  1.8614  0.0742  1.0205
 8921TIP3    H248179   1.775   1.703   0.790 -0.0508 -0.7757 -0.2484
 8922TIP3   OH248180   4.694   6.347   0.351  0.0255 -0.0636 -0.2030
 8922TIP3    H148181   4.635   6.422   0.339  0.6420  0.8731  2.1417
 8922TIP3    H248182   4.743   6.368   0.430 -0.3425 -3.3547  1.0266
 8923TIP3   OH248183   5.359   3.547  15.745  0.1606  0.3749 -0.2190
 8923TIP3    H148184   5.391   3.459  15.766  0.9688  0.2128 -1.9619
 8923TIP3    H248185   5.291   3.534  15.679  1.6957  1.1064 -2.0418
 8924TIP3   OH248186   2.506   2.187   4.430  0.2802 -0.0381  0.3065
 8924TIP3    H148187   2.525   2.238   4.508  1.8032 -1.5368  0.9776
 8924TIP3    H248188   2.419   2.216   4.402 -0.6257  0.0371  2.9783
 8925TIP3   OH248189   4.749   1.826  14.826 -0.1896 -0.3654  0.6232
 8925TIP3    H148190   4.789   1.913  14.831 -1.4019  0.1369  2.6995
 8925TIP3    H248191   4.800   1.772  14.886 -0.5321 -0.6085  0.7005
 8926TIP3   OH248192   0.607   4.544   1.412  0.4078 -0.1425  0.7859
 8926TIP3    H148193   0.689   4.495   1.411 -0.0524 -0.9219  0.2496
 8926TIP3    H248194   0.620   4.615   1.350  1.2983  0.8117  2.0198
 8927TIP3   OH248195   5.673   3.078  16.364 -0.1934  0.4094 -0.3247
 8927TIP3    H148196   5.622   3.059  16.443  0.5087  2.5044  0.7243
 8927TIP3    H248197   5.748   3.019  16.368 -1.1016 -0.7803 -0.4291
 8928TIP3   OH248198   5.307   6.770  15.635  0.4591 -0.6778  0.4738
 8928TIP3    H148199   5.248   6.780  15.561 -1.8566 -4.0704  1.6178
 8928TIP3    H248200   5.389   6.738  15.597 -1.1434 -3.8209 -0.6672
 8929TIP3   OH248201   0.334   2.905  17.151 -0.4732 -0.1473 -0.6281
 8929TIP3    H148202   0.305   2.975  17.209  2.1443  0.1119  0.5240
 8929TIP3    H248203   0.420   2.934  17.120  1.0440 -3.0780  0.4282
 8930TIP3   OH248204   1.710   4.995   3.111  0.4173 -0.0737 -0.1320
 8930TIP3    H148205   1.680   4.905   3.100 -1.9540  0.6055  0.3459
 8930TIP3    H248206   1.710   5.009   3.206  2.6080 -0.0893 -0.0645
 8931TIP3   OH248207   3.897   6.626   1.598  0.1633 -0.5356  0.3639
 8931TIP3    H148208   3.908   6.719   1.579 -0.1958 -0.1522  1.8452
 8931TIP3    H248209   3.849   6.591   1.524  0.5554  0.3984 -0.3462
 8932TIP3   OH248210   2.166   1.190  16.426 -0.0885 -0.1184  0.1688
 8932TIP3    H148211   2.089   1.165  16.376  0.8049 -0.0528 -1.2779
 8932TIP3    H248212   2.233   1.210  16.361  0.8387  0.8931  1.3630
 8933TIP3   OH248213   0.258   0.922   3.442  0.3718 -0.2768  0.6516
 8933TIP3    H148214   0.322   0.972   3.391 -0.4096  0.8996  0.7897
 8933TIP3    H248215   0.175   0.967   3.428 -0.3204 -1.3829  1.0170
 8934TIP3   OH248216   3.200   2.804   2.769  0.3919 -0.5419 -0.1639
 8934TIP3    H148217   3.244   2.889   2.768 -0.3002 -0.1497  0.6726
 8934TIP3    H248218   3.107   2.826   2.779  0.1677 -1.3887 -0.3114
 8935TIP3   OH248219   1.737   4.472  13.578 -0.2359  0.2083  0.2996
 8935TIP3    H148220   1.691   4.529  13.639 -0.5616 -1.2990  1.5049
 8935TIP3    H248221   1.825   4.511  13.571 -0.8698  1.6383 -0.0262
 8936TIP3   OH248222   5.188   0.643  14.393 -0.2053  0.2999 -0.2652
 8936TIP3    H148223   5.281   0.655  14.373  0.0936  0.6047  1.2308
 8936TIP3    H248224   5.187   0.586  14.470 -1.2843 -0.0216 -0.4957
 8937TIP3   OH248225   0.518   6.165   6.053 -0.1091 -0.0717  0.1440
 8937TIP3    H148226   0.460   6.100   6.092  0.4054 -0.9089 -0.4472
 8937TIP3    H248227   0.462   6.240   6.036 -0.6514 -0.2426  1.1084
 8938TIP3   OH248228   2.138   0.875  14.276  0.2484 -0.0421 -0.3259
 8938TIP3    H148229   2.218   0.915  14.310  0.8934 -0.2177 -1.5762
 8938TIP3    H248230   2.082   0.949  14.254 -0.4374  0.0732  1.6204
 8939TIP3   OH248231   5.638   5.411  15.561  0.7539  0.2293  0.0386
 8939TIP3    H148232   5.710   5.350  15.577 -1.2948 -1.9195  1.9492
 8939TIP3    H248233   5.593   5.417  15.645 -1.6755  0.9269 -1.2191
 8940TIP3   OH248234   5.214   0.962  13.658  0.2265 -0.2036  0.0186
 8940TIP3    H148235   5.128   1.001  13.676 -0.3683 -2.4709  2.8573
 8940TIP3    H248236   5.269   0.988  13.731  0.8057 -1.7882  0.2058
 8941TIP3   OH248237   5.713   6.052   4.082  0.1956 -0.5916  0.0648
 8941TIP3    H148238   5.777   6.017   4.145  0.8921  0.2364 -0.1639
 8941TIP3    H248239   5.765   6.107   4.023 -0.3504 -1.7512 -1.5730
 8942TIP3   OH248240   5.240   3.555  10.417  0.5468  0.4622  0.2752
 8942TIP3    H148241   5.293   3.613  10.363  0.2433 -0.3426 -0.9196
 8942TIP3    H248242   5.294   3.538  10.495  0.9455  1.7135  0.2835
 8943TIP3   OH248243   5.047   2.403  12.769  0.4017 -0.1618 -0.0342
 8943TIP3    H148244   4.974   2.366  12.818 -0.1331  1.0217  0.0949
 8943TIP3    H248245   5.072   2.333  12.708  0.3289 -1.2257  1.1117
 8944TIP3   OH248246   3.188   4.945   2.484  0.0908 -0.8063  0.0241
 8944TIP3    H148247   3.165   4.865   2.531 -1.1829 -0.0479  0.7382
 8944TIP3    H248248   3.141   4.939   2.401 -1.5658  0.0194  0.8442
 8945TIP3   OH248249   0.892   3.069   6.078 -0.2644  0.2087  0.3339
 8945TIP3    H148250   0.833   3.142   6.094 -1.5214 -0.1252 -2.2863
 8945TIP3    H248251   0.872   3.041   5.989  3.5715 -0.2147 -0.5678
 8946TIP3   OH248252   5.336   4.556  17.226  0.3915  0.4063 -0.2784
 8946TIP3    H148253   5.346   4.646  17.257 -0.0003 -0.1049  1.4546
 8946TIP3    H248254   5.243   4.547  17.207  0.5836  0.6294 -1.3828
 8947TIP3   OH248255   1.765   3.152  11.242  0.3608  0.2946 -0.0568
 8947TIP3    H148256   1.772   3.061  11.213  2.8011 -0.5536  2.6414
 8947TIP3    H248257   1.812   3.202  11.175  0.2560 -0.6119 -0.8318
 8948TIP3   OH248258   1.646   5.246   4.704 -0.3277 -0.0514  0.0728
 8948TIP3    H148259   1.718   5.253   4.641 -0.9495 -1.1601 -0.7889
 8948TIP3    H248260   1.640   5.333   4.743 -0.7935  1.0811 -2.3612
 8949TIP3   OH248261   6.210   2.746   2.880  0.1910 -0.7991  0.6632
 8949TIP3    H148262   6.286   2.801   2.859 -1.5918  0.9186 -1.9304
 8949TIP3    H248263   6.160   2.798   2.942 -1.0045  0.1684 -1.0383
 8950TIP3   OH248264   3.332   3.107  14.780 -0.1682 -0.4423  0.0709
 8950TIP3    H148265   3.294   3.045  14.842  1.6590 -1.1162  0.5598
 8950TIP3    H248266   3.357   3.182  14.834 -0.8626  0.0421 -0.2652
 8951TIP3   OH248267   0.769   1.619   5.315 -0.2977 -0.5051  0.0934
 8951TIP3    H148268   0.745   1.588   5.228  1.7498  1.8188 -1.4238
 8951TIP3    H248269   0.692   1.667   5.346 -0.9328 -1.0971 -0.5261
 8952TIP3   OH248270   4.765   6.324  11.359 -0.1553  0.6596 -0.4978
 8952TIP3    H148271   4.683   6.285  11.329  1.0527 -0.4279 -2.5641
 8952TIP3    H248272   4.753   6.418  11.345 -1.7050  0.7399  1.0191
 8953TIP3   OH248273   5.208   4.464   1.322  0.3509 -0.8090  0.0252
 8953TIP3    H148274   5.194   4.480   1.416  2.3772  2.0697 -0.0283
 8953TIP3    H248275   5.231   4.371   1.317  0.9229 -0.8783  2.4814
 8954TIP3   OH248276   3.439   2.734   2.331 -0.0030  0.0811  0.5318
 8954TIP3    H148277   3.444   2.762   2.422 -0.7658  0.8188  0.3591
 8954TIP3    H248278   3.530   2.718   2.306  0.2551  0.3544  1.2735
 8955TIP3   OH248279   1.660   6.332  12.727  0.1755 -0.1465 -0.2030
 8955TIP3    H148280   1.606   6.367  12.656 -0.1992  0.3266  0.3055
 8955TIP3    H248281   1.680   6.408  12.781  2.5850 -0.0167 -1.1475
 8956TIP3   OH248282   6.490   0.885   1.319 -0.6803  0.0675 -0.5391
 8956TIP3    H148283   6.502   0.851   1.230  0.5946 -0.2110 -0.2897
 8956TIP3    H248284   6.411   0.842   1.350 -1.0420  0.0236 -1.4683
 8957TIP3   OH248285   1.389   3.128  14.715  0.0216 -0.2603  0.2021
 8957TIP3    H148286   1.381   3.081  14.798 -0.6209 -0.4908  0.0157
 8957TIP3    H248287   1.479   3.160  14.714  0.3965 -1.2504  0.4702
 8958TIP3   OH248288   0.788   3.771   4.336 -0.1958 -0.5450 -0.1596
 8958TIP3    H148289   0.779   3.697   4.275 -0.4079 -2.2539  1.8541
 8958TIP3    H248290   0.882   3.783   4.345 -0.1455  0.4501 -1.5914
 8959TIP3   OH248291   5.718   1.508  14.302 -0.1290  0.0867  0.4627
 8959TIP3    H148292   5.722   1.498  14.207 -0.8143  1.4520  0.2750
 8959TIP3    H248293   5.753   1.425  14.336  1.0380 -0.0468 -0.9694
 8960TIP3   OH248294   6.682   2.060  13.307 -0.1607 -0.1476 -0.0853
 8960TIP3    H148295   6.706   2.063  13.215 -1.9426 -1.9573 -0.6922
 8960TIP3    H248296   6.598   2.107  13.311 -0.8635 -1.3805  0.2802
 8961TIP3   OH248297   3.041   2.046   5.192  0.1094 -0.2440  0.8223
 8961TIP3    H148298   2.995   2.037   5.275  0.3315 -2.4143  0.7756
 8961TIP3    H248299   3.134   2.053   5.217  0.2774 -1.9189  0.7752
 8962TIP3   OH248300   1.399   5.489   1.549 -0.1152  0.1078 -0.3129
 8962TIP3    H148301   1.314   5.450   1.569 -0.3029  0.2520 -0.8238
 8962TIP3    H248302   1.380   5.582   1.534  0.2167  0.2530  0.1356
 8963TIP3   OH248303   4.718   3.867   0.105 -0.2702 -0.1533  0.3720
 8963TIP3    H148304   4.703   3.854   0.011 -0.7638  1.0838  0.2562
 8963TIP3    H248305   4.812   3.857   0.116  0.1892  2.1332 -0.7380
 8964TIP3   OH248306   1.766   0.468   1.941 -0.0237 -0.2051 -0.3848
 8964TIP3    H148307   1.715   0.434   2.014 -0.2520 -0.8602 -0.8392
 8964TIP3    H248308   1.856   0.467   1.972 -0.1589 -0.1462  0.0110
 8965TIP3   OH248309   5.141   4.705   2.155 -0.2840 -0.0321 -0.7043
 8965TIP3    H148310   5.085   4.754   2.215 -1.5042 -0.5274 -1.4050
 8965TIP3    H248311   5.176   4.633   2.209 -0.5729  0.0988 -0.3329
 8966TIP3   OH248312   1.562   6.582  13.642 -0.1103 -0.0780  0.6345
 8966TIP3    H148313   1.471   6.609  13.632 -0.2270 -1.1452 -1.7369
 8966TIP3    H248314   1.608   6.627  13.571  0.4800 -2.5146 -0.6069
 8967TIP3   OH248315   3.333   4.052  12.260  0.3900  0.5577  0.1408
 8967TIP3    H148316   3.417   4.053  12.307 -0.3004 -1.2875  1.5465
 8967TIP3    H248317   3.279   4.115  12.306  0.3685  0.2355  0.5676
 8968TIP3   OH248318   3.606   6.086  15.703 -0.0258  0.6517 -0.4201
 8968TIP3    H148319   3.667   6.078  15.776  0.4891 -2.6944 -1.0423
 8968TIP3    H248320   3.521   6.099  15.745  0.4667  0.4024  0.7117
 8969TIP3   OH248321   4.279   0.144  15.158  0.4820  0.1614  0.0690
 8969TIP3    H148322   4.322   0.083  15.098 -1.4584 -0.4638 -0.7713
 8969TIP3    H248323   4.277   0.227  15.111  1.7165  0.4888  0.5670
 8970TIP3   OH248324   0.976   2.109  17.095 -0.6960 -0.2799 -0.0556
 8970TIP3    H148325   1.035   2.055  17.043  0.1689  0.7184 -0.1623
 8970TIP3    H248326   0.946   2.051  17.165  1.4192 -0.5162  0.7498
 8971TIP3   OH248327   1.508   6.381   1.882  0.1513  0.4554  0.3853
 8971TIP3    H148328   1.453   6.442   1.931  0.1891  0.5448  0.3168
 8971TIP3    H248329   1.494   6.296   1.924  2.1047  0.9412  2.2278
 8972TIP3   OH248330   2.500   0.933  12.696 -0.0342  0.0552  0.3065
 8972TIP3    H148331   2.510   0.858  12.638  1.0053 -0.7805  1.5056
 8972TIP3    H248332   2.584   0.978  12.692 -0.3485  0.6620  0.2899
 8973TIP3   OH248333   1.311   4.278  14.167 -0.5843  0.7354  0.6324
 8973TIP3    H148334   1.311   4.283  14.263  0.4067 -1.6748  0.8307
 8973TIP3    H248335   1.390   4.325  14.141  0.0643 -0.0256  1.1604
 8974TIP3   OH248336   3.810   6.316   2.331 -0.1780 -0.1340 -0.0197
 8974TIP3    H148337   3.869   6.242   2.343  0.0014  0.1738  1.0932
 8974TIP3    H248338   3.726   6.276   2.308  0.0492 -0.6535  0.0360
 8975TIP3   OH248339   6.356   6.301  12.878 -0.5167 -0.0947  0.8615
 8975TIP3    H148340   6.328   6.291  12.969 -0.6233  1.5116  1.0277
 8975TIP3    H248341   6.276   6.295  12.827 -0.3979 -1.5335  0.7938
 8976TIP3   OH248342   1.442   2.222   2.976  0.1291 -0.1780 -0.6182
 8976TIP3    H148343   1.376   2.269   2.926 -0.0180  1.3661  0.8986
 8976TIP3    H248344   1.510   2.288   2.992  0.5994 -0.8810  0.3672
 8977TIP3   OH248345   5.592   4.543   1.479 -0.3399  0.3121  0.0213
 8977TIP3    H148346   5.623   4.514   1.394  0.7843  0.6321  0.3002
 8977TIP3    H248347   5.603   4.468   1.537 -1.1908  0.0646 -0.1204
 8978TIP3   OH248348   0.384   1.106   5.703  0.2368  0.4972 -0.0729
 8978TIP3    H148349   0.368   1.018   5.670  1.6175  0.2461 -0.1273
 8978TIP3    H248350   0.396   1.094   5.798 -1.9693  0.9757  0.3091
 8979TIP3   OH248351   2.845   6.562   5.805 -0.3947  0.7290  0.0919
 8979TIP3    H148352   2.838   6.470   5.827  1.6218  1.2929  3.9239
 8979TIP3    H248353   2.873   6.563   5.713 -0.7839 -2.4084 -0.1576
 8980TIP3   OH248354   4.697   0.668   0.024  0.0551 -0.0434  0.2516
 8980TIP3    H148355   4.713   0.689  -0.068  0.4007 -1.0012  0.0766
 8980TIP3    H248356   4.619   0.717   0.047 -0.4737 -0.3797 -0.7742
 8981TIP3   OH248357   6.411   4.491  15.216  0.1179  0.1322 -0.3148
 8981TIP3    H148358   6.435   4.563  15.158  0.1963  0.0886 -0.3356
 8981TIP3    H248359   6.393   4.418  15.157  0.5144 -0.0051 -0.2643
 8982TIP3   OH248360   0.877   4.397  12.464 -0.0902  0.1576 -0.6046
 8982TIP3    H148361   0.906   4.486  12.445 -0.6282  1.0081  2.0646
 8982TIP3    H248362   0.870   4.355  12.379  2.7813  1.8041 -1.7846
 8983TIP3   OH248363   0.455   1.319  13.140 -0.1533 -0.2253 -0.2283
 8983TIP3    H148364   0.413   1.294  13.223 -0.5231 -0.6953 -0.5520
 8983TIP3    H248365   0.382   1.326  13.078  0.0963  0.3617 -0.4595
 8984TIP3   OH248366   2.884   5.323  16.245 -0.0977 -0.2614  0.2886
 8984TIP3    H148367   2.864   5.411  16.213 -0.9260 -0.1621  1.0291
 8984TIP3    H248368   2.964   5.334  16.296 -0.6137  0.2243  1.0120
 8985TIP3   OH248369   1.264   5.351  13.939  0.1025  0.0095 -0.3996
 8985TIP3    H148370   1.261   5.346  13.843  2.8238 -0.9456 -0.5227
 8985TIP3    H248371   1.289   5.442  13.957  0.6902 -0.0916 -0.6704
 8986TIP3   OH248372   0.975   4.996   5.863 -0.2191 -0.4437 -0.0224
 8986TIP3    H148373   1.060   4.951   5.861 -1.1458 -2.2532 -0.6247
 8986TIP3    H248374   0.932   4.963   5.942 -1.0961 -0.9906 -0.7123
 8987TIP3   OH248375   0.623   1.994  10.571 -0.0957  0.2210  0.0518
 8987TIP3    H148376   0.601   1.907  10.538 -0.5152  0.9016 -1.5713
 8987TIP3    H248377   0.661   1.978  10.657 -0.6630 -1.5215  0.0234
 8988TIP3   OH248378   1.149   4.569   0.875  0.2518  0.4122  0.8268
 8988TIP3    H148379   1.068   4.595   0.920 -1.8185 -2.6654 -0.7257
 8988TIP3    H248380   1.218   4.616   0.921 -2.3473  3.0547  2.4254
 8989TIP3   OH248381   4.562   0.461  16.623  0.8414  0.6410 -0.3535
 8989TIP3    H148382   4.501   0.463  16.696  0.0216  0.4775 -1.0257
 8989TIP3    H248383   4.647   0.483  16.662  0.3975  0.6607  0.6201
 8990TIP3   OH248384   2.780   4.745  11.749  0.3810  0.0076  0.5442
 8990TIP3    H148385   2.744   4.833  11.762  1.6913  0.6918 -0.2253
 8990TIP3    H248386   2.713   4.687  11.785 -1.6715  1.1786 -1.0626
 8991TIP3   OH248387   0.291   5.982   4.106  0.4751 -0.4859  0.0126
 8991TIP3    H148388   0.318   6.028   4.185  2.2806  0.3389 -1.0303
 8991TIP3    H248389   0.362   5.920   4.088 -0.3172 -1.2721 -0.4900
 8992TIP3   OH248390   2.427   5.906  13.454  0.6057  0.0529 -0.6607
 8992TIP3    H148391   2.456   5.833  13.399  0.0405  0.3661 -1.3928
 8992TIP3    H248392   2.331   5.901  13.452  0.5457 -0.7693  1.4535
 8993TIP3   OH248393   0.463   0.042   3.478  0.1746 -0.8073  0.0955
 8993TIP3    H148394   0.442   0.114   3.419  2.6516  1.4278  1.7133
 8993TIP3    H248395   0.529  -0.009   3.431  2.8467  1.5010  1.0830
 8994TIP3   OH248396   0.267   5.526  17.190  0.5718  0.2662  0.4083
 8994TIP3    H148397   0.287   5.535  17.283  0.2086  1.0768  0.4110
 8994TIP3    H248398   0.330   5.583  17.146  0.2462  0.4805  0.2129
 8995TIP3   OH248399   3.697   2.616   1.549  0.3580 -0.3213 -0.9914
 8995TIP3    H148400   3.653   2.672   1.613  1.9138 -0.0060 -0.1409
 8995TIP3    H248401   3.759   2.674   1.505  2.1079 -1.3318  0.0056
 8996TIP3   OH248402   4.732   3.569   5.793 -0.0457 -0.1073 -0.0245
 8996TIP3    H148403   4.654   3.596   5.745 -0.7222 -2.0407 -0.1246
 8996TIP3    H248404   4.805   3.595   5.737 -0.7631 -0.8069 -1.3309
 8997TIP3   OH248405   4.401   5.679  11.259 -0.4084  0.2267 -0.2342
 8997TIP3    H148406   4.340   5.751  11.268 -1.0318 -0.1472 -1.3110
 8997TIP3    H248407   4.466   5.694  11.328 -2.7093 -0.3913  2.2449
 8998TIP3   OH248408   5.958   5.514  16.801 -0.4884 -0.2283  0.1129
 8998TIP3    H148409   5.970   5.503  16.896 -1.4658  1.6286  0.5059
 8998TIP3    H248410   6.017   5.586  16.778 -2.4555  1.4725 -0.0106
 8999TIP3   OH248411   1.023   6.279   4.827 -0.5482  0.2257 -0.1535
 8999TIP3    H148412   1.001   6.342   4.759  0.9125 -0.2876 -1.1427
 8999TIP3    H248413   0.967   6.304   4.901 -0.8954  1.8996 -0.9231
 9000TIP3   OH248414   1.099   4.845   3.955 -0.1607 -0.2127  0.0557
 9000TIP3    H148415   1.084   4.926   3.906 -1.7493 -1.5124 -1.7818
 9000TIP3    H248416   1.192   4.847   3.976 -0.1991  2.1667  0.2585
 9001TIP3   OH248417   1.881   5.454   0.626  0.9424 -0.3023  0.1178
 9001TIP3    H148418   1.938   5.428   0.554  1.4463  0.1157  0.3531
 9001TIP3    H248419   1.850   5.372   0.663 -1.4530 -0.5587 -2.1864
 9002TIP3   OH248420   3.562   2.760   5.448  0.1740  0.0738  0.5443
 9002TIP3    H148421   3.641   2.798   5.487  1.0005  0.1532 -1.1315
 9002TIP3    H248422   3.493   2.825   5.466  0.9947  1.1109  0.0431
 9003TIP3   OH248423   5.367   4.714   3.440  0.2094  1.4781 -0.3270
 9003TIP3    H148424   5.305   4.784   3.458 -0.0512  0.7350  2.1200
 9003TIP3    H248425   5.393   4.682   3.527  1.3128 -0.5760 -1.3256
 9004TIP3   OH248426   5.672   0.993   0.080 -0.4930  0.5696  0.0551
 9004TIP3    H148427   5.631   1.010   0.165 -2.7003  1.5147 -1.1335
 9004TIP3    H248428   5.646   0.903   0.059 -1.5678  0.9873 -0.4570
 9005TIP3   OH248429   0.712   4.578   4.453 -0.1298 -0.2446 -0.3987
 9005TIP3    H148430   0.770   4.557   4.381  1.1961  0.4772  0.4210
 9005TIP3    H248431   0.652   4.504   4.458 -0.5477 -0.1023 -2.4978
 9006TIP3   OH248432   4.713   0.520   1.583  0.2571  0.4830 -0.2832
 9006TIP3    H148433   4.790   0.559   1.542 -0.3062  1.3446 -0.5360
 9006TIP3    H248434   4.659   0.490   1.510  1.1790 -1.8331 -0.0991
 9007TIP3   OH248435   2.567   4.697  14.741  0.1276  0.1748 -1.0259
 9007TIP3    H148436   2.486   4.748  14.751 -0.2369 -0.6856  0.7960
 9007TIP3    H248437   2.540   4.607  14.759  1.4999 -0.1222 -0.3839
 9008TIP3   OH248438   2.645   4.603   3.532 -0.3537  0.5615 -0.4158
 9008TIP3    H148439   2.671   4.552   3.609  0.7963  1.7517  0.0253
 9008TIP3    H248440   2.622   4.538   3.466  1.2677 -0.5470  0.0493
 9009TIP3   OH248441   1.385   3.254  14.364  0.1868  0.5219  0.0516
 9009TIP3    H148442   1.430   3.277  14.283  1.2087  0.0515  0.4656
 9009TIP3    H248443   1.424   3.170  14.390 -1.2082 -0.1169  0.2278
 9010TIP3   OH248444   5.872   0.637  16.626  0.5758 -0.5726  0.1684
 9010TIP3    H148445   5.839   0.688  16.701  1.2019 -0.1329  0.1605
 9010TIP3    H248446   5.807   0.569  16.613  1.4469 -1.9646  2.4454
 9011TIP3   OH248447   5.280   0.373  16.822 -0.4414  0.1977 -0.3094
 9011TIP3    H148448   5.364   0.419  16.814 -0.4410  0.0714 -1.0358
 9011TIP3    H248449   5.296   0.308  16.891  0.0608  0.1716 -0.4427
 9012TIP3   OH248450   0.005   5.313   1.924 -0.0969 -0.1365  0.4285
 9012TIP3    H148451   0.094   5.277   1.915 -0.3114 -0.3590 -0.9178
 9012TIP3    H248452   0.002   5.384   1.860 -0.1159  1.5042  2.1341
 9013TIP3   OH248453   5.184   6.008   1.050 -0.3368 -0.3071 -0.0455
 9013TIP3    H148454   5.174   6.055   1.133 -0.6491  1.8910 -1.2669
 9013TIP3    H248455   5.146   5.922   1.068 -1.3822  0.4640  1.7936
 9014TIP3   OH248456   4.170   3.596  15.199  0.2621 -0.1427  0.6710
 9014TIP3    H148457   4.214   3.514  15.180  1.3445  0.8477 -1.4966
 9014TIP3    H248458   4.241   3.656  15.224 -0.4177  0.3480  1.4807
 9015TIP3   OH248459   3.946   4.477   6.060 -0.2548  0.2341  0.3166
 9015TIP3    H148460   3.987   4.454   6.144  1.7216  1.2469 -0.2853
 9015TIP3    H248461   3.958   4.400   6.005  0.2352  0.2611  0.3777
 9016TIP3   OH248462   6.156   0.023  14.442  0.1817  0.4880  0.4079
 9016TIP3    H148463   6.094   0.037  14.513  0.1117  0.3334  0.3794
 9016TIP3    H248464   6.213   0.100  14.443 -0.3231  0.8773  0.1159
 9017TIP3   OH248465   2.440   4.200   5.456  0.6491 -0.3784  0.2780
 9017TIP3    H148466   2.387   4.239   5.386  1.0446  0.7338  0.5726
 9017TIP3    H248467   2.512   4.261   5.468  1.7258 -1.6143  0.2480
 9018TIP3   OH248468   5.174   5.405   3.477  0.3299  0.3304  0.2693
 9018TIP3    H148469   5.116   5.335   3.505  0.3943  0.4885  0.8241
 9018TIP3    H248470   5.244   5.405   3.543  0.6787  0.4820 -0.0972
 9019TIP3   OH248471   2.688   5.615  14.394 -0.4877  0.1719 -0.1444
 9019TIP3    H148472   2.634   5.679  14.347 -0.8888 -0.4632 -0.5624
 9019TIP3    H248473   2.726   5.561  14.324 -0.8133 -0.5689  0.2461
 9020TIP3   OH248474   6.345   2.678  16.976  0.2459  0.1242  0.5846
 9020TIP3    H148475   6.311   2.597  16.938 -0.7725  1.2469 -1.0223
 9020TIP3    H248476   6.434   2.685  16.941 -0.3356  0.6341 -0.8553
 9021TIP3   OH248477   4.308   1.556   2.217  0.6741  0.2157 -0.3267
 9021TIP3    H148478   4.367   1.616   2.172 -1.3546  1.6331 -1.2360
 9021TIP3    H248479   4.275   1.498   2.149 -0.2071  0.4971 -0.1536
 9022TIP3   OH248480   2.276   4.098   6.527  0.3276  0.3158  0.5750
 9022TIP3    H148481   2.228   4.110   6.609 -0.8421  0.3427 -0.0925
 9022TIP3    H248482   2.220   4.040   6.475  3.2106 -3.9028  1.6099
 9023TIP3   OH248483   6.741   3.203  13.615  0.2773 -0.4926 -0.5185
 9023TIP3    H148484   6.701   3.200  13.529  1.3432  2.9192 -1.2916
 9023TIP3    H248485   6.703   3.280  13.657  4.0567  1.5460 -0.4106
 9024TIP3   OH248486   6.264   4.468  13.834 -0.2783 -0.1978  0.2469
 9024TIP3    H148487   6.191   4.518  13.798  0.0079  0.7215  0.9068
 9024TIP3    H248488   6.251   4.380  13.801 -1.2873  0.1127 -0.2299
 9025TIP3   OH248489   0.886   2.783  13.509  0.1545 -0.0366 -0.3581
 9025TIP3    H148490   0.899   2.689  13.523  2.5660 -0.0019 -1.7818
 9025TIP3    H248491   0.830   2.788  13.432  2.0906 -0.4022 -1.8608
 9026TIP3   OH248492   3.664   6.069  16.189  0.4235 -0.5495  0.0731
 9026TIP3    H148493   3.678   6.077  16.094  0.5100 -1.2347  0.0219
 9026TIP3    H248494   3.747   6.034  16.222  1.0090  1.2876  0.6542
 9027TIP3   OH248495   4.192   5.194   0.385  0.3934 -0.6400  0.5028
 9027TIP3    H148496   4.179   5.100   0.395  0.8319 -0.7471  0.0696
 9027TIP3    H248497   4.285   5.204   0.365  0.3420 -0.1151  0.5005
 9028TIP3   OH248498   5.951   5.018   3.838 -0.2009  0.2610 -0.3332
 9028TIP3    H148499   5.987   4.999   3.752  1.9505  0.6160  0.4342
 9028TIP3    H248500   5.979   5.108   3.857 -1.8261  0.6977  0.1960
 9029TIP3   OH248501   0.094   3.454  12.669 -0.1895  0.2195 -0.3373
 9029TIP3    H148502   0.176   3.497  12.644 -0.3623 -0.3713 -2.0451
 9029TIP3    H248503   0.119   3.390  12.735  0.7667 -0.1050 -1.0017
 9030TIP3   OH248504   0.049   4.201  14.539  1.0152  0.0076 -0.2888
 9030TIP3    H148505   0.029   4.215  14.631 -0.6368  0.7676 -0.7187
 9030TIP3    H248506   0.126   4.145  14.539  0.1305 -1.3163  1.5586
 9031TIP3   OH248507   6.310   4.362  13.043  0.5578 -0.4931  0.3174
 9031TIP3    H148508   6.259   4.414  12.981  1.1049  0.0597  0.3196
 9031TIP3    H248509   6.247   4.299  13.079  0.3581 -1.2586 -1.2618
 9032TIP3   OH248510   5.321   6.073   3.344  0.9315  0.3484  0.1248
 9032TIP3    H148511   5.242   6.038   3.385  0.4641 -0.7097 -1.5768
 9032TIP3    H248512   5.311   6.168   3.349  1.0107  0.3072  2.5564
 9033TIP3   OH248513   3.045   4.387   0.580  0.5948 -0.3534 -0.6222
 9033TIP3    H148514   3.112   4.440   0.623 -0.6764  0.0882  0.9131
 9033TIP3    H248515   3.045   4.304   0.627  0.4922 -0.5971 -1.0409
 9034TIP3   OH248516   6.442   6.366  14.554 -0.0088  0.4708 -0.4965
 9034TIP3    H148517   6.363   6.391  14.601 -0.0101 -0.6647  0.1470
 9034TIP3    H248518   6.437   6.270  14.548 -0.3113  0.5799 -3.3415
 9035TIP3   OH248519   0.318   3.750  12.476 -0.4447  0.0318 -0.1437
 9035TIP3    H148520   0.401   3.795  12.491  0.2922 -0.5043 -2.1692
 9035TIP3    H248521   0.329   3.665  12.519 -1.2591  1.1210  2.3836
 9036TIP3   OH248522   5.992   5.285   0.644 -0.2768  0.6804  0.2027
 9036TIP3    H148523   6.080   5.322   0.645  0.5710 -0.9221 -2.7476
 9036TIP3    H248524   5.977   5.258   0.734  1.2781  3.0144  1.2748
 9037TIP3   OH248525   3.469   3.650   3.788 -0.3676  0.1990 -0.0811
 9037TIP3    H148526   3.391   3.693   3.753 -0.5020  0.7098  0.7910
 9037TIP3    H248527   3.537   3.717   3.785  0.2788 -0.4685 -1.5484
 9038TIP3   OH248528   2.165   4.802   4.167 -0.2454 -0.4745  0.0236
 9038TIP3    H148529   2.133   4.801   4.257 -0.4619  0.6299 -0.0368
 9038TIP3    H248530   2.091   4.832   4.114 -0.6456 -2.6575 -0.7669
 9039TIP3   OH248531   1.377   0.894   5.821  0.2571  0.5043  0.2294
 9039TIP3    H148532   1.456   0.872   5.871  0.1118  0.0184  0.2579
 9039TIP3    H248533   1.306   0.854   5.871  0.1516 -0.3816 -0.5925
 9040TIP3   OH248534   1.715   5.131   6.130  0.0785  0.3383  0.1406
 9040TIP3    H148535   1.631   5.132   6.175 -0.1316 -2.7998  0.0658
 9040TIP3    H248536   1.780   5.136   6.201 -0.2507 -2.1395  0.7144
 9041TIP3   OH248537   1.194   4.556  14.076 -0.0075  0.2769  0.3097
 9041TIP3    H148538   1.208   4.529  14.167 -1.1160 -1.4046  0.0235
 9041TIP3    H248539   1.161   4.478  14.032  0.8869  0.9280 -1.6602
 9042TIP3   OH248540   5.320   2.513   3.662  0.1766  0.5977  0.0658
 9042TIP3    H148541   5.352   2.531   3.750 -0.4769  1.1417  0.1970
 9042TIP3    H248542   5.280   2.426   3.668 -0.7440  1.0464  0.5518
 9043TIP3   OH248543   2.230   2.110   2.618  1.0324  0.0820 -0.0442
 9043TIP3    H148544   2.169   2.127   2.690  1.7752  1.6227  0.2633
 9043TIP3    H248545   2.283   2.036   2.649  0.5335 -0.0685  0.4691
 9044TIP3   OH248546   1.742   5.114   6.680  0.5773 -0.1273 -0.0855
 9044TIP3    H148547   1.766   5.156   6.597  1.0744  1.7196  0.9417
 9044TIP3    H248548   1.681   5.175   6.721 -0.3430 -1.4245  0.5425
 9045TIP3   OH248549   4.656   3.399  13.309 -0.3323 -0.5367  0.7410
 9045TIP3    H148550   4.687   3.364  13.226 -0.3455  0.6145  0.2280
 9045TIP3    H248551   4.562   3.412  13.296  0.0571  2.0046  0.0140
 9046TIP3   OH248552   5.065   1.392   5.672 -0.0617 -0.3148  0.3303
 9046TIP3    H148553   4.993   1.429   5.722 -0.7027 -0.8864 -0.1473
 9046TIP3    H248554   5.031   1.310   5.638  0.5516 -0.2224 -0.5510
 9047TIP3   OH248555   1.689   0.567  15.334 -0.4436 -0.0736 -0.1112
 9047TIP3    H148556   1.689   0.663  15.335  2.9644  0.0513  0.5184
 9047TIP3    H248557   1.622   0.543  15.398 -1.1957  1.8803 -0.0731
 9048TIP3   OH248558   2.950   1.065   3.814 -0.1798 -0.1124  0.0493
 9048TIP3    H148559   2.994   1.142   3.848 -2.8666  1.7679 -0.3576
 9048TIP3    H248560   2.943   1.005   3.889  2.1020 -0.0945  0.3219
 9049TIP3   OH248561   0.375   3.216   3.828  0.2727  0.6948  0.4028
 9049TIP3    H148562   0.402   3.181   3.743 -2.4470 -1.0975  0.1113
 9049TIP3    H248563   0.451   3.205   3.885  1.2718 -0.7567 -1.1285
 9050TIP3   OH248564   3.391   4.670  13.895  0.8960 -0.6481 -0.2509
 9050TIP3    H148565   3.395   4.579  13.926  1.2204 -1.3280 -2.1648
 9050TIP3    H248566   3.459   4.715  13.945  1.2627 -1.6376  0.1698
 9051TIP3   OH248567   0.894   1.222  13.941  0.0640  0.1231  0.0345
 9051TIP3    H148568   0.845   1.303  13.928  2.2944  1.2690 -1.9854
 9051TIP3    H248569   0.828   1.153  13.943 -1.7249  1.7572 -0.6350
 9052TIP3   OH248570   2.137   4.679  12.801 -0.0485 -0.5696 -0.2084
 9052TIP3    H148571   2.074   4.726  12.746  0.0291  0.4420  0.5329
 9052TIP3    H248572   2.092   4.597  12.823 -0.7949 -0.2057 -0.3278
 9053TIP3   OH248573   2.385   4.736  13.877 -0.1398  0.5011 -0.1373
 9053TIP3    H148574   2.365   4.829  13.884  0.1833  0.5194  0.5487
 9053TIP3    H248575   2.399   4.707  13.967 -0.1125 -0.1839 -0.3579
 9054TIP3   OH248576   6.432   3.240   2.492 -1.2280  0.2494 -0.5176
 9054TIP3    H148577   6.423   3.195   2.408 -0.2677 -1.2466  0.1495
 9054TIP3    H248578   6.370   3.195   2.550 -0.7827  0.2471 -0.0319
 9055TIP3   OH248579   5.570   5.039  11.924  0.2743  0.2110  0.2236
 9055TIP3    H148580   5.592   5.122  11.881  2.4938 -1.3383 -1.8713
 9055TIP3    H248581   5.539   4.983  11.853 -0.4070 -1.0471  1.4634
 9056TIP3   OH248582   3.137   0.147  17.157 -0.2424 -0.0160 -0.5566
 9056TIP3    H148583   3.076   0.220  17.149 -0.8749 -0.5204 -0.3627
 9056TIP3    H248584   3.207   0.168  17.094 -0.3200  0.8423 -0.3683
 9057TIP3   OH248585   1.388   0.357   4.366  0.2946  0.5510  0.2639
 9057TIP3    H148586   1.368   0.264   4.360 -0.7664  0.7601  0.4242
 9057TIP3    H248587   1.325   0.391   4.429  2.7690  0.7831  2.8214
 9058TIP3   OH248588   1.307   1.710   3.979 -0.5987  0.3199  0.7667
 9058TIP3    H148589   1.357   1.776   3.931  0.4206 -1.3844 -0.5875
 9058TIP3    H248590   1.252   1.762   4.039 -0.2455  2.4104 -0.6052
 9059TIP3   OH248591   3.350   5.129   0.481  0.1324  0.1466  0.3869
 9059TIP3    H148592   3.418   5.079   0.526  2.0080  1.6345 -0.6661
 9059TIP3    H248593   3.375   5.221   0.495 -0.1492  0.6818 -2.2398
 9060TIP3   OH248594   6.059   2.575  11.371  0.0246 -0.2240  0.0591
 9060TIP3    H148595   6.109   2.536  11.299 -0.2912  0.8287 -0.7566
 9060TIP3    H248596   6.018   2.652  11.332 -0.3675  0.2168  1.3094
 9061TIP3   OH248597   4.826   4.243   3.624  0.1952 -0.1246  0.4040
 9061TIP3    H148598   4.898   4.301   3.599  0.3634 -1.2211 -1.9264
 9061TIP3    H248599   4.778   4.292   3.691  0.1762  2.8336 -1.5707
 9062TIP3   OH248600   2.157   6.654   2.962 -0.3523 -0.2378  0.6250
 9062TIP3    H148601   2.228   6.679   3.020 -0.1469  2.7660 -0.7551
 9062TIP3    H248602   2.170   6.707   2.883 -3.4904 -0.3465 -0.0960
 9063TIP3   OH248603   3.341   4.204   0.261 -0.7820 -0.0090  0.3535
 9063TIP3    H148604   3.385   4.119   0.263 -2.5685 -1.1888 -3.1687
 9063TIP3    H248605   3.263   4.191   0.315 -0.4626 -0.2046  0.7757
 9064TIP3   OH248606   4.035   3.859  12.722 -0.1150  0.3806 -0.6508
 9064TIP3    H148607   4.021   3.928  12.787 -0.4656 -0.3951  0.1175
 9064TIP3    H248608   3.949   3.818  12.712  0.2453 -0.4316 -0.5162
 9065TIP3   OH248609   0.981   6.333  11.688  0.2566 -0.2114 -0.1376
 9065TIP3    H148610   1.008   6.422  11.711  0.1102 -0.0277 -0.6525
 9065TIP3    H248611   0.933   6.344  11.605  1.1954 -0.9057 -0.7960
 9066TIP3   OH248612   6.618   2.698  16.905  0.8214 -0.2549  0.1493
 9066TIP3    H148613   6.694   2.728  16.954  0.1442  1.8763 -0.0061
 9066TIP3    H248614   6.638   2.719  16.814 -0.4476  1.6677  0.2408
 9067TIP3   OH248615   4.140   5.838   0.851  0.6238  0.0816 -0.4898
 9067TIP3    H148616   4.047   5.831   0.875  0.6619 -0.3092 -0.4429
 9067TIP3    H248617   4.169   5.747   0.844  1.6441  0.1340  1.9557
 9068TIP3   OH248618   1.174   2.019   5.131  0.3057 -0.2709 -0.1621
 9068TIP3    H148619   1.131   2.104   5.130  0.8872  0.0560 -2.2387
 9068TIP3    H248620   1.108   1.958   5.098 -0.0634 -0.6277  1.1866
 9069TIP3   OH248621   3.132   0.444  12.126 -0.1531 -0.0919  0.0910
 9069TIP3    H148622   3.158   0.363  12.083  0.9549 -0.6802  1.7958
 9069TIP3    H248623   3.036   0.441  12.126 -0.2610  0.1894 -2.6793
 9070TIP3   OH248624   4.628   1.837  12.041 -0.6485 -0.1729 -0.3685
 9070TIP3    H148625   4.619   1.875  11.953 -1.5567  1.1086  0.2438
 9070TIP3    H248626   4.723   1.839  12.057 -0.4909 -0.1733 -1.2148
 9071TIP3   OH248627   0.528   1.088   2.842 -0.1949  0.7807  0.0814
 9071TIP3    H148628   0.582   1.074   2.764 -0.5850  1.3809 -0.3062
 9071TIP3    H248629   0.524   1.183   2.852  1.1377  0.7149  1.7655
 9072TIP3   OH248630   1.550   3.354   4.710  0.0699  1.0369 -0.6455
 9072TIP3    H148631   1.558   3.358   4.805 -0.9246  2.5163 -0.5857
 9072TIP3    H248632   1.637   3.377   4.678  0.8055 -0.8776 -0.1257
 9073TIP3   OH248633   1.301   5.409  13.410 -0.1067  0.0330  0.2326
 9073TIP3    H148634   1.213   5.380  13.433  0.4562 -0.9529  1.2923
 9073TIP3    H248635   1.326   5.467  13.483  0.4130 -0.3458  0.3594
 9074TIP3   OH248636   4.513   5.507  12.314 -0.4476  0.5303 -0.0596
 9074TIP3    H148637   4.503   5.597  12.345 -3.3121  0.8850 -1.6866
 9074TIP3    H248638   4.531   5.516  12.220  1.7389 -0.6335  0.1796
 9075TIP3   OH248639   0.358   1.202   6.204  0.1166  0.5078 -0.1193
 9075TIP3    H148640   0.317   1.162   6.280  0.2128 -0.9850 -0.8117
 9075TIP3    H248641   0.410   1.275   6.239  1.4434 -1.1137  1.4668
 9076TIP3   OH248642   4.583   1.688  11.118  0.1031  0.0032 -0.4470
 9076TIP3    H148643   4.585   1.762  11.059  1.2777  1.3713  1.1962
 9076TIP3    H248644   4.667   1.691  11.164 -0.1820 -1.8130  0.3143
 9077TIP3   OH248645   3.128   4.548  12.862 -0.5076 -0.1079  0.6700
 9077TIP3    H148646   3.144   4.625  12.806  0.2236  0.0939  1.1447
 9077TIP3    H248647   3.034   4.534  12.856 -0.3260 -0.7870 -1.5179
 9078TIP3   OH248648   2.866   6.605  16.772  0.1409 -0.1546  0.3006
 9078TIP3    H148649   2.869   6.540  16.842  1.1531 -1.0494 -0.5216
 9078TIP3    H248650   2.849   6.688  16.816 -2.8561 -1.1602  1.2432
 9079TIP3   OH248651   0.298   6.579   4.330 -0.4835 -0.1074 -0.2100
 9079TIP3    H148652   0.391   6.578   4.350 -0.8051 -0.9050  1.3738
 9079TIP3    H248653   0.263   6.654   4.379 -0.4581  1.2665 -2.1399
 9080TIP3   OH248654   3.047   5.617   3.834  0.1448 -0.4027  0.0635
 9080TIP3    H148655   3.141   5.610   3.849  0.0584 -0.2116  0.7105
 9080TIP3    H248656   3.033   5.710   3.817  0.0952 -0.4592 -0.2075
 9081TIP3   OH248657   3.258   2.936   5.118 -0.6785  0.0132 -0.0282
 9081TIP3    H148658   3.249   2.919   5.024 -2.2706  0.0305  0.0937
 9081TIP3    H248659   3.277   3.030   5.124 -0.8726  0.0706 -0.3167
 9082TIP3   OH248660   1.384   5.909  16.935 -0.2329  0.1947  0.5840
 9082TIP3    H148661   1.383   6.000  16.965 -0.2975  0.2509  0.4139
 9082TIP3    H248662   1.361   5.915  16.842  0.5079  0.0710  0.3882
 9083TIP3   OH248663   3.455   6.422  15.874 -0.2959  0.1336 -0.4262
 9083TIP3    H148664   3.498   6.453  15.794 -1.9518 -1.8869 -2.2583
 9083TIP3    H248665   3.382   6.482  15.888  0.1275  0.6204 -0.3191
 9084TIP3   OH248666   0.199   6.623  16.771 -0.7266  0.4963  0.3420
 9084TIP3    H148667   0.155   6.547  16.736 -1.6483  0.5539  1.3134
 9084TIP3    H248668   0.265   6.588  16.831 -1.8115  0.4383  1.5529
 9085TIP3   OH248669   2.283   3.948   1.151  0.2119  0.1412  0.5269
 9085TIP3    H148670   2.268   4.042   1.147  0.0692  0.0906 -1.5067
 9085TIP3    H248671   2.273   3.925   1.243 -3.7134  1.4861  0.6139
 9086TIP3   OH248672   2.179   5.250   2.335  0.3534  0.3092 -0.1670
 9086TIP3    H148673   2.133   5.166   2.340  0.3871  0.3060  0.1455
 9086TIP3    H248674   2.163   5.281   2.246 -1.0377  0.7541  0.2177
 9087TIP3   OH248675   4.600   1.534   3.678  0.0425 -0.5549  0.3348
 9087TIP3    H148676   4.562   1.447   3.692  0.5703 -0.8291  0.1051
 9087TIP3    H248677   4.531   1.584   3.636 -0.5792 -0.5835  1.2838
 9088TIP3   OH248678   0.706   0.430  12.780  0.2598  0.0675 -0.0194
 9088TIP3    H148679   0.762   0.419  12.703  0.5070  0.6453  0.0771
 9088TIP3    H248680   0.642   0.359  12.773 -0.1426  0.5196 -1.1275
 9089TIP3   OH248681   2.710   5.815  15.184 -0.4196  0.2590  0.3300
 9089TIP3    H148682   2.747   5.727  15.183  0.9173  0.8045  0.2266
 9089TIP3    H248683   2.642   5.813  15.117 -0.9677 -0.9160  0.8900
 9090TIP3   OH248684   2.706   3.799   4.946  0.1270  0.2354 -0.6606
 9090TIP3    H148685   2.695   3.798   5.041 -1.2006 -0.1339 -0.8015
 9090TIP3    H248686   2.670   3.716   4.916 -0.5989  0.8491 -1.5778
 9091TIP3   OH248687   3.727   0.774   1.653  0.0959 -0.0517 -0.4964
 9091TIP3    H148688   3.719   0.683   1.683  1.9389 -0.1833 -0.3405
 9091TIP3    H248689   3.670   0.778   1.575 -0.8228 -1.0395  0.0935
 9092TIP3   OH248690   2.475   4.147  16.650  0.0701 -0.1632 -0.0377
 9092TIP3    H148691   2.387   4.185  16.656  0.3001  1.1583 -3.1761
 9092TIP3    H248692   2.532   4.212  16.692 -0.3136 -0.8181  1.5991
 9093TIP3   OH248693   6.543   6.228  15.252 -0.1665 -0.3820 -0.0586
 9093TIP3    H148694   6.585   6.310  15.277 -0.5519 -0.4117  0.7152
 9093TIP3    H248695   6.522   6.185  15.335 -0.0394 -1.2285 -0.4513
 9094TIP3   OH248696   5.238   2.105   3.632 -0.5104 -0.3384 -0.3252
 9094TIP3    H148697   5.188   2.049   3.573 -3.0913  1.5638 -0.0808
 9094TIP3    H248698   5.182   2.117   3.708  0.3880  1.7140  0.0889
 9095TIP3   OH248699   3.098   0.640  11.187  0.0727  0.7890 -0.2216
 9095TIP3    H148700   3.063   0.556  11.217  1.5126  0.0946 -0.4048
 9095TIP3    H248701   3.021   0.689  11.158 -0.7077 -0.7917 -0.9261
 9096TIP3   OH248702   5.015   4.007  13.010 -0.2563  0.4673  0.5229
 9096TIP3    H148703   4.986   4.013  13.101  1.7412  0.5281  1.2043
 9096TIP3    H248704   5.066   4.087  12.997  0.1455  0.0652 -0.4111
 9097TIP3   OH248705   3.035   3.639  14.910  0.5072  0.3466  0.1808
 9097TIP3    H148706   3.039   3.719  14.962  0.4331 -0.4981  1.5608
 9097TIP3    H248707   3.071   3.571  14.968  2.8708 -0.2422 -1.7979
 9098TIP3   OH248708   4.617   4.508  13.463 -0.3994  0.0719 -0.1975
 9098TIP3    H148709   4.646   4.557  13.386 -3.8649 -0.6578 -2.1882
 9098TIP3    H248710   4.652   4.420  13.449 -0.7586  0.0184 -0.7805
 9099TIP3   OH248711   0.202   3.981  15.893 -0.2555 -0.3674  0.5193
 9099TIP3    H148712   0.243   4.043  15.833 -1.5701  0.5275  0.5147
 9099TIP3    H248713   0.230   3.895  15.861  1.9539  0.1853  0.7978
 9100TIP3   OH248714   4.756   2.153  13.921 -0.1753  0.9561 -0.2052
 9100TIP3    H148715   4.740   2.059  13.931 -0.7210  0.9499 -1.0687
 9100TIP3    H248716   4.835   2.170  13.974  0.5802 -0.1952 -0.9351
 9101TIP3   OH248717   2.819   0.656   2.320  0.0243  0.2447 -0.6204
 9101TIP3    H148718   2.764   0.615   2.254  0.8854  0.3862 -1.4491
 9101TIP3    H248719   2.788   0.747   2.325 -1.4971 -0.3013  0.7978
 9102TIP3   OH248720   4.313   6.101  14.485  0.2732  0.5991 -0.0872
 9102TIP3    H148721   4.356   6.056  14.412 -1.5782 -0.6981 -0.4546
 9102TIP3    H248722   4.275   6.030  14.537  1.3938  1.5041  2.0827
 9103TIP3   OH248723   1.435   6.246  12.253  0.4189 -0.1087  0.7119
 9103TIP3    H148724   1.434   6.332  12.294  0.7169  0.6131 -0.7166
 9103TIP3    H248725   1.461   6.263  12.162  0.1594 -1.6662  0.3126
 9104TIP3   OH248726   4.657   4.901   6.309  0.0968  0.1069  0.2611
 9104TIP3    H148727   4.582   4.848   6.336  0.3482  0.6228  2.0372
 9104TIP3    H248728   4.618   4.977   6.266 -0.2651 -1.6387 -2.8255
 9105TIP3   OH248729   2.513   0.551  12.836  0.0170  0.2269 -0.0912
 9105TIP3    H148730   2.518   0.483  12.769  0.7569  0.3433 -0.1591
 9105TIP3    H248731   2.421   0.578  12.835 -0.3687 -1.0011  0.1756
 9106TIP3   OH248732   4.007   6.127  11.907  0.4151  0.2643 -0.3574
 9106TIP3    H148733   4.099   6.125  11.934 -0.3159 -1.0194  2.4316
 9106TIP3    H248734   3.988   6.219  11.893  1.5294  0.8309  1.5149
 9107TIP3   OH248735   4.404   2.635   3.271 -0.2301  0.3313  0.2248
 9107TIP3    H148736   4.326   2.664   3.320  0.8368  2.2549  0.9022
 9107TIP3    H248737   4.391   2.669   3.183 -0.5938 -0.1921  0.0739
 9108TIP3   OH248738   0.358   5.233  16.260  0.2375 -0.1541  0.1508
 9108TIP3    H148739   0.286   5.259  16.317  0.4445  0.8317 -0.0139
 9108TIP3    H248740   0.316   5.190  16.185 -0.0784 -0.8390  0.7131
 9109TIP3   OH248741   3.695   0.977  15.712 -0.6556  0.1906  0.4106
 9109TIP3    H148742   3.653   0.895  15.685  0.0537 -0.4122  1.0993
 9109TIP3    H248743   3.785   0.970  15.678  0.0834 -0.3293  2.3682
 9110TIP3   OH248744   2.929   5.090   3.207  0.0890  0.6911 -0.0151
 9110TIP3    H148745   2.947   5.013   3.153 -1.7116  0.5260 -0.4384
 9110TIP3    H248746   2.845   5.071   3.248  0.9693  1.2176  2.1746
 9111TIP3   OH248747   3.416   4.665   3.582  0.2692  0.0615  0.3685
 9111TIP3    H148748   3.449   4.640   3.496  1.3737  0.5061  0.6471
 9111TIP3    H248749   3.392   4.583   3.624 -0.1795 -0.1643 -0.3201
 9112TIP3   OH248750   4.413   0.403  12.832  0.0614  0.0108  0.0496
 9112TIP3    H148751   4.488   0.455  12.860 -1.0454  1.1721  0.9881
 9112TIP3    H248752   4.349   0.413  12.903 -2.7498  2.7482 -2.5448
 9113TIP3   OH248753   5.710   0.191   0.003 -0.4415 -0.6560  0.3237
 9113TIP3    H148754   5.775   0.199   0.073  0.1342  1.5886 -0.3828
 9113TIP3    H248755   5.759   0.212  -0.077 -1.8600  0.3889 -0.3135
 9114TIP3   OH248756   1.140   2.344  12.720  0.4241  0.9530  0.0310
 9114TIP3    H148757   1.077   2.292  12.670  2.1929 -0.0058 -1.3315
 9114TIP3    H248758   1.207   2.281  12.747  1.7202  2.1970 -0.1291
 9115TIP3   OH248759   4.160   1.451   2.465 -0.2725 -0.4056 -0.3039
 9115TIP3    H148760   4.255   1.447   2.457 -0.2067 -3.6810  0.7389
 9115TIP3    H248761   4.132   1.508   2.393  2.4206  0.7702 -0.5457
 9116TIP3   OH248762   1.230   2.191   2.749 -1.0591  0.2347  0.7980
 9116TIP3    H148763   1.143   2.170   2.781 -2.7401 -1.9958 -4.1804
 9116TIP3    H248764   1.222   2.279   2.713 -1.4501 -0.0948  0.0459
 9117TIP3   OH248765   5.544   0.898   5.919  0.1202 -0.5558 -0.4885
 9117TIP3    H148766   5.499   0.814   5.923 -0.1062 -0.4368 -0.5892
 9117TIP3    H248767   5.548   0.927   6.010 -0.7474 -0.1662 -0.5746
 9118TIP3   OH248768   6.514   1.424   4.024 -0.0127 -0.0995  0.6459
 9118TIP3    H148769   6.523   1.368   4.101  0.1646 -0.0060  0.6935
 9118TIP3    H248770   6.424   1.411   3.995  0.0584 -0.4920  0.5958
 9119TIP3   OH248771   1.215   6.209   0.099  0.2029  0.1166  0.7554
 9119TIP3    H148772   1.121   6.215   0.114  0.2032 -0.8711  1.2391
 9119TIP3    H248773   1.251   6.288   0.139 -0.3403  0.1282  1.2267
 9120TIP3   OH248774   0.928   1.189  12.565  0.7713 -0.2825 -0.0033
 9120TIP3    H148775   0.944   1.193  12.471 -0.8337  0.6460 -0.2909
 9120TIP3    H248776   0.921   1.096  12.585 -1.1350 -0.4864 -1.2937
 9121TIP3   OH248777   1.898   1.697  15.661 -0.2930 -0.4935  0.4377
 9121TIP3    H148778   1.816   1.692  15.711 -0.9907 -2.5269 -0.7996
 9121TIP3    H248779   1.964   1.661  15.720 -0.2061  1.3252  1.5109
 9122TIP3   OH248780   4.149   2.351   5.513  0.0780 -0.7473 -0.5182
 9122TIP3    H148781   4.104   2.367   5.596  1.7844  1.4438  0.0954
 9122TIP3    H248782   4.239   2.331   5.538  0.3614 -1.1652 -1.8091
 9123TIP3   OH248783   5.822   0.817   0.404  0.2681 -0.4717 -0.1118
 9123TIP3    H148784   5.896   0.825   0.343  0.2258  2.4564  0.1138
 9123TIP3    H248785   5.753   0.776   0.351 -0.7255  4.3540 -3.2101
 9124TIP3   OH248786   1.416   2.150   2.309 -0.3056  0.7104  0.0417
 9124TIP3    H148787   1.420   2.087   2.380  0.8932  1.7258  0.9136
 9124TIP3    H248788   1.461   2.108   2.236  0.3489  0.4944  0.5668
 9125TIP3   OH248789   0.843   0.195   3.703  0.5809 -0.1404  0.2377
 9125TIP3    H148790   0.794   0.238   3.633  1.2240  0.6369  0.2511
 9125TIP3    H248791   0.790   0.209   3.782 -1.4890 -3.2335 -0.4207
 9126TIP3   OH248792   1.637   6.615  11.572  0.2433 -0.1919  0.2603
 9126TIP3    H148793   1.618   6.707  11.553  0.9741  0.0277  0.5561
 9126TIP3    H248794   1.664   6.578  11.488  0.4171 -0.0156  0.2381
 9127TIP3   OH248795   1.282   5.932  17.218 -0.3212  0.2849  0.0572
 9127TIP3    H148796   1.321   6.013  17.252  0.6176  0.7959 -2.0965
 9127TIP3    H248797   1.342   5.903  17.150 -0.5686 -2.3476  0.8543
 9128TIP3   OH248798   4.657   4.250  11.571 -0.0037  0.5916  0.3915
 9128TIP3    H148799   4.706   4.224  11.649  1.1945  0.1636 -0.4769
 9128TIP3    H248800   4.618   4.168  11.540  0.7205  0.4832 -0.2600
 9129TIP3   OH248801   3.744   3.747   1.691  0.6212  0.2648 -0.5017
 9129TIP3    H148802   3.782   3.692   1.623  1.5355  0.3614 -0.0899
 9129TIP3    H248803   3.650   3.733   1.684  0.7085  0.1942 -1.7091
 9130TIP3   OH248804   5.227   1.591  12.977 -0.0735  0.1535 -0.9073
 9130TIP3    H148805   5.318   1.564  12.987 -0.8367 -1.9854  1.3521
 9130TIP3    H248806   5.217   1.665  13.038  0.1658  0.5348 -1.3203
 9131TIP3   OH248807   4.505   4.633  14.899 -0.0324 -0.6406  0.0666
 9131TIP3    H148808   4.438   4.657  14.836  0.2398 -3.6553 -1.5328
 9131TIP3    H248809   4.588   4.654  14.856  0.1245 -1.1130  0.1306
 9132TIP3   OH248810   4.497   0.344   4.314 -0.0051 -0.6759 -0.1614
 9132TIP3    H148811   4.501   0.437   4.292 -0.4132 -0.9517 -1.4825
 9132TIP3    H248812   4.561   0.333   4.384  1.8881  0.1400 -1.6738
 9133TIP3   OH248813   0.686   1.496   4.583 -0.2620 -0.5780 -0.3373
 9133TIP3    H148814   0.675   1.426   4.518 -0.6186 -0.0475 -0.8600
 9133TIP3    H248815   0.705   1.574   4.531 -2.3322  0.2420  0.0497
 9134TIP3   OH248816   5.562   4.633  15.219  0.1405 -0.3496  0.5226
 9134TIP3    H148817   5.482   4.653  15.267 -0.2467  0.8678 -0.5654
 9134TIP3    H248818   5.602   4.719  15.202  0.5731 -0.7815 -0.7678
 9135TIP3   OH248819   4.133   1.380  12.187  0.1271  0.3477 -0.0533
 9135TIP3    H148820   4.073   1.445  12.225  0.1763  1.0070 -1.0672
 9135TIP3    H248821   4.188   1.353  12.261 -0.9373  0.2676  0.7324
 9136TIP3   OH248822   0.485   6.787  10.651  0.2784 -0.3888  0.8793
 9136TIP3    H148823   0.459   6.696  10.641  3.5852 -1.4762  1.1346
 9136TIP3    H248824   0.545   6.803  10.578  0.7846  1.1709  1.5898
 9137TIP3   OH248825   4.614   4.117  12.238  0.0066  0.7285 -0.0387
 9137TIP3    H148826   4.624   4.076  12.152 -1.3122 -0.7844  0.4883
 9137TIP3    H248827   4.704   4.134  12.267  0.4797  0.8362 -1.5000
 9138TIP3   OH248828   3.566   2.287   3.514 -0.2280  0.3603  0.0627
 9138TIP3    H148829   3.508   2.282   3.590 -1.2525  0.4471 -0.6873
 9138TIP3    H248830   3.616   2.206   3.516 -0.1126  0.4479  0.9297
 9139TIP3   OH248831   5.407   1.513   1.254  0.2342  0.0454 -0.1948
 9139TIP3    H148832   5.398   1.596   1.207 -3.3685 -0.5464 -0.8540
 9139TIP3    H248833   5.462   1.459   1.198  0.5587  1.1501 -0.9716
 9140TIP3   OH248834   3.494   5.854   4.046  0.0114 -0.4266 -0.0957
 9140TIP3    H148835   3.544   5.772   4.037  1.5732  0.3106  1.2241
 9140TIP3    H248836   3.469   5.856   4.138  1.1769  1.1729  0.2339
 9141TIP3   OH248837   4.525   4.157  13.200  0.0139 -0.4987 -0.0507
 9141TIP3    H148838   4.497   4.099  13.129 -0.9869 -1.0479  0.7749
 9141TIP3    H248839   4.462   4.143  13.270  1.0596 -0.0728  1.0235
 9142TIP3   OH248840   3.295   6.164  15.743 -0.2780  0.2157 -0.4085
 9142TIP3    H148841   3.221   6.188  15.798  1.6199  1.8355  1.6223
 9142TIP3    H248842   3.275   6.202  15.658 -1.2152  1.8013  0.4668
 9143TIP3   OH248843   6.746   3.788  15.936 -0.3064 -0.1777 -0.6868
 9143TIP3    H148844   6.666   3.812  15.889  0.1644 -0.7152 -1.7978
 9143TIP3    H248845   6.809   3.855  15.912 -0.4767  0.3974  0.4033
 9144TIP3   OH248846   1.941   6.098  16.384 -0.0325 -0.6549 -0.3381
 9144TIP3    H148847   2.020   6.057  16.348 -0.7715 -1.2859 -1.3179
 9144TIP3    H248848   1.878   6.096  16.311 -1.6884 -2.2142  1.0292
 9145TIP3   OH248849   1.515   6.097  14.010  0.9263  0.2523  0.3737
 9145TIP3    H148850   1.581   6.164  13.990  0.9289 -0.5151 -2.6032
 9145TIP3    H248851   1.552   6.016  13.976  0.4716 -1.1647  3.0051
 9146TIP3   OH248852   3.349   2.203  14.380 -0.0003 -0.0466 -0.1094
 9146TIP3    H148853   3.352   2.298  14.374 -1.6137  0.0634  0.4753
 9146TIP3    H248854   3.278   2.177  14.322 -1.5113 -0.6280  1.8897
 9147TIP3   OH248855   5.494   4.898   2.660 -0.3078  0.1911 -0.4503
 9147TIP3    H148856   5.530   4.885   2.748 -0.8221  1.8301  0.0314
 9147TIP3    H248857   5.415   4.843   2.660  0.8253 -1.5128 -0.6775
 9148TIP3   OH248858   1.657   6.071  16.720  0.1526 -0.4494 -0.2594
 9148TIP3    H148859   1.687   5.991  16.679  3.6592  0.1507  0.8040
 9148TIP3    H248860   1.689   6.065  16.810 -0.4504  1.6669  0.1547
 9149TIP3   OH248861   2.071   4.568  14.275  0.1355  0.7523 -0.3575
 9149TIP3    H148862   2.054   4.659  14.250 -1.0714  0.5029 -0.5340
 9149TIP3    H248863   2.048   4.563  14.367  0.0025  0.5816 -0.3982
 9150TIP3   OH248864   4.495   0.444   0.574  0.6942  0.0333 -0.4920
 9150TIP3    H148865   4.585   0.470   0.553  0.7401 -1.4697 -2.5440
 9150TIP3    H248866   4.503   0.354   0.605  0.0054  0.4053  0.8298
 9151TIP3   OH248867   3.059   3.261  13.356 -0.1931 -0.0741  0.4254
 9151TIP3    H148868   3.050   3.327  13.425 -2.8345 -0.9852  1.0667
 9151TIP3    H248869   3.068   3.312  13.276 -1.2559  1.0713  1.0001
 9152TIP3   OH248870   4.057   2.748  14.184 -0.2807 -0.1655 -0.1301
 9152TIP3    H148871   4.067   2.826  14.239 -2.2002  1.1678 -1.5260
 9152TIP3    H248872   4.131   2.751  14.124  0.8974 -0.7048  1.2494
 9153TIP3   OH248873   3.753   6.050  14.609 -0.1945 -0.5378 -0.1109
 9153TIP3    H148874   3.659   6.032  14.608 -0.7748  2.0411  0.4743
 9153TIP3    H248875   3.780   6.029  14.699 -0.6487  0.4368  0.2764
 9154TIP3   OH248876   3.190   5.830  13.846  0.1022 -0.6341 -1.0131
 9154TIP3    H148877   3.208   5.739  13.869 -0.1596 -0.5969 -0.6356
 9154TIP3    H248878   3.246   5.848  13.771 -0.1686 -1.2356 -1.3646
 9155TIP3   OH248879   0.730   3.148   4.329 -0.0012  0.0992  0.1348
 9155TIP3    H148880   0.800   3.106   4.379  0.1677 -1.2642 -1.1768
 9155TIP3    H248881   0.653   3.093   4.346 -0.5091  0.9622  0.7017
 9156TIP3   OH248882   1.861   5.830   2.219  0.2936  0.1189 -0.1450
 9156TIP3    H148883   1.843   5.890   2.146  0.9819 -0.6540 -0.9799
 9156TIP3    H248884   1.835   5.745   2.186 -0.0591 -0.1449  0.7916
 9157TIP3   OH248885   2.102   1.115  11.921 -0.3002  0.1578  0.5399
 9157TIP3    H148886   2.188   1.101  11.959 -0.4049 -2.6882 -0.0930
 9157TIP3    H248887   2.117   1.175  11.847  0.8914  0.6804  1.1810
 9158TIP3   OH248888   0.145   4.834  13.624 -0.3002  0.7031 -0.3803
 9158TIP3    H148889   0.066   4.887  13.638 -0.6936  0.4525 -1.6063
 9158TIP3    H248890   0.209   4.871  13.685 -1.9386 -0.3919  2.1710
 9159TIP3   OH248891   2.244   6.113   0.561  0.2088  0.0069 -0.7296
 9159TIP3    H148892   2.212   6.023   0.556  1.1973 -0.3580 -0.6891
 9159TIP3    H248893   2.335   6.104   0.588  0.2888  1.0291 -0.6400
 9160TIP3   OH248894   0.679   0.153  17.226 -0.3668  0.3152 -0.0339
 9160TIP3    H148895   0.735   0.228  17.246  0.0446  0.3341 -1.1768
 9160TIP3    H248896   0.599   0.168  17.277  0.9642 -0.1571  2.3727
 9161TIP3   OH248897   2.045   0.560   2.553 -0.0805 -0.7511 -0.2438
 9161TIP3    H148898   2.041   0.524   2.641 -1.1665  0.1975  0.1169
 9161TIP3    H248899   1.972   0.622   2.548  1.1787  0.7598 -1.1037
 9162TIP3   OH248900   5.309   4.231  15.422  0.8465  0.0150  0.0451
 9162TIP3    H148901   5.293   4.324  15.404  1.3704 -0.1124 -1.1554
 9162TIP3    H248902   5.370   4.231  15.495 -0.5936  0.5736  1.3095
 9163TIP3   OH248903   1.355   3.425   3.730  0.4600  0.2984 -0.0827
 9163TIP3    H148904   1.375   3.510   3.769  0.4672  0.3144 -0.1205
 9163TIP3    H248905   1.341   3.444   3.637 -0.5169  0.4199  0.0725
 9164TIP3   OH248906   4.516   2.246   4.375  0.0209  0.2347  0.9008
 9164TIP3    H148907   4.609   2.266   4.374  0.1354 -0.2684  0.6249
 9164TIP3    H248908   4.479   2.302   4.307 -0.2964  2.2109  2.6121
 9165TIP3   OH248909   3.252   4.521  15.425 -0.1465  0.0034 -0.0809
 9165TIP3    H148910   3.318   4.475  15.478  0.3859 -2.4854 -2.6496
 9165TIP3    H248911   3.271   4.613  15.439  3.5103 -0.5906 -0.1561
 9166TIP3   OH248912   6.211   4.756   5.718 -0.5003  0.1317  0.2063
 9166TIP3    H148913   6.143   4.694   5.745  2.3827 -2.4806  2.1638
 9166TIP3    H248914   6.211   4.823   5.786 -1.9890  1.0023 -0.5954
 9167TIP3   OH248915   2.211   4.323  17.104 -0.1909 -0.2666 -0.0143
 9167TIP3    H148916   2.297   4.285  17.121  0.8597  2.3746  1.0960
 9167TIP3    H248917   2.160   4.302  17.182 -0.2324 -0.9491 -0.2191
 9168TIP3   OH248918   5.039   2.055   3.228 -0.1499  0.2124  0.5891
 9168TIP3    H148919   5.011   1.972   3.267  0.9562  0.3635  1.7750
 9168TIP3    H248920   4.990   2.122   3.276  0.0972  0.3195  0.6965
 9169TIP3   OH248921   5.295   2.578   4.653  0.4621 -0.1884  0.0880
 9169TIP3    H148922   5.296   2.671   4.675  1.4868 -0.5106  1.5732
 9169TIP3    H248923   5.231   2.540   4.712 -0.9401 -0.2705 -1.4179
 9170TIP3   OH248924   5.073   3.702   0.344  0.0562  0.3795  1.0996
 9170TIP3    H148925   5.113   3.615   0.343  0.0546  0.3325  2.5339
 9170TIP3    H248926   4.982   3.685   0.369  0.5971  0.9332  3.6953
 9171TIP3   OH248927   1.346   4.462  11.936 -0.6768  0.0840 -0.4845
 9171TIP3    H148928   1.350   4.412  11.854 -0.8909 -0.7365 -0.0054
 9171TIP3    H248929   1.254   4.459  11.961 -0.1456 -2.7115  1.5851
 9172TIP3   OH248930   4.961   6.247  15.495  0.4888  0.2964  0.2546
 9172TIP3    H148931   4.900   6.178  15.470  0.3488 -0.0277  1.4350
 9172TIP3    H248932   5.024   6.250  15.423  0.1987 -0.7033 -0.0564
 9173TIP3   OH248933   6.596   0.949  12.466  0.0669  0.4082 -0.4531
 9173TIP3    H148934   6.559   0.873  12.422 -0.8684 -0.2234  1.2985
 9173TIP3    H248935   6.642   0.913  12.542 -0.2048  1.5477  0.2813
 9174TIP3   OH248936   4.664   3.802  14.539  0.2195  0.5746  0.4957
 9174TIP3    H148937   4.580   3.767  14.569  0.8202 -1.8251 -0.3970
 9174TIP3    H248938   4.729   3.742  14.574  1.2101 -0.2686 -2.4592
 9175TIP3   OH248939   3.119   3.108  13.040  0.1033 -0.6256  0.0114
 9175TIP3    H148940   3.040   3.152  13.071  0.3803  0.6514 -1.0050
 9175TIP3    H248941   3.190   3.150  13.088  0.2161 -1.3027  0.4348
 9176TIP3   OH248942   6.572   1.993  15.267  0.2662  0.3636 -0.3734
 9176TIP3    H148943   6.478   2.011  15.276  0.2893  0.5435 -0.4855
 9176TIP3    H248944   6.583   1.906  15.304 -0.2629 -0.4543 -2.0332
 9177TIP3   OH248945   1.524   6.072  12.665 -0.3316 -0.7047  0.4236
 9177TIP3    H148946   1.443   6.121  12.679  0.4642  0.1807  2.2004
 9177TIP3    H248947   1.594   6.136  12.679  0.7519 -1.0177 -2.6999
 9178TIP3   OH248948   5.046   6.219  13.206  0.2007  0.1783 -0.2142
 9178TIP3    H148949   5.027   6.205  13.113 -0.3081 -1.0025  0.0491
 9178TIP3    H248950   4.982   6.165  13.252  1.3168 -0.3297  0.8027
 9179TIP3   OH248951   4.568   6.064   1.002  0.4287  0.7064  0.5344
 9179TIP3    H148952   4.653   6.041   0.963  0.3584  0.1445  0.7153
 9179TIP3    H248953   4.554   6.155   0.974 -0.7481 -0.3503 -2.8254
 9180TIP3   OH248954   1.938   5.847  13.157 -0.5006 -0.0952  0.0138
 9180TIP3    H148955   1.851   5.854  13.197 -1.1854  0.6145 -1.5429
 9180TIP3    H248956   1.971   5.937  13.158  0.1675 -0.3395  0.4505
 9181TIP3   OH248957   5.337   6.505  16.848 -0.2038  0.1055  0.1670
 9181TIP3    H148958   5.415   6.507  16.902  0.3316  1.5623 -0.5927
 9181TIP3    H248959   5.355   6.567  16.777 -2.4221  1.2673  0.5220
 9182TIP3   OH248960   2.888   4.024   2.919  0.0006  0.6963  0.0196
 9182TIP3    H148961   2.840   4.081   2.979 -2.0850 -0.7632 -0.1913
 9182TIP3    H248962   2.845   3.939   2.926  1.0342 -0.0521 -1.9939
 9183TIP3   OH248963   5.360   3.501  15.174 -0.2665 -0.1181 -0.5619
 9183TIP3    H148964   5.352   3.523  15.081 -0.9230 -1.5253 -0.8660
 9183TIP3    H248965   5.287   3.442  15.191  0.2170 -0.3824  0.6972
 9184TIP3   OH248966   1.929   6.768   0.717 -0.4349 -0.0490 -0.0175
 9184TIP3    H148967   1.852   6.801   0.764 -0.0447 -1.4986  1.7460
 9184TIP3    H248968   1.988   6.739   0.786  1.6034  0.7269 -1.3473
 9185TIP3   OH248969   5.146   1.347  13.656 -0.0455  0.2529  0.2864
 9185TIP3    H148970   5.188   1.333  13.740  3.4571 -0.8535 -1.4466
 9185TIP3    H248971   5.150   1.441  13.641 -0.1490  0.3845  1.0775
 9186TIP3   OH248972   5.700   3.806   0.218  0.7064  0.3610  0.3012
 9186TIP3    H148973   5.787   3.766   0.223  0.8877  0.7313  0.1495
 9186TIP3    H248974   5.703   3.878   0.282  0.9330  1.1532 -0.5716
 9187TIP3   OH248975   6.566   2.367  13.655  0.1778  0.7757  0.3630
 9187TIP3    H148976   6.613   2.413  13.724  1.1606 -0.4173  0.5125
 9187TIP3    H248977   6.487   2.333  13.698  0.0580  1.2663  0.5383
 9188TIP3   OH248978   2.634   2.403   3.664  0.5949 -0.4191  0.0170
 9188TIP3    H148979   2.642   2.315   3.627 -1.3443 -0.5900 -0.0719
 9188TIP3    H248980   2.659   2.461   3.592  0.1817 -0.8578 -0.4904
 9189TIP3   OH248981   6.530   5.820   4.684  0.9316  0.0945 -0.3653
 9189TIP3    H148982   6.482   5.856   4.759  0.1060 -1.9974  0.1987
 9189TIP3    H248983   6.471   5.832   4.610  0.0641 -1.2521  0.0745
 9190TIP3   OH248984   4.211   3.880   3.933 -0.4304 -0.3074 -0.6317
 9190TIP3    H148985   4.164   3.818   3.990  0.1179  0.7504  1.0571
 9190TIP3    H248986   4.220   3.958   3.987  2.0315  0.0066 -1.4123
 9191TIP3   OH248987   2.921   6.457   0.146 -0.1697  0.4394  0.4581
 9191TIP3    H148988   2.922   6.437   0.052  0.7356  0.2468  0.4989
 9191TIP3    H248989   2.828   6.465   0.168 -0.3844  0.8668 -0.5336
 9192TIP3   OH248990   2.288   5.656  14.264  0.4941 -0.0836 -0.1700
 9192TIP3    H148991   2.225   5.585  14.257 -0.7756  0.6892  2.1609
 9192TIP3    H248992   2.238   5.735  14.248  1.9587  0.3931 -3.0611
 9193TIP3   OH248993   0.440   1.252  16.484  0.0876 -0.0626 -0.3393
 9193TIP3    H148994   0.502   1.180  16.468 -0.5846 -0.6436 -0.3875
 9193TIP3    H248995   0.377   1.215  16.546  2.1034  1.8231  3.1738
 9194TIP3   OH248996   6.519   4.309   0.354 -0.0700  0.3290 -0.0223
 9194TIP3    H148997   6.594   4.251   0.341 -0.6810 -0.8996  1.6466
 9194TIP3    H248998   6.448   4.268   0.304 -0.5840 -0.5838  1.4063
 9195TIP3   OH248999   2.065   1.820   0.284  0.0229  0.1405 -0.1822
 9195TIP3    H149000   2.051   1.914   0.296  1.4216  0.6076 -1.8516
 9195TIP3    H249001   2.056   1.806   0.189 -1.6713 -1.7097  0.1806
 9196TIP3   OH249002   1.080   6.580   1.082 -0.1285  0.5224  0.5373
 9196TIP3    H149003   1.146   6.589   1.013  0.3554  0.2790  0.9597
 9196TIP3    H249004   1.130   6.587   1.164 -0.2147 -2.1626  0.9034
 9197TIP3   OH249005   6.774   6.082   4.884  0.1380  0.1286  0.3606
 9197TIP3    H149006   6.710   6.154   4.882  1.0412  0.9345 -1.0741
 9197TIP3    H249007   6.741   6.023   4.952 -2.1624  0.4736 -0.3718
 9198TIP3   OH249008   5.405   4.512  13.839  0.1985  0.0253  0.1251
 9198TIP3    H149009   5.317   4.477  13.854  0.9974 -2.2009  0.0808
 9198TIP3    H249010   5.393   4.585  13.779 -1.5146 -0.9884 -0.8180
 9199TIP3   OH249011   6.443   1.710  14.604  0.0855 -0.1203 -0.3840
 9199TIP3    H149012   6.533   1.726  14.573  0.4704 -1.3890  0.0239
 9199TIP3    H249013   6.424   1.785  14.661  1.1170 -0.1497  0.0215
 9200TIP3   OH249014   2.071   2.853  14.888 -0.0962 -0.8976 -0.3717
 9200TIP3    H149015   2.102   2.912  14.957  0.9156  0.3676 -1.8397
 9200TIP3    H249016   2.138   2.785  14.882  0.0426 -0.7596 -0.3968
 9201TIP3   OH249017   3.284   2.880  16.904  0.0106 -0.5764 -0.1629
 9201TIP3    H149018   3.224   2.807  16.918 -1.3162  0.5095 -0.0680
 9201TIP3    H249019   3.336   2.854  16.828 -0.4000 -1.6375 -0.0953
 9202TIP3   OH249020   2.244   4.792  16.540  0.4334 -0.3902 -0.1398
 9202TIP3    H149021   2.150   4.794  16.555  0.1726 -0.6310 -1.5727
 9202TIP3    H249022   2.253   4.760  16.450  1.7557  2.1822 -1.0311
 9203TIP3   OH249023   2.627   4.833  13.672 -0.0812 -0.0457  0.2872
 9203TIP3    H149024   2.576   4.775  13.728 -1.2885  0.9114  0.2141
 9203TIP3    H249025   2.570   4.908  13.656  0.8050  0.4001 -0.9879
 9204TIP3   OH249026   4.872   5.940  16.609 -0.5283  0.0272 -0.1120
 9204TIP3    H149027   4.831   5.932  16.695 -0.0941  0.6945  0.1578
 9204TIP3    H249028   4.922   6.021  16.613  1.4215 -1.1011 -0.1837
 9205TIP3   OH249029   5.283   6.265  13.977 -0.4709  0.5962 -0.7075
 9205TIP3    H149030   5.253   6.204  13.910 -1.4752  0.1273  0.1484
 9205TIP3    H249031   5.353   6.315  13.934  0.3826 -1.1387 -1.4265
 9206TIP3   OH249032   2.962   2.083  11.395 -0.7118  0.0244  0.1711
 9206TIP3    H149033   2.929   1.999  11.363 -0.5292  0.5637 -1.5325
 9206TIP3    H249034   3.000   2.063  11.481 -0.4681 -1.6700 -0.3013
 9207TIP3   OH249035   4.700   1.957   2.746  0.2335 -0.2062 -0.4217
 9207TIP3    H149036   4.739   2.040   2.771  1.7559 -0.8878 -0.4124
 9207TIP3    H249037   4.703   1.903   2.825 -2.3875  0.2536  0.0896
 9208TIP3   OH249038   6.020   0.066  13.613  0.1601 -0.6409 -0.1603
 9208TIP3    H149039   5.929   0.046  13.591  0.0995 -1.2171  0.5799
 9208TIP3    H249040   6.023   0.062  13.708  0.1051  3.0179  0.1504
 9209TIP3   OH249041   3.642   3.209  11.142  1.1867 -0.0604 -0.1764
 9209TIP3    H149042   3.688   3.290  11.165  2.5357 -0.2948 -1.8487
 9209TIP3    H249043   3.690   3.174  11.067 -1.7288 -0.3330 -2.1144
 9210TIP3   OH249044   0.789   6.065   6.220  0.1551  0.3423  0.1761
 9210TIP3    H149045   0.702   6.106   6.220  0.3311  0.7315  1.1688
 9210TIP3    H249046   0.808   6.048   6.312  1.3210  0.6550  0.0031
 9211TIP3   OH249047   3.949   5.415  11.233  0.0651 -0.4956 -0.0660
 9211TIP3    H149048   3.867   5.415  11.184  0.1718  1.1225 -0.3206
 9211TIP3    H249049   3.923   5.408  11.324 -0.4013  0.3580 -0.1214
 9212TIP3   OH249050   0.025   4.009  12.023 -0.6456 -0.4375  0.1710
 9212TIP3    H149051  -0.011   4.031  12.109 -1.0470  0.4280 -0.2069
 9212TIP3    H249052   0.002   4.084  11.967  0.0033 -0.7789 -0.5787
 9213TIP3   OH249053   1.159   0.169  12.502 -0.4873 -0.1285  0.3766
 9213TIP3    H149054   1.241   0.189  12.547  0.7220 -2.5766 -0.5950
 9213TIP3    H249055   1.101   0.137  12.571  0.2535 -0.7811  0.7113
 9214TIP3   OH249056   5.991   4.956   5.599 -0.0256 -0.3573  0.3506
 9214TIP3    H149057   5.903   4.925   5.577 -0.5288  0.6670  0.8236
 9214TIP3    H249058   5.977   5.046   5.629  1.3616  0.3545 -1.0049
 9215TIP3   OH249059   1.062   0.835  17.132 -0.2716  0.5234 -0.2353
 9215TIP3    H149060   1.085   0.811  17.042 -1.6669 -1.3669 -0.1558
 9215TIP3    H249061   1.146   0.854  17.174  0.5617 -0.2336 -1.4949
 9216TIP3   OH249062   5.668   2.866  15.324  0.4318  0.1706  0.2998
 9216TIP3    H149063   5.746   2.829  15.365 -0.7128 -0.5985  1.8964
 9216TIP3    H249064   5.620   2.907  15.396 -1.0232 -0.0706 -0.4930
 9217TIP3   OH249065   0.973   0.827   4.116 -0.7041 -0.0723 -0.0837
 9217TIP3    H149066   0.912   0.808   4.188 -1.0814 -2.1729 -0.8944
 9217TIP3    H249067   1.058   0.800   4.150 -1.1537 -2.9867 -1.0187
 9218TIP3   OH249068   1.643   5.823   0.923  0.5126  0.0643  0.5491
 9218TIP3    H149069   1.674   5.832   0.833  0.7383 -0.0772  0.6126
 9218TIP3    H249070   1.551   5.797   0.914 -0.1165  2.1383  0.3531
 9219TIP3   OH249071   3.172   0.741   2.560  0.2296  0.4545 -0.1204
 9219TIP3    H149072   3.111   0.762   2.631  0.8106 -0.6247  0.7508
 9219TIP3    H249073   3.127   0.675   2.508  0.0326  0.8179 -0.4106
 9220TIP3   OH249074   6.761   0.296   4.243 -0.3472  0.0176  0.5154
 9220TIP3    H149075   6.827   0.276   4.177  0.5200  0.9719  1.0714
 9220TIP3    H249076   6.698   0.224   4.237  2.2380 -2.5641  1.9864
 9221TIP3   OH249077   0.280   4.335  15.181  0.2606 -0.8314  0.0055
 9221TIP3    H149078   0.285   4.240  15.181  0.9299 -0.8015 -0.0300
 9221TIP3    H249079   0.260   4.359  15.091  0.3827 -0.9281 -0.0477
 9222TIP3   OH249080   0.832   1.545   3.038  0.3236 -0.1396  0.1331
 9222TIP3    H149081   0.789   1.601   3.103 -1.6396  0.4972 -1.5828
 9222TIP3    H249082   0.776   1.467   3.033  0.1085  0.0714 -1.1478
 9223TIP3   OH249083   1.474   5.746   5.270 -0.7115  0.2601 -0.1163
 9223TIP3    H149084   1.489   5.781   5.358 -1.9306  0.4712  0.0271
 9223TIP3    H249085   1.447   5.822   5.219 -0.9475 -0.0355 -0.4301
 9224TIP3   OH249086   1.091   2.221  13.830 -0.2444  0.2361  0.3567
 9224TIP3    H149087   1.109   2.305  13.787 -0.5726 -0.1830 -0.6281
 9224TIP3    H249088   1.136   2.227  13.914  0.6515  0.9863 -0.1517
 9225TIP3   OH249089   4.975   0.858   1.688  0.3336  0.1461  0.4591
 9225TIP3    H149090   5.005   0.849   1.778  0.2940  3.4474  0.9260
 9225TIP3    H249091   4.884   0.889   1.697  1.1640  3.1975 -0.5174
 9226TIP3   OH249092   3.533   4.792  12.511  0.3240  0.1087 -0.3559
 9226TIP3    H149093   3.533   4.774  12.605  1.0250  0.5265 -0.2645
 9226TIP3    H249094   3.449   4.760  12.480  0.0371  0.0790  0.4377
 9227TIP3   OH249095   4.946   4.621  16.836 -0.5466 -0.1833 -0.4620
 9227TIP3    H149096   4.917   4.606  16.746 -1.2116 -3.0024  0.1139
 9227TIP3    H249097   5.042   4.621  16.830 -0.3966  4.4404 -1.7060
 9228TIP3   OH249098   0.987   0.745  16.651 -0.2873  0.1187 -0.7510
 9228TIP3    H149099   0.896   0.752  16.623 -0.5933 -1.4367 -0.2537
 9228TIP3    H249100   1.029   0.690  16.585 -0.2833 -1.0398  0.1719
 9229TIP3   OH249101   3.367   4.092   4.814 -0.1689  0.8502 -0.3894
 9229TIP3    H149102   3.298   4.084   4.747  0.4473 -0.0803 -0.9453
 9229TIP3    H249103   3.321   4.121   4.892 -1.0333  1.2217 -1.0149
 9230TIP3   OH249104   1.238   2.593  11.184  0.0719  0.4548 -0.3292
 9230TIP3    H149105   1.237   2.498  11.180  0.7766  0.4426 -0.2847
 9230TIP3    H249106   1.277   2.621  11.101 -2.2501  0.7973 -1.3907
 9231TIP3   OH249107   4.196   6.490  13.847  0.1110 -0.2754 -0.5466
 9231TIP3    H149108   4.124   6.546  13.818 -1.2743 -0.8684  1.5444
 9231TIP3    H249109   4.269   6.551  13.862 -0.3527  0.5166 -1.3784
 9232TIP3   OH249110   6.535   3.383  16.905  0.3186 -0.9193 -0.7385
 9232TIP3    H149111   6.495   3.300  16.932 -1.0727  0.2160  0.8717
 9232TIP3    H249112   6.621   3.383  16.948 -0.0746 -1.1021  0.0592
 9233TIP3   OH249113   5.341   5.439   4.635 -0.0537  0.6833  0.1286
 9233TIP3    H149114   5.354   5.348   4.662 -0.8553  0.9987  1.7706
 9233TIP3    H249115   5.280   5.434   4.562 -1.7500 -0.0437  1.5200
 9234TIP3   OH249116   1.362   4.106   4.596 -0.4241  0.2148  0.3793
 9234TIP3    H149117   1.330   4.093   4.685 -2.1246  1.1010 -0.0515
 9234TIP3    H249118   1.356   4.020   4.555 -0.3618 -0.0354  0.8884
 9235TIP3   OH249119   2.236   0.776  12.975  0.5744 -0.2553 -0.8070
 9235TIP3    H149120   2.233   0.842  12.907  0.2131 -1.3345 -1.8805
 9235TIP3    H249121   2.252   0.694  12.928  0.1250 -1.0590  0.3861
 9236TIP3   OH249122   1.386   3.957  11.144  0.4290  0.0368  0.6111
 9236TIP3    H149123   1.441   3.900  11.197 -0.3008 -2.2431 -0.9341
 9236TIP3    H249124   1.445   4.024  11.110  1.2343  0.4986  2.7808
 9237TIP3   OH249125   5.532   2.418   6.113 -0.3577 -0.3726 -0.2452
 9237TIP3    H149126   5.498   2.376   6.192  0.4237  0.6309  0.6627
 9237TIP3    H249127   5.517   2.511   6.128 -2.0673 -0.2653 -2.2164
 9238TIP3   OH249128   3.380   4.581   0.384  0.0055 -0.2198  0.5565
 9238TIP3    H149129   3.395   4.647   0.317  1.7676 -3.1802 -2.2336
 9238TIP3    H249130   3.458   4.584   0.439 -1.0288  1.5679  2.0590
 9239TIP3   OH249131   4.936   5.452   1.611  0.1823 -0.1151  0.1431
 9239TIP3    H149132   4.988   5.506   1.671  1.8258  1.0074 -2.1136
 9239TIP3    H249133   4.851   5.496   1.607  0.3544  0.3104  0.9285
 9240TIP3   OH249134   6.778   1.634  16.480  0.3925 -0.4278 -0.2740
 9240TIP3    H149135   6.776   1.723  16.516  0.0771 -0.3757 -0.4157
 9240TIP3    H249136   6.844   1.589  16.533  4.3970  1.1993 -3.3646
 9241TIP3   OH249137   4.514   4.286   2.257 -0.2771 -0.1297  0.0738
 9241TIP3    H149138   4.491   4.276   2.165 -2.5820  1.9367  0.3444
 9241TIP3    H249139   4.496   4.200   2.295  2.5001 -1.6338 -1.6046
 9242TIP3   OH249140   3.679   3.824   5.689  0.1258  0.0350  0.1146
 9242TIP3    H149141   3.611   3.810   5.623  0.1567  0.8806 -0.1094
 9242TIP3    H249142   3.664   3.756   5.754 -1.7795  0.9858  0.7489
 9243TIP3   OH249143   4.477   0.443   2.588 -0.2635 -0.1457  0.4037
 9243TIP3    H149144   4.567   0.461   2.563 -0.4336  2.5525  1.3661
 9243TIP3    H249145   4.470   0.478   2.677 -2.5693  0.9297 -0.1277
 9244TIP3   OH249146   5.625   0.897   3.139  0.0235  0.5964  0.7535
 9244TIP3    H149147   5.714   0.904   3.175  0.3867 -2.8986  0.8932
 9244TIP3    H249148   5.631   0.936   3.052  1.4976  1.0927  1.0506
 9245TIP3   OH249149   2.248   1.961  14.682 -0.1096  0.2326  0.1513
 9245TIP3    H149150   2.319   2.024  14.695  0.2425  0.2211 -1.4382
 9245TIP3    H249151   2.191   2.003  14.617 -0.2423 -0.7927 -0.4092
 9246TIP3   OH249152   3.430   5.641   3.551  0.2681  0.1140 -0.7740
 9246TIP3    H149153   3.482   5.684   3.483  1.8900  0.1388  0.4109
 9246TIP3    H249154   3.495   5.606   3.612 -1.1020  0.7840  1.1788
 9247TIP3   OH249155   5.919   4.647  15.554  0.0067 -0.5394  0.3520
 9247TIP3    H149156   5.983   4.596  15.505  0.2047  0.4715 -0.4753
 9247TIP3    H249157   5.897   4.720  15.496 -0.1382  0.4152  1.5703
 9248TIP3   OH249158   1.954   5.136  13.372  0.2951  0.2758 -0.3628
 9248TIP3    H149159   2.020   5.194  13.334 -0.1257  0.0548 -1.4731
 9248TIP3    H249160   1.871   5.179  13.353  0.0908  0.2898  0.5601
 9249TIP3   OH249161   3.203   2.611   4.402  0.2755 -0.1516 -0.0177
 9249TIP3    H149162   3.208   2.584   4.310  0.6467 -1.7654  0.4560
 9249TIP3    H249163   3.290   2.593   4.437  0.6319  1.9394  0.3008
 9250TIP3   OH249164   3.337   2.350   3.091  0.1006 -0.1762  0.2982
 9250TIP3    H149165   3.399   2.395   3.149 -0.3346 -0.8169  1.2967
 9250TIP3    H249166   3.257   2.402   3.096  0.7638  1.1595 -1.6887
 9251TIP3   OH249167   3.084   0.897  11.659 -0.1489  0.5473 -0.4127
 9251TIP3    H149168   3.137   0.853  11.592 -1.1331  0.3987 -1.1129
 9251TIP3    H249169   3.113   0.989  11.655 -0.5196  0.6400 -1.3873
 9252TIP3   OH249170   6.739   2.208   5.134  0.1512 -0.0735  0.4298
 9252TIP3    H149171   6.783   2.162   5.205 -0.2906 -1.2944 -0.0611
 9252TIP3    H249172   6.646   2.187   5.144 -0.1056  0.9805  0.3756
 9253TIP3   OH249173   6.674   6.599  14.553  0.0379 -0.3013  0.8035
 9253TIP3    H149174   6.734   6.556  14.614 -0.8050 -2.0557  0.4623
 9253TIP3    H249175   6.692   6.557  14.469 -0.9348 -0.1023  0.4854
 9254TIP3   OH249176   4.417   0.034  16.387 -0.7730 -0.0478 -0.4988
 9254TIP3    H149177   4.379   0.061  16.303  0.4273  0.5702 -0.8705
 9254TIP3    H249178   4.467   0.110  16.415 -2.6893  0.5103  1.7721
 9255TIP3   OH249179   0.828   0.332   5.591  1.2035 -0.1299  0.2511
 9255TIP3    H149180   0.865   0.411   5.553 -1.9736  1.3101 -0.1929
 9255TIP3    H249181   0.785   0.288   5.518 -1.5427  0.5646  1.3286
 9256TIP3   OH249182   4.666   3.958  15.391 -0.4046 -0.3245 -0.4627
 9256TIP3    H149183   4.703   3.872  15.367  3.8243  1.0950  0.0965
 9256TIP3    H249184   4.650   4.001  15.307  1.6877 -0.1525 -0.8230
 9257TIP3   OH249185   1.537   1.858  16.903 -0.3345 -0.3479  0.1894
 9257TIP3    H149186   1.533   1.825  16.993 -0.6408  0.1239  0.3553
 9257TIP3    H249187   1.594   1.935  16.909 -1.0405  0.1846  0.1429
 9258TIP3   OH249188   3.728   6.073  16.535 -0.2761 -0.3298 -0.6936
 9258TIP3    H149189   3.700   5.985  16.507 -2.1462  0.0885 -0.2526
 9258TIP3    H249190   3.675   6.133  16.483  0.5195  0.5473 -0.5193
 9259TIP3   OH249191   2.051   4.583  14.560  0.1932  0.5343 -0.6314
 9259TIP3    H149192   1.987   4.547  14.621  0.1795  0.1545 -0.8667
 9259TIP3    H249193   2.135   4.552  14.592  0.4288  2.2152  0.5245
 9260TIP3   OH249194   0.339   2.185   3.817  0.8035 -0.1407  0.1737
 9260TIP3    H149195   0.287   2.210   3.893 -0.5937 -0.5654 -0.6007
 9260TIP3    H249196   0.360   2.268   3.774 -0.5552 -0.0150 -0.3114
 9261TIP3   OH249197   4.532   4.030   3.159 -0.2858 -0.5105  0.8906
 9261TIP3    H149198   4.562   3.939   3.150  0.9043 -0.1334  0.8909
 9261TIP3    H249199   4.568   4.059   3.243  1.0379  0.5800 -0.0222
 9262TIP3   OH249200   0.275   0.335  10.993 -0.0220 -0.1656  0.3958
 9262TIP3    H149201   0.276   0.254  10.943  0.8271  0.9985 -1.5651
 9262TIP3    H249202   0.345   0.388  10.956 -0.2663  1.3267  1.9086
 9263TIP3   OH249203   0.910   4.080  13.895  0.1608 -0.2271 -0.3363
 9263TIP3    H149204   0.952   4.088  13.810  1.3704  1.3977  0.3607
 9263TIP3    H249205   0.855   4.159  13.903 -0.5948 -0.7717  0.0574
 9264TIP3   OH249206   4.382   2.204  11.423 -0.3726 -0.5258 -0.0078
 9264TIP3    H149207   4.346   2.171  11.340  0.4516 -0.0305 -0.5793
 9264TIP3    H249208   4.453   2.263  11.397 -0.3140 -0.1046  1.0516
 9265TIP3   OH249209   4.614   3.226  15.292  0.1402  0.3097 -0.6791
 9265TIP3    H149210   4.593   3.275  15.372  0.1951  0.0454 -0.4992
 9265TIP3    H249211   4.534   3.177  15.272  1.0457 -2.0460  0.9871
 9266TIP3   OH249212   6.073   6.106  16.229  0.5168 -0.1025  0.2162
 9266TIP3    H149213   6.026   6.086  16.148 -0.0498  2.1850 -0.0719
 9266TIP3    H249214   6.005   6.135  16.290  0.9990 -1.3521  1.4116
 9267TIP3   OH249215   2.053   0.877   5.096 -0.5259 -0.0811 -0.3262
 9267TIP3    H149216   2.124   0.858   5.157  0.7263 -0.4336 -1.8182
 9267TIP3    H249217   2.062   0.970   5.076 -1.4615  0.2374  0.6208
 9268TIP3   OH249218   6.604   3.088  12.446 -0.1064 -0.4824  0.0444
 9268TIP3    H149219   6.672   3.115  12.384  1.7956  0.9120  2.5639
 9268TIP3    H249220   6.612   2.992  12.449  0.7271 -0.4561 -0.7846
 9269TIP3   OH249221   4.989   1.772  12.377  0.5040 -0.3166 -0.2634
 9269TIP3    H149222   4.964   1.705  12.440  1.1377 -0.8669 -0.5726
 9269TIP3    H249223   4.911   1.827  12.367  0.2274 -0.5429  0.5775
 9270TIP3   OH249224   3.203   5.160   3.064  0.2794 -0.3138 -0.9131
 9270TIP3    H149225   3.224   5.221   3.135  0.7897  0.7954 -1.9614
 9270TIP3    H249226   3.129   5.110   3.096  1.1907 -0.6310  0.8266
 9271TIP3   OH249227   6.223   0.125   2.084 -0.6115 -0.1913  0.4594
 9271TIP3    H149228   6.299   0.101   2.032 -0.8968 -1.5394  0.6108
 9271TIP3    H249229   6.240   0.215   2.113  0.3447 -0.0407 -0.5065
 9272TIP3   OH249230   3.287   6.654  15.081 -0.3259  0.2219  0.1675
 9272TIP3    H149231   3.360   6.653  15.019 -0.0183 -0.0228  0.5305
 9272TIP3    H249232   3.217   6.700  15.035 -0.2241 -0.2714 -0.5039
 9273TIP3   OH249233   0.617   0.206  14.633 -0.0814 -0.3264  0.2364
 9273TIP3    H149234   0.682   0.159  14.685  1.2534  1.4810  0.3040
 9273TIP3    H249235   0.551   0.234  14.697 -0.2331 -1.0226  0.3899
 9274TIP3   OH249236   2.495   6.565   0.670 -0.1716  0.1791  0.2520
 9274TIP3    H149237   2.529   6.476   0.675 -1.0016 -0.2681 -1.4005
 9274TIP3    H249238   2.525   6.598   0.586 -1.2104  0.8772  0.1348
 9275TIP3   OH249239   5.435   5.851  11.531 -0.4044 -0.1255  0.0075
 9275TIP3    H149240   5.419   5.913  11.602 -0.0615  1.1044 -0.9500
 9275TIP3    H249241   5.527   5.826  11.542 -0.2010  0.4607 -0.2756
 9276TIP3   OH249242   6.599   1.708   0.014  0.1674 -0.3849 -0.1192
 9276TIP3    H149243   6.561   1.747  -0.065  0.7974  0.1863 -0.1524
 9276TIP3    H249244   6.672   1.655  -0.019  1.0000  0.5674  0.1260
 9277TIP3   OH249245   2.453   2.259  11.442  0.3448  0.3486 -0.6741
 9277TIP3    H149246   2.479   2.180  11.395  0.1224  0.0628 -0.3200
 9277TIP3    H249247   2.447   2.326  11.374  0.3644  0.0201 -1.0055
 9278TIP3   OH249248   2.941   3.215   2.595  0.6963  0.0612 -0.3131
 9278TIP3    H149249   2.969   3.197   2.684  0.1494 -0.8551 -0.3088
 9278TIP3    H249250   2.848   3.190   2.593  0.8382 -0.4632 -1.2651
 9279TIP3   OH249251   1.955   3.245  12.448  0.0960 -0.0764  0.0873
 9279TIP3    H149252   2.027   3.186  12.468 -0.9422 -0.9479  1.4197
 9279TIP3    H249253   1.975   3.279  12.361  0.9231 -2.0882 -0.5501
 9280TIP3   OH249254   2.585   2.359  14.151  0.3837 -0.6149 -0.4766
 9280TIP3    H149255   2.583   2.265  14.136  0.9295 -0.7430  0.1787
 9280TIP3    H249256   2.634   2.369  14.233 -0.2551  0.1969 -0.1819
 9281TIP3   OH249257   0.718   5.913  12.965 -0.4864  0.6054 -0.7224
 9281TIP3    H149258   0.756   5.933  12.880  0.4606  0.8893 -0.2459
 9281TIP3    H249259   0.786   5.864  13.011 -0.7181  1.0615  0.1269
 9282TIP3   OH249260   5.515   4.644   5.988 -0.0450  0.0398 -0.5104
 9282TIP3    H149261   5.434   4.671   5.943  0.6156  1.7515 -0.7544
 9282TIP3    H249262   5.495   4.557   6.021 -3.4118  1.7363  2.7087
 9283TIP3   OH249263   4.065   2.656  10.479 -0.4851  0.2322  0.1140
 9283TIP3    H149264   4.115   2.579  10.454  0.2300  0.6569  0.1939
 9283TIP3    H249265   4.017   2.630  10.558 -1.3040 -0.5372 -0.6184
 9284TIP3   OH249266   2.945   1.023   4.591 -0.1966  0.4048  0.6233
 9284TIP3    H149267   2.911   1.111   4.610  0.7582  1.2930 -1.5373
 9284TIP3    H249268   2.888   0.964   4.641 -2.7003  2.0487 -0.1101
 9285TIP3   OH249269   2.463   4.000   0.629 -0.1368 -0.2974  0.1353
 9285TIP3    H149270   2.392   4.064   0.618  0.4771  0.2637 -0.7572
 9285TIP3    H249271   2.458   3.974   0.720 -0.6913  0.7128  0.4124
 9286TIP3   OH249272   1.092   3.871   2.622 -0.0255  0.4846  0.5925
 9286TIP3    H149273   1.172   3.839   2.581 -0.8534 -1.0636  0.1069
 9286TIP3    H249274   1.032   3.796   2.619 -1.4494  1.5661  1.0568
 9287TIP3   OH249275   2.364   1.394   1.155 -0.3286 -0.2916  0.3923
 9287TIP3    H149276   2.333   1.436   1.235 -0.4744 -0.2828  0.3312
 9287TIP3    H249277   2.439   1.340   1.183  1.2880  1.7070  0.1355
 9288TIP3   OH249278   3.756   0.754   3.203 -0.2273 -0.1351  0.1073
 9288TIP3    H149279   3.789   0.716   3.122 -1.9631 -0.6850 -0.3970
 9288TIP3    H249280   3.766   0.848   3.191  0.4760 -0.2572 -0.3094
 9289TIP3   OH249281   0.452   0.387   1.288  0.6060  0.2398  0.3491
 9289TIP3    H149282   0.494   0.385   1.202  1.4511 -1.7445  0.7475
 9289TIP3    H249283   0.524   0.379   1.350 -0.2043 -3.0650  1.0518
 9290TIP3   OH249284   3.375   3.234   1.007 -0.5576 -0.6535 -0.1741
 9290TIP3    H149285   3.374   3.304   1.073  0.5030 -0.5598 -0.2296
 9290TIP3    H249286   3.308   3.173   1.036  0.1368 -0.8064  1.2311
 9291TIP3   OH249287   6.433   0.148   3.796  0.0945  0.6174  0.6613
 9291TIP3    H149288   6.415   0.063   3.836  0.2186 -0.0723 -0.6673
 9291TIP3    H249289   6.528   0.156   3.799  0.2347 -0.1251 -0.7501
 9292TIP3   OH249290   5.508   6.345   1.278 -0.3037  0.6692  0.1501
 9292TIP3    H149291   5.424   6.379   1.247 -1.2394  2.6180  4.1570
 9292TIP3    H249292   5.485   6.284   1.348  1.6838 -1.2749 -0.7662
 9293TIP3   OH249293   0.879   6.775   1.036 -0.2360 -0.0811  0.1302
 9293TIP3    H149294   0.948   6.836   1.010 -0.9581 -0.2795 -2.4829
 9293TIP3    H249295   0.925   6.693   1.056  0.3218 -0.2798 -1.7944
 9294TIP3   OH249296   5.515   6.116  12.381  0.6835 -0.3719  0.5129
 9294TIP3    H149297   5.440   6.056  12.383  1.3595 -1.3259 -0.7898
 9294TIP3    H249298   5.498   6.172  12.305  1.5667 -1.0227 -0.1921
 9295TIP3   OH249299   4.862   5.858  14.611  0.0905 -0.4592  0.1218
 9295TIP3    H149300   4.797   5.920  14.578 -0.7895 -1.3706  0.0564
 9295TIP3    H249301   4.922   5.910  14.663 -1.4660  0.2387  1.2918
 9296TIP3   OH249302   3.792   0.847   2.056  0.6679 -0.4395  0.1737
 9296TIP3    H149303   3.867   0.791   2.038 -0.8080 -2.4253 -0.0472
 9296TIP3    H249304   3.818   0.898   2.133  2.6097 -0.2987 -0.5355
 9297TIP3   OH249305   6.728   0.395   0.104  0.7395 -0.3275  0.3427
 9297TIP3    H149306   6.698   0.325   0.046  3.3056  0.4788 -2.2072
 9297TIP3    H249307   6.651   0.420   0.154 -1.2869 -2.1386 -1.6642
 9298TIP3   OH249308   1.285   0.390   0.591 -0.0144 -0.2500  0.3747
 9298TIP3    H149309   1.289   0.297   0.614  1.2507 -0.3289 -0.0447
 9298TIP3    H249310   1.250   0.433   0.669 -0.9323 -1.1117  0.4507
 9299TIP3   OH249311   6.775   6.527  15.238  0.6278 -0.4747 -0.4959
 9299TIP3    H149312   6.827   6.474  15.298  0.1098  0.1011  0.4907
 9299TIP3    H249313   6.808   6.616  15.249  0.0751 -0.2547 -0.5582
 9300TIP3   OH249314   2.958   2.232  15.101  0.7124 -0.0265  0.1362
 9300TIP3    H149315   2.973   2.199  15.190 -0.2981 -0.1297  0.2714
 9300TIP3    H249316   3.029   2.193  15.049  1.3016  0.0254  0.8914
 9301TIP3   OH249317   4.299   1.563   3.297 -0.9295  0.3126  0.2309
 9301TIP3    H149318   4.242   1.584   3.224  0.2369 -1.4668 -1.2827
 9301TIP3    H249319   4.280   1.471   3.317  0.9213 -0.1589  0.0582
 9302TIP3   OH249320   4.464   2.391  16.982 -0.6865  0.1428  0.0389
 9302TIP3    H149321   4.500   2.349  17.060  1.8265 -0.7198 -1.4524
 9302TIP3    H249322   4.413   2.465  17.016  0.0993 -0.3368  2.4824
 9303TIP3   OH249323   4.108   3.688   5.460  0.4604  0.2082 -0.4803
 9303TIP3    H149324   4.160   3.656   5.534 -2.0644  0.3165  1.4657
 9303TIP3    H249325   4.037   3.624   5.451 -0.7281  1.5517 -1.0943
 9304TIP3   OH249326   2.030   3.994   0.187  0.1079 -0.5332  0.2019
 9304TIP3    H149327   2.102   3.967   0.130  0.1035  0.2702 -0.1979
 9304TIP3    H249328   2.071   4.048   0.254 -0.1272  0.0866 -0.1369
 9305TIP3   OH249329   1.185   4.635   0.353  1.2140  0.5491 -0.4196
 9305TIP3    H149330   1.200   4.547   0.318 -0.9525  0.1018 -0.3380
 9305TIP3    H249331   1.205   4.627   0.447 -1.1450 -0.5216  0.0622
 9306TIP3   OH249332   3.791   1.398   3.675  0.0766 -0.5104 -0.4757
 9306TIP3    H149333   3.829   1.436   3.755 -0.1676  0.1901 -0.6885
 9306TIP3    H249334   3.786   1.471   3.613  1.1716 -1.2482 -1.4787
 9307TIP3   OH249335   4.093   1.522   3.779 -0.1355  0.6723 -0.6288
 9307TIP3    H149336   4.143   1.476   3.712  0.5774 -0.9828  0.9525
 9307TIP3    H249337   4.087   1.460   3.851 -3.9300  1.0267 -0.4396
 9308TIP3   OH249338   5.108   0.124   1.087  0.1746 -0.2072  0.6233
 9308TIP3    H149339   5.057   0.064   1.031 -1.5149 -0.7818  2.6249
 9308TIP3    H249340   5.046   0.194   1.108  1.0862  0.4967  0.9892
 9309TIP3   OH249341   4.826   5.926  14.889 -0.1633  0.3436 -0.0050
 9309TIP3    H149342   4.759   5.882  14.940 -0.4784  0.6279 -0.1740
 9309TIP3    H249343   4.783   6.004  14.852 -0.4901 -0.8118 -2.2469
 9310TIP3   OH249344   3.097   0.544  15.944  0.6933  0.6664  0.3966
 9310TIP3    H149345   3.159   0.584  16.005 -0.5302  2.6863  0.4275
 9310TIP3    H249346   3.037   0.495  15.999  0.5712  1.1235  0.6795
 9311TIP3   OH249347   6.753   1.666  16.940  0.4276  0.2366 -0.1897
 9311TIP3    H149348   6.791   1.605  16.877  0.0026 -0.5370  0.2842
 9311TIP3    H249349   6.788   1.636  17.025 -1.2177 -0.5133  0.2633
 9312TIP3   OH249350   6.536   5.674  10.803 -0.7371 -0.5531 -0.4167
 9312TIP3    H149351   6.532   5.768  10.789 -0.0758 -0.6384 -1.3064
 9312TIP3    H249352   6.451   5.650  10.839 -1.5392  0.1262 -1.8197
 9313TIP3   OH249353   4.007   4.656   4.723 -0.5170 -0.0471 -0.7322
 9313TIP3    H149354   4.068   4.679   4.653 -0.7814  0.5165 -0.7788
 9313TIP3    H249355   3.964   4.576   4.692  1.0852 -1.2025 -0.1523
 9314TIP3   OH249356   1.202   0.274   5.326  0.9449  0.5503 -0.2431
 9314TIP3    H149357   1.181   0.286   5.418  0.1739  0.3287 -0.3857
 9314TIP3    H249358   1.270   0.340   5.308 -0.2836  1.9166 -0.0061
 9315TIP3   OH249359   3.050   2.017   4.465  0.3799 -0.6739  0.6317
 9315TIP3    H149360   2.986   2.049   4.401  1.3760  0.1906  0.0381
 9315TIP3    H249361   3.049   2.084   4.534  0.8618 -0.4844  0.4611
 9316TIP3   OH249362   2.204   3.604  14.246 -0.2957  0.6718 -0.4492
 9316TIP3    H149363   2.136   3.630  14.184 -0.8505 -1.1744 -0.6638
 9316TIP3    H249364   2.175   3.520  14.281  0.8574  0.8379  1.0403
 9317TIP3   OH249365   0.083   2.351   6.069 -0.0718 -0.0380  0.1602
 9317TIP3    H149366   0.101   2.269   6.116  0.6869  0.1019  0.1329
 9317TIP3    H249367   0.079   2.325   5.977 -1.3844 -0.2833  0.2616
 9318TIP3   OH249368   0.172   1.056  13.567 -0.1222  0.2763  0.6738
 9318TIP3    H149369   0.104   1.038  13.502  1.5170  0.7477 -1.2521
 9318TIP3    H249370   0.200   0.970  13.598 -0.4069  0.0270  0.2431
 9319TIP3   OH249371   6.677   5.166  15.421 -0.2456 -0.8496  0.1756
 9319TIP3    H149372   6.677   5.073  15.441  0.0640 -1.0591 -0.7288
 9319TIP3    H249373   6.722   5.207  15.495  0.6650 -1.5570  0.0353
 9320TIP3   OH249374   3.732   6.232   3.534  0.1524 -0.3809  0.3221
 9320TIP3    H149375   3.692   6.154   3.572  1.5922 -1.7090 -0.7411
 9320TIP3    H249376   3.685   6.246   3.452  1.0673 -1.2590 -0.3739
 9321TIP3   OH249377   0.494   5.678  12.873 -0.1065 -0.4431 -0.0329
 9321TIP3    H149378   0.565   5.629  12.832 -0.7808 -0.5359 -1.1276
 9321TIP3    H249379   0.418   5.620  12.868 -0.8254  0.5243 -0.9913
 9322TIP3   OH249380   2.229   4.372   3.229 -0.1189  0.3538  0.2338
 9322TIP3    H149381   2.221   4.331   3.316 -0.3035 -1.6050 -0.6477
 9322TIP3    H249382   2.298   4.322   3.186 -0.6627  0.6888 -1.0708
 9323TIP3   OH249383   5.920   6.290   3.696  0.1119 -0.5124  0.5259
 9323TIP3    H149384   5.892   6.210   3.652  1.2071 -1.1747  0.9944
 9323TIP3    H249385   6.016   6.283   3.699  0.1634  0.4162  1.3133
 9324TIP3   OH249386   6.611   1.437  12.781 -0.5071 -0.4169 -0.1522
 9324TIP3    H149387   6.529   1.454  12.736  0.8195  2.3304 -1.7834
 9324TIP3    H249388   6.605   1.486  12.863 -0.6813 -0.6289 -0.0384
 9325TIP3   OH249389   2.563   1.909  13.991 -0.7816 -0.0126 -0.2119
 9325TIP3    H149390   2.652   1.876  13.979 -0.5584  0.0969  0.9797
 9325TIP3    H249391   2.507   1.844  13.949 -0.2140 -0.8594  0.3130
 9326TIP3   OH249392   1.477   2.581  11.322  0.2237 -0.0155 -0.1952
 9326TIP3    H149393   1.387   2.581  11.290 -0.2262 -0.5140  1.0069
 9326TIP3    H249394   1.530   2.606  11.246 -0.9969  1.1886 -0.6932
 9327TIP3   OH249395   2.551   4.213   1.471 -0.1927  0.2112 -0.2030
 9327TIP3    H149396   2.488   4.181   1.535 -1.1740  2.7133  0.1935
 9327TIP3    H249397   2.533   4.162   1.392 -1.7143 -0.1362  0.3437
 9328TIP3   OH249398   4.304   1.065   1.926  0.2346  0.2807  0.0792
 9328TIP3    H149399   4.215   1.067   1.963 -0.4005  4.2989 -1.1647
 9328TIP3    H249400   4.290   1.062   1.831  1.4011  1.2007 -0.1402
 9329TIP3   OH249401   1.542   6.090   0.579  0.3888  0.1026  0.0605
 9329TIP3    H149402   1.628   6.127   0.600  0.9355 -0.5906 -0.8884
 9329TIP3    H249403   1.527   6.024   0.647  1.8339 -1.6422 -1.1971
 9330TIP3   OH249404   3.857   0.329  16.365  0.0906 -0.1020 -0.0789
 9330TIP3    H149405   3.787   0.388  16.338 -0.6095 -0.1939  1.4121
 9330TIP3    H249406   3.920   0.330  16.293  1.1035  4.0121  0.6409
 9331TIP3   OH249407   0.977   1.676   3.652 -0.1313  0.2982  0.2594
 9331TIP3    H149408   0.964   1.742   3.585  1.1666 -1.5465 -1.9432
 9331TIP3    H249409   1.033   1.719   3.717  0.2674  1.5258 -0.8392
 9332TIP3   OH249410   0.772   2.705  11.497  0.5382  0.1783  0.2005
 9332TIP3    H149411   0.787   2.702  11.403 -0.1597  0.8908  0.0618
 9332TIP3    H249412   0.814   2.626  11.530 -0.4337 -0.8045 -0.8709
 9333TIP3   OH249413   3.244   4.617   3.856  0.3119 -0.8762 -0.3042
 9333TIP3    H149414   3.280   4.656   3.777 -1.4761  1.4333 -0.0746
 9333TIP3    H249415   3.206   4.535   3.828 -0.1119 -0.1854 -1.8039
 9334TIP3   OH249416   1.511   2.943   1.661 -0.0144 -0.0066 -0.2685
 9334TIP3    H149417   1.545   2.871   1.714 -0.5779  0.7595  1.1824
 9334TIP3    H249418   1.589   2.991   1.633  0.3007 -0.5356 -0.3192
 9335TIP3   OH249419   2.809   2.800   1.372 -0.1767  0.3194  0.2100
 9335TIP3    H149420   2.839   2.794   1.281 -0.0757  2.2069  0.0763
 9335TIP3    H249421   2.881   2.844   1.417  0.2391 -1.5457  1.4801
 9336TIP3   OH249422   6.285   4.524  12.273 -0.1097  0.8449  0.1792
 9336TIP3    H149423   6.222   4.588  12.240  0.5585  1.9513  0.9860
 9336TIP3    H249424   6.348   4.576  12.323  1.4578 -0.2157 -0.6085
 9337TIP3   OH249425   2.081   2.637   0.492 -0.5463 -0.8197  0.1867
 9337TIP3    H149426   2.005   2.684   0.526  0.4993  0.1370  1.2593
 9337TIP3    H249427   2.119   2.697   0.427  0.6609 -0.2189  1.3981
 9338TIP3   OH249428   2.985   6.400  11.808  0.4688  0.1302  0.2198
 9338TIP3    H149429   2.938   6.468  11.857  0.6285 -0.2764  0.9387
 9338TIP3    H249430   2.979   6.322  11.862 -0.5092 -0.7009 -1.0303
 9339TIP3   OH249431   2.506   3.868  12.369  0.0484  0.0320 -0.5640
 9339TIP3    H149432   2.473   3.887  12.281 -1.8364 -1.2073 -0.1659
 9339TIP3    H249433   2.481   3.778  12.386 -3.0458  1.2657  2.6655
 9340TIP3   OH249434   1.190   2.273  16.067  0.2013 -0.1583 -0.2439
 9340TIP3    H149435   1.228   2.249  15.982 -0.2113  0.4518 -0.6120
 9340TIP3    H249436   1.188   2.191  16.116  0.1692 -0.5843 -0.9317
 9341TIP3   OH249437   6.045   4.853   4.556  0.3496 -0.4589  0.6951
 9341TIP3    H149438   6.037   4.807   4.472  3.6822 -0.8721  0.4618
 9341TIP3    H249439   6.025   4.786   4.622  1.4632 -1.2647  0.2587
 9342TIP3   OH249440   3.911   5.667  12.278  0.2046 -0.1041  0.7741
 9342TIP3    H149441   3.834   5.661  12.222  0.6393 -0.2856  0.1906
 9342TIP3    H249442   3.899   5.748  12.327  0.8859  1.2615 -1.2011
 9343TIP3   OH249443   3.828   3.811   5.026 -0.1160  0.4758  0.3962
 9343TIP3    H149444   3.853   3.888   5.077 -1.7631  0.5270  1.2017
 9343TIP3    H249445   3.744   3.834   4.988 -0.1617 -0.5705 -0.1673
 9344TIP3   OH249446   1.028   2.817  16.437  0.0152  0.0366 -0.3904
 9344TIP3    H149447   1.068   2.855  16.358  1.2740  0.2292  0.3103
 9344TIP3    H249448   1.090   2.836  16.507 -0.2848 -1.5626  0.3652
 9345TIP3   OH249449   3.832   2.836  12.173  0.0858 -0.4303 -0.0965
 9345TIP3    H149450   3.811   2.777  12.101  0.5005 -0.6427 -0.0489
 9345TIP3    H249451   3.812   2.923  12.140 -0.2290 -0.5700 -0.2789
 9346TIP3   OH249452   1.336   5.768   1.809  0.0493 -0.3267 -0.3107
 9346TIP3    H149453   1.426   5.781   1.838  0.1251  0.2209 -0.7630
 9346TIP3    H249454   1.283   5.818   1.871  0.0782 -0.4372 -0.1969
 9347TIP3   OH249455   4.438   3.898  17.246 -0.0225  0.2961 -0.0971
 9347TIP3    H149456   4.526   3.889  17.210 -0.1992 -0.9048 -0.2470
 9347TIP3    H249457   4.423   3.818  17.296 -0.7665  0.8027  0.5183
 9348TIP3   OH249458   4.531   3.081   6.046  0.2127 -0.2948  0.4735
 9348TIP3    H149459   4.513   3.166   6.085  1.1281 -0.1352  0.5743
 9348TIP3    H249460   4.594   3.040   6.106 -0.5206 -1.2064  0.6384
 9349TIP3   OH249461   3.584   4.391   6.672 -0.2593  0.7656 -0.2890
 9349TIP3    H149462   3.641   4.412   6.746 -1.7629  0.6280  0.9732
 9349TIP3    H249463   3.643   4.380   6.598  1.3091  0.8797  0.8967
 9350TIP3   OH249464   5.697   4.032   0.385  0.1973  0.4087  0.1397
 9350TIP3    H149465   5.704   4.117   0.342  1.1215  0.6188  0.6670
 9350TIP3    H249466   5.617   4.037   0.436  0.3140  1.0230  0.2743
 9351TIP3   OH249467   3.820   0.125   3.965 -0.5689  0.6701  0.4494
 9351TIP3    H149468   3.833   0.087   4.052 -0.8551 -0.8369 -0.1377
 9351TIP3    H249469   3.824   0.050   3.905  1.6066  1.8554 -1.0604
 9352TIP3   OH249470   0.226   3.385   1.780 -0.1997  0.3391  0.3076
 9352TIP3    H149471   0.201   3.477   1.768 -1.7836 -0.0208  0.6376
 9352TIP3    H249472   0.271   3.384   1.864  1.5987  1.1119 -0.5950
 9353TIP3   OH249473   0.765   0.611   1.209 -0.0192 -0.1927  0.3502
 9353TIP3    H149474   0.771   0.518   1.234  2.5789 -0.2874 -0.2999
 9353TIP3    H249475   0.799   0.658   1.285  0.0786  0.1150  0.1160
 9354TIP3   OH249476   5.087   2.870  15.837 -0.4449 -1.2996  0.5625
 9354TIP3    H149477   5.172   2.865  15.881  0.3875  2.0849 -0.4059
 9354TIP3    H249478   5.106   2.848  15.746  0.3987  3.0108 -0.5396
 9355TIP3   OH249479   0.785   3.735   2.192  0.0479  0.0767 -0.2348
 9355TIP3    H149480   0.832   3.661   2.155  0.0785 -0.2434  0.4335
 9355TIP3    H249481   0.838   3.811   2.169 -1.2029  0.2275 -3.0479
 9356TIP3   OH249482   5.039   5.701   4.966  0.0607 -0.2639  0.2498
 9356TIP3    H149483   5.126   5.739   4.952  0.3155 -1.3909 -1.5718
 9356TIP3    H249484   5.041   5.619   4.916 -1.9108 -0.5240  0.5356
 9357TIP3   OH249485   4.655   3.733   4.814 -0.2556 -0.0153  0.0832
 9357TIP3    H149486   4.700   3.773   4.740 -1.0449 -0.5351 -0.6895
 9357TIP3    H249487   4.712   3.660   4.840  0.3891  0.6102  0.4807
 9358TIP3   OH249488   5.830   1.357  12.738 -0.0722 -0.2379 -0.2757
 9358TIP3    H149489   5.877   1.304  12.674 -3.1971 -1.9659 -1.2953
 9358TIP3    H249490   5.870   1.334  12.822  2.3924  0.1719 -1.2354
 9359TIP3   OH249491   6.346   0.822   1.052 -0.0590 -0.1711 -0.5976
 9359TIP3    H149492   6.351   0.739   1.006 -1.1628 -1.7693  1.9021
 9359TIP3    H249493   6.263   0.861   1.023 -0.5499 -0.9605 -0.2812
 9360TIP3   OH249494   6.186   4.567  15.558 -0.0584  0.6394  0.2165
 9360TIP3    H149495   6.207   4.606  15.473 -0.0977 -1.6780 -0.9565
 9360TIP3    H249496   6.264   4.582  15.611 -0.4753  3.1471  0.2229
 9361TIP3   OH249497   0.294   5.205   4.868  0.4610 -0.8207  0.5545
 9361TIP3    H149498   0.242   5.285   4.861  1.2563 -0.3753 -0.7002
 9361TIP3    H249499   0.363   5.227   4.932  2.1443  0.4185 -1.5418
 9362TIP3   OH249500   4.482   2.002  16.434  0.3246 -0.4182  0.5334
 9362TIP3    H149501   4.575   1.979  16.436  0.9632  0.8940 -3.7318
 9362TIP3    H249502   4.480   2.096  16.452  0.0237 -0.2350 -0.3707
 9363TIP3   OH249503   2.565   5.428   1.625 -0.2563  0.7208  0.1819
 9363TIP3    H149504   2.550   5.334   1.619  3.4130  0.0782 -0.7895
 9363TIP3    H249505   2.531   5.452   1.712 -2.2130 -1.2132  0.0341
 9364TIP3   OH249506   1.050   0.002   6.438  0.3488 -0.3001 -0.4570
 9364TIP3    H149507   0.966  -0.045   6.439  1.0779 -1.6966 -1.7400
 9364TIP3    H249508   1.041   0.067   6.368  0.7673 -1.3497 -1.5202
 9365TIP3   OH249509   3.731   0.592   3.670 -0.2058  0.2568 -0.1707
 9365TIP3    H149510   3.646   0.593   3.713 -0.1413 -0.1106 -0.0287
 9365TIP3    H249511   3.784   0.532   3.722  0.7649  1.9709  0.8882
 9366TIP3   OH249512   5.311   3.160   3.999 -0.7328  0.4241  0.2208
 9366TIP3    H149513   5.366   3.094   4.041  0.7564  0.0908 -2.0538
 9366TIP3    H249514   5.356   3.243   4.014 -1.2240  0.5861  0.8620
 9367TIP3   OH249515   6.529   2.188  12.752 -0.1847  0.5245 -0.5885
 9367TIP3    H149516   6.545   2.117  12.690  0.1360 -0.1630  0.2675
 9367TIP3    H249517   6.548   2.268  12.702  0.7840 -0.0433 -1.1597
 9368TIP3   OH249518   6.181   2.058  15.086 -0.2568 -0.6283 -0.1767
 9368TIP3    H149519   6.153   2.060  15.177 -0.1822  0.2307 -0.1634
 9368TIP3    H249520   6.108   2.018  15.039 -0.8763  0.1778  0.0748
 9369TIP3   OH249521   0.471   1.239   4.013  0.1926  0.2413  0.1886
 9369TIP3    H149522   0.464   1.143   4.017  1.6600  0.1528  2.1713
 9369TIP3    H249523   0.421   1.269   4.090  2.1646  0.8420  1.2995
 9370TIP3   OH249524   1.143   3.460  15.137  0.0678  0.5421 -0.2390
 9370TIP3    H149525   1.132   3.366  15.151  0.3460  0.5484  0.0405
 9370TIP3    H249526   1.140   3.471  15.042  0.0759  0.2437 -0.2748
 9371TIP3   OH249527   5.540   4.127   0.844  0.3662  0.3016  0.4341
 9371TIP3    H149528   5.451   4.159   0.834  0.2490 -0.1578 -0.0580
 9371TIP3    H249529   5.595   4.205   0.844 -0.1793  0.7851  2.9377
 9372TIP3   OH249530   3.564   2.041   0.725 -0.1724  0.3417  0.1770
 9372TIP3    H149531   3.470   2.060   0.731 -0.0658  0.5567  1.4436
 9372TIP3    H249532   3.607   2.124   0.745  0.3006  0.2594 -0.4616
 9373TIP3   OH249533   4.794   1.388  15.778 -0.5205  0.2402  0.0947
 9373TIP3    H149534   4.777   1.315  15.839 -0.6982  1.3037  1.3564
 9373TIP3    H249535   4.713   1.439  15.779  0.3151  1.6121  0.8772
 9374TIP3   OH249536   6.092   3.550  13.346  0.6903 -0.1950  0.3174
 9374TIP3    H149537   6.130   3.529  13.261  0.3353 -0.2359  0.1687
 9374TIP3    H249538   6.155   3.515  13.410  1.9766  1.5791  0.1092
 9375TIP3   OH249539   1.042   1.993  14.756  0.2602 -1.4810  0.4949
 9375TIP3    H149540   1.046   1.936  14.679 -0.2460 -0.6896 -0.1324
 9375TIP3    H249541   0.959   1.970  14.798  0.2354 -1.4707  0.4520
 9376TIP3   OH249542   3.268   4.431   4.888 -0.2225  0.4127  0.2624
 9376TIP3    H149543   3.228   4.460   4.806 -0.2502 -1.1797 -0.3126
 9376TIP3    H249544   3.195   4.426   4.950 -0.6836 -0.9403 -0.3531
 9377TIP3   OH249545   0.945   3.191  14.473  0.0177  0.2954 -0.9984
 9377TIP3    H149546   1.022   3.138  14.495 -0.3193 -0.0126 -0.5506
 9377TIP3    H249547   0.955   3.270  14.526 -0.1197  0.1330 -0.7313
 9378TIP3   OH249548   3.848   5.208  16.153 -0.9642 -0.3937 -0.4487
 9378TIP3    H149549   3.771   5.224  16.209 -0.1776  1.0998  0.2727
 9378TIP3    H249550   3.823   5.134  16.098 -1.8566 -1.7891  1.7213
 9379TIP3   OH249551   5.217   4.607   5.436  0.0582  0.5775  0.0941
 9379TIP3    H149552   5.214   4.664   5.358  2.1024  2.2850  1.1555
 9379TIP3    H249553   5.128   4.610   5.470 -0.0150  2.9703 -0.0930
 9380TIP3   OH249554   5.367   1.854  13.710 -0.0287 -0.7902  0.0726
 9380TIP3    H149555   5.322   1.818  13.786 -1.2472 -2.1198 -1.2010
 9380TIP3    H249556   5.300   1.904  13.664  0.4212 -0.8132 -0.6280
 9381TIP3   OH249557   6.753   2.253   1.519 -0.0787 -0.5697 -0.0110
 9381TIP3    H149558   6.666   2.225   1.545 -0.1586 -1.5600 -1.3123
 9381TIP3    H249559   6.788   2.297   1.598 -1.4427 -0.8117  0.7567
 9382TIP3   OH249560   5.187   6.318  12.733  0.4312 -0.3673 -0.6675
 9382TIP3    H149561   5.093   6.330  12.728  0.7980  2.4944 -2.9250
 9382TIP3    H249562   5.216   6.380  12.800  0.7888 -0.7410 -0.4720
 9383TIP3   OH249563   2.639   1.153   3.725  0.8765 -0.3078 -0.5878
 9383TIP3    H149564   2.604   1.112   3.804  0.1666  1.2838 -0.0396
 9383TIP3    H249565   2.734   1.139   3.730  0.9164  0.3057  0.8942
 9384TIP3   OH249566   6.646   2.724   0.062 -0.0650 -0.1244  0.3276
 9384TIP3    H149567   6.678   2.637   0.036 -2.9298 -1.1373 -0.2213
 9384TIP3    H249568   6.601   2.757  -0.015 -1.0564  0.7977  1.2621
 9385TIP3   OH249569   2.599   6.163  15.422 -0.0257 -0.1770 -0.0139
 9385TIP3    H149570   2.573   6.251  15.398  0.2300 -0.3027 -0.7862
 9385TIP3    H249571   2.651   6.174  15.502  0.9819  0.4962 -0.7451
 9386TIP3   OH249572   6.414   3.218  13.597 -0.1378 -0.1415  0.4314
 9386TIP3    H149573   6.411   3.228  13.502 -1.6391  0.4964  0.5110
 9386TIP3    H249574   6.478   3.283  13.626 -1.2750  1.2183  0.0012
 9387TIP3   OH249575   4.136   2.731   4.362  0.2262  0.4658  0.2893
 9387TIP3    H149576   4.171   2.647   4.332  0.4723  0.7045 -0.1127
 9387TIP3    H249577   4.056   2.709   4.410  0.8747 -0.0797  1.1325
 9388TIP3   OH249578   5.973   3.262   0.158 -0.2298 -0.6756  0.4383
 9388TIP3    H149579   5.973   3.229   0.248 -0.5223 -0.3224  0.5737
 9388TIP3    H249580   6.065   3.268   0.134 -0.0882  0.4874  1.1923
 9389TIP3   OH249581   0.381   5.162   1.542  0.0605  0.2192 -0.2916
 9389TIP3    H149582   0.361   5.222   1.613 -0.1037  0.1965 -0.3172
 9389TIP3    H249583   0.346   5.205   1.464  0.9385  0.6099 -0.4775
 9390TIP3   OH249584   4.959   0.897  15.438 -0.1229  0.0417 -0.3522
 9390TIP3    H149585   4.917   0.862  15.359 -0.3451 -1.7051  0.5055
 9390TIP3    H249586   4.888   0.908  15.500  0.3134 -0.4099  0.2333
 9391TIP3   OH249587   2.760   3.751  15.302 -0.0546 -0.0332  0.2846
 9391TIP3    H149588   2.785   3.719  15.389 -2.7097 -3.0018  0.1660
 9391TIP3    H249589   2.664   3.759  15.306 -0.0613  1.9635 -1.7524
 9392TIP3   OH249590   4.099   1.877   3.393 -0.0494 -0.6062  0.2337
 9392TIP3    H149591   4.063   1.853   3.308  0.1417 -2.0436  0.5222
 9392TIP3    H249592   4.078   1.802   3.450 -0.0893  0.2833  1.4228
 9393TIP3   OH249593   0.262   0.661   4.130  0.3426  0.9541 -0.2970
 9393TIP3    H149594   0.247   0.609   4.052 -1.5712  0.8535  0.1002
 9393TIP3    H249595   0.320   0.607   4.184 -0.1247  0.0505 -0.6845
 9394TIP3   OH249596   3.031   4.414   2.962  0.0558  0.3569  0.3220
 9394TIP3    H149597   3.082   4.335   2.974 -1.8888 -1.2274 -1.1208
 9394TIP3    H249598   3.086   4.471   2.908  0.7672 -0.7845 -0.1856
 9395TIP3   OH249599   1.399   2.840   4.663 -0.7551 -0.3873 -0.5165
 9395TIP3    H149600   1.439   2.755   4.648  0.7436  0.3058 -0.7234
 9395TIP3    H249601   1.355   2.832   4.747  1.6038 -0.6561  0.7969
 9396TIP3   OH249602   0.484   3.208  16.549  0.3126  0.4331 -0.3381
 9396TIP3    H149603   0.511   3.147  16.618 -0.4950  0.6567  0.2043
 9396TIP3    H249604   0.439   3.278  16.597 -1.3231  0.0059 -1.1804
 9397TIP3   OH249605   0.912   4.454  13.345  0.2657  0.0194  0.8885
 9397TIP3    H149606   0.872   4.374  13.380 -1.8790 -0.4070 -2.0659
 9397TIP3    H249607   1.001   4.428  13.322 -0.0076 -1.1757  1.1033
 9398TIP3   OH249608   5.538   0.240   5.449 -0.5273  0.1294 -0.2855
 9398TIP3    H149609   5.553   0.261   5.357 -0.3556  3.5094  0.3763
 9398TIP3    H249610   5.448   0.266   5.466 -0.0907  1.0205  0.8134
 9399TIP3   OH249611   3.067   0.389  14.206 -0.2639 -0.2419  0.3234
 9399TIP3    H149612   3.128   0.318  14.224  0.1963 -0.0502 -0.4471
 9399TIP3    H249613   3.063   0.438  14.288 -0.8163 -1.3156  0.9577
 9400TIP3   OH249614   2.690   1.207  15.083  0.0169  0.9795  0.0369
 9400TIP3    H149615   2.598   1.192  15.108  0.5571  1.0309  2.2864
 9400TIP3    H249616   2.693   1.185  14.990 -1.9950 -0.2815  0.1961
 9401TIP3   OH249617   6.237   5.707   3.298 -0.1707 -0.0531  0.2164
 9401TIP3    H149618   6.174   5.636   3.281  0.3143 -0.0654 -1.8411
 9401TIP3    H249619   6.201   5.754   3.373 -2.4950 -0.2588 -0.6739
 9402TIP3   OH249620   6.120   5.251   5.628 -0.4058 -0.1733 -0.0026
 9402TIP3    H149621   6.051   5.315   5.612  1.1776  2.1091  1.6627
 9402TIP3    H249622   6.112   5.229   5.720 -0.9013 -2.4623 -0.5404
 9403TIP3   OH249623   1.178   6.643  11.604 -0.5232  0.1207 -0.2831
 9403TIP3    H149624   1.229   6.581  11.551 -2.2061 -2.3436  0.8094
 9403TIP3    H249625   1.104   6.667  11.548 -0.2675  0.5731 -0.4313
 9404TIP3   OH249626   4.617   1.188  15.016  0.1282 -0.1374  0.5169
 9404TIP3    H149627   4.650   1.267  15.059 -3.1121  0.2926  2.5801
 9404TIP3    H249628   4.522   1.199  15.015 -0.2672 -2.6227 -2.0630
 9405TIP3   OH249629   4.277   3.220  10.829  0.4577  0.4656  0.1968
 9405TIP3    H149630   4.278   3.297  10.772 -0.2612  0.2032 -0.1861
 9405TIP3    H249631   4.338   3.159  10.787 -0.7546 -0.0789 -0.8118
 9406TIP3   OH249632   3.379   0.816  13.971  0.2022 -0.0875 -0.4862
 9406TIP3    H149633   3.384   0.836  14.065  1.1356  1.1977 -0.7765
 9406TIP3    H249634   3.444   0.746  13.958  1.3007  0.8814 -0.4189
 9407TIP3   OH249635   6.453   5.771   6.916  0.4158 -0.3386 -0.1781
 9407TIP3    H149636   6.449   5.742   7.007  0.6321 -1.2703 -0.4490
 9407TIP3    H249637   6.505   5.703   6.872 -0.7186 -0.5595 -1.2360
 9408TIP3   OH249638   6.605   6.310  11.174 -0.2269 -0.0345  1.2165
 9408TIP3    H149639   6.570   6.399  11.182 -1.2600 -0.3565  0.4672
 9408TIP3    H249640   6.544   6.256  11.224 -1.7108 -0.7993 -1.2455
 9409TIP3   OH249641   0.171   5.290  14.080  0.1644  0.2827 -0.0222
 9409TIP3    H149642   0.119   5.334  14.147  0.3402 -1.6859  1.4890
 9409TIP3    H249643   0.237   5.354  14.054  0.0270  1.1156  1.6006
 9410TIP3   OH249644   2.897   6.644   0.680 -0.0191  0.5745 -0.4702
 9410TIP3    H149645   2.961   6.573   0.674  0.3581  0.7668  0.8869
 9410TIP3    H249646   2.896   6.683   0.592  1.1801  0.0971 -0.7180
 9411TIP3   OH249647   2.477   4.198  16.108  0.0459 -0.4025 -0.0744
 9411TIP3    H149648   2.390   4.201  16.148  0.2316 -2.2862  0.5789
 9411TIP3    H249649   2.462   4.214  16.015 -0.8668  0.3235  0.1905
 9412TIP3   OH249650   2.109   0.490  14.657 -0.1607  0.1012 -0.0107
 9412TIP3    H149651   2.174   0.490  14.727 -0.3588 -3.8513  0.4309
 9412TIP3    H249652   2.037   0.544  14.690  0.6548  0.1043  1.9017
 9413TIP3   OH249653   2.550   6.214  11.860  0.4611 -0.6790  0.1984
 9413TIP3    H149654   2.537   6.233  11.767  3.5441  2.3691  0.1797
 9413TIP3    H249655   2.462   6.213  11.898 -0.7040  1.6585 -2.1719
 9414TIP3   OH249656   1.688   6.548   4.186  0.2133  0.7879 -0.6454
 9414TIP3    H149657   1.750   6.476   4.169  0.2951  0.9779 -1.1815
 9414TIP3    H249658   1.716   6.585   4.270 -0.9454 -0.9665  0.5869
 9415TIP3   OH249659   1.645   2.752   0.410 -0.1161  0.1183  0.8409
 9415TIP3    H149660   1.685   2.812   0.346  2.2597 -1.7903  0.3809
 9415TIP3    H249661   1.563   2.724   0.369  1.1546 -0.7432 -1.2733
 9416TIP3   OH249662   3.441   4.242  14.638 -0.0762 -0.4864  0.0528
 9416TIP3    H149663   3.392   4.251  14.720 -1.3894  0.5943 -0.7950
 9416TIP3    H249664   3.443   4.148  14.621 -1.8905 -0.5808  0.1461
 9417TIP3   OH249665   2.320   1.884   0.704 -0.0347  0.3063 -0.1073
 9417TIP3    H149666   2.245   1.830   0.680  1.8709 -2.7958  0.3769
 9417TIP3    H249667   2.386   1.863   0.638  1.0835  1.4256  0.6077
 9418TIP3   OH249668   1.362   0.912  13.590 -0.0687 -0.2558 -0.2253
 9418TIP3    H149669   1.305   0.958  13.529  1.3176  0.5770 -0.9340
 9418TIP3    H249670   1.319   0.921  13.675 -2.1997 -1.7165 -1.0652
 9419TIP3   OH249671   4.126   0.887   2.657  0.2135  0.2946 -0.6021
 9419TIP3    H149672   4.142   0.801   2.696 -1.4333 -0.2361 -0.9994
 9419TIP3    H249673   4.179   0.888   2.577 -0.6735 -0.8896 -1.2452
 9420TIP3   OH249674   5.324   4.232   6.066  0.2473 -0.0355 -0.0568
 9420TIP3    H149675   5.281   4.156   6.028 -0.6427  0.3697  0.1185
 9420TIP3    H249676   5.270   4.255   6.142  1.3172 -0.0972  0.7399
 9421TIP3   OH249677   3.723   4.224   3.523 -0.0410 -0.1829 -0.4898
 9421TIP3    H149678   3.690   4.256   3.439 -0.6604  0.8221  0.1005
 9421TIP3    H249679   3.674   4.144   3.540  0.4408 -0.6660 -1.2953
 9422TIP3   OH249680   3.439   3.580  14.064 -0.0907  0.2344  0.3151
 9422TIP3    H149681   3.365   3.633  14.033 -0.4499 -0.9289 -0.9093
 9422TIP3    H249682   3.401   3.524  14.131 -0.1375  0.1882  0.2501
 9423TIP3   OH249683   0.109   0.388  12.406  0.0710 -0.0288  0.1274
 9423TIP3    H149684   0.115   0.415  12.314  0.8435 -0.7421 -0.0480
 9423TIP3    H249685   0.060   0.458  12.448  1.4053  1.3034 -0.4460
 9424TIP3   OH249686   4.727   4.246  13.346 -0.2409 -0.2943 -0.2764
 9424TIP3    H149687   4.782   4.170  13.329 -0.8345 -0.5380 -1.1696
 9424TIP3    H249688   4.641   4.222  13.313 -1.0685 -0.1561  1.6689
 9425TIP3   OH249689   2.914   5.756   4.743  0.1419  0.5791  0.2224
 9425TIP3    H149690   2.849   5.721   4.682 -0.6945  0.0879  1.3609
 9425TIP3    H249691   2.996   5.717   4.715 -0.2516  0.2608 -0.5174
 9426TIP3   OH249692   5.881   1.506  14.003 -0.0036  0.3169 -0.3166
 9426TIP3    H149693   5.844   1.588  14.037 -2.0669 -0.7109  0.0954
 9426TIP3    H249694   5.862   1.508  13.909  1.1893  0.8933 -0.5670
 9427TIP3   OH249695   3.296   6.436   1.080 -0.2018 -0.1297  0.6739
 9427TIP3    H149696   3.334   6.499   1.142 -0.5779  1.8680 -1.0053
 9427TIP3    H249697   3.359   6.435   1.007 -0.2250 -1.7262  0.6477
 9428TIP3   OH249698   2.575   3.167  17.239 -0.1440 -0.7592  0.1401
 9428TIP3    H149699   2.623   3.122  17.308 -0.6775  0.1771  1.1523
 9428TIP3    H249700   2.642   3.204  17.183  0.2977 -1.5240  0.1476
 9429TIP3   OH249701   0.318   5.603   0.667 -0.5062 -0.1207 -0.4595
 9429TIP3    H149702   0.284   5.566   0.586  0.4923  0.6103 -1.2375
 9429TIP3    H249703   0.312   5.698   0.654  2.0852  0.0573 -0.7768
 9430TIP3   OH249704   2.245   0.086  16.878 -0.1955 -0.4207  0.4418
 9430TIP3    H149705   2.179   0.143  16.917  0.5909  0.1849  0.9107
 9430TIP3    H249706   2.252   0.013  16.939  0.2473 -0.0130  0.8865
 9431TIP3   OH249707   0.762   5.805   6.457 -0.3043 -0.5374  0.1599
 9431TIP3    H149708   0.810   5.888   6.461 -1.2310  0.0262 -0.1825
 9431TIP3    H249709   0.751   5.780   6.549 -0.0358 -0.2780  0.2675
 9432TIP3   OH249710   3.815   2.989   6.071  0.5666  0.1811  0.3277
 9432TIP3    H149711   3.890   3.012   6.127 -0.9360  0.2211  2.4473
 9432TIP3    H249712   3.785   2.904   6.104  0.0644 -0.1616 -0.9381
 9433TIP3   OH249713   5.756   4.986  17.073 -0.3691 -0.4404 -0.5225
 9433TIP3    H149714   5.729   4.914  17.131 -2.2998  0.6178 -0.0379
 9433TIP3    H249715   5.683   4.997  17.013 -1.8006  3.3185  1.5542
 9434TIP3   OH249716   0.249   1.689  11.441  0.1937  0.3115 -0.4547
 9434TIP3    H149717   0.256   1.674  11.346 -0.0190  0.2256 -0.4570
 9434TIP3    H249718   0.158   1.717  11.454  1.1018  3.8369 -0.7503
 9435TIP3   OH249719   0.433   1.288  12.403 -0.2527  0.7227 -0.3378
 9435TIP3    H149720   0.501   1.233  12.442  1.5312  1.6258 -1.9738
 9435TIP3    H249721   0.362   1.288  12.467 -1.6981 -5.6653 -1.2334
 9436TIP3   OH249722   3.022   1.301  15.511 -0.1342 -0.0214 -0.1723
 9436TIP3    H149723   3.101   1.290  15.563 -0.5369 -1.4610  0.1725
 9436TIP3    H249724   3.053   1.333  15.426  0.8912 -1.1751 -0.2503
 9437TIP3   OH249725   0.807   3.747   4.935  0.0905 -0.1923  0.0790
 9437TIP3    H149726   0.825   3.751   5.029  2.2166  2.5843 -0.3172
 9437TIP3    H249727   0.712   3.734   4.929 -0.9287  3.8688  2.8059
 9438TIP3   OH249728   1.647   0.413   2.198 -0.5603  0.1898  0.1588
 9438TIP3    H149729   1.680   0.395   2.286 -1.3765  1.6085  0.7971
 9438TIP3    H249730   1.552   0.402   2.205 -0.6250  0.2342 -0.5609
 9439TIP3   OH249731   4.245   2.290  17.213  0.4409  0.1672  0.1866
 9439TIP3    H149732   4.244   2.375  17.169  0.6738  0.0025 -0.1442
 9439TIP3    H249733   4.156   2.279  17.247  0.1386  0.1038 -0.6186
 9440TIP3   OH249734   1.350   3.740  16.564  0.5109 -0.8302 -0.4779
 9440TIP3    H149735   1.391   3.745  16.650  0.4370 -0.1564 -0.4743
 9440TIP3    H249736   1.386   3.662  16.524  0.9658 -0.8415 -0.0489
 9441TIP3   OH249737   5.147   6.476   0.961 -0.2587  0.2007 -0.1546
 9441TIP3    H149738   5.135   6.537   0.889 -1.2689  1.0435  0.6977
 9441TIP3    H249739   5.132   6.390   0.922 -0.6127  0.6325 -0.9881
 9442TIP3   OH249740   5.753   2.686   2.884 -0.3143 -0.1487 -0.2671
 9442TIP3    H149741   5.803   2.732   2.951 -1.0455  1.8238 -1.0148
 9442TIP3    H249742   5.717   2.610   2.929  0.6387  0.1845  1.1097
 9443TIP3   OH249743   3.168   4.806  12.774 -0.1790  0.5819  0.1590
 9443TIP3    H149744   3.111   4.839  12.844  0.7383 -0.6950  1.5718
 9443TIP3    H249745   3.152   4.865  12.700 -4.0002 -0.2271  0.1365
 9444TIP3   OH249746   5.432   4.065  16.042 -0.3860  0.1813  0.4203
 9444TIP3    H149747   5.458   3.981  16.004  0.9686  0.3231  0.9895
 9444TIP3    H249748   5.449   4.129  15.973 -1.2566  0.0204  0.0476
 9445TIP3   OH249749   1.739   2.251  16.215  0.1232 -0.1104 -0.3469
 9445TIP3    H149750   1.771   2.231  16.127 -1.3030 -0.1035 -0.8996
 9445TIP3    H249751   1.691   2.334  16.205  0.7487  0.3983  0.6516
 9446TIP3   OH249752   4.824   0.747   1.059 -0.6878  0.0628  0.8140
 9446TIP3    H149753   4.887   0.698   1.007  0.3156  0.6355  1.4751
 9446TIP3    H249754   4.851   0.733   1.150 -1.4605  0.3898  1.1045
 9447TIP3   OH249755   0.026   4.045  16.924  0.2184 -0.6633  0.1428
 9447TIP3    H149756   0.119   4.024  16.919  0.1216 -1.2500  0.7450
 9447TIP3    H249757   0.021   4.123  16.978  0.4264 -0.1325 -0.5915
 9448TIP3   OH249758   5.207   1.698   0.353  0.7713  0.6317 -0.6327
 9448TIP3    H149759   5.301   1.678   0.344  0.4351 -1.1604 -0.5345
 9448TIP3    H249760   5.203   1.793   0.348  2.9650  1.0782  2.7956
 9449TIP3   OH249761   1.705   5.085   1.412  0.0288  0.0757  0.2907
 9449TIP3    H149762   1.662   5.139   1.479 -1.7706 -1.9816  0.9329
 9449TIP3    H249763   1.687   4.995   1.440  3.2399 -0.9177 -0.4947
 9450TIP3   OH249764   6.070   3.730  12.197 -0.6776  0.1845  0.5737
 9450TIP3    H149765   6.159   3.698  12.184 -0.9026 -0.4487  0.5472
 9450TIP3    H249766   6.077   3.794  12.268  0.1678  1.8566 -0.9486
 9451TIP3   OH249767   2.792   0.502   1.206 -0.4262  0.0363 -0.1092
 9451TIP3    H149768   2.839   0.502   1.123  2.8999 -2.2381  1.5627
 9451TIP3    H249769   2.721   0.438   1.193  1.3749 -1.9661 -0.6414
 9452TIP3   OH249770   3.082   1.152  12.077  0.6159 -0.7129  0.3541
 9452TIP3    H149771   3.131   1.223  12.117 -1.7442  1.4406 -0.3029
 9452TIP3    H249772   3.000   1.148  12.127  0.6466 -2.9643  0.3172
 9453TIP3   OH249773   4.059   3.019  16.978  0.4108 -0.3726  0.6887
 9453TIP3    H149774   4.016   3.089  17.027  2.2637  1.4383 -0.1426
 9453TIP3    H249775   4.056   3.047  16.887  0.7109 -1.6411  0.2621
 9454TIP3   OH249776   0.259   6.769  15.534  0.6697  0.0233 -0.2161
 9454TIP3    H149777   0.243   6.756  15.628  1.1496 -1.0204 -0.2710
 9454TIP3    H249778   0.322   6.701  15.511 -0.5380 -0.6428 -1.6302
 9455TIP3   OH249779   1.389   4.158   2.762  0.1000 -0.3564 -0.3375
 9455TIP3    H149780   1.476   4.146   2.800 -0.1624 -0.1667  0.3452
 9455TIP3    H249781   1.405   4.173   2.669  0.8562  0.5096 -0.0830
 9456TIP3   OH249782   4.254   1.073  13.153 -0.4091 -0.1955 -0.4943
 9456TIP3    H149783   4.321   1.083  13.086 -0.7232  0.4069 -0.7357
 9456TIP3    H249784   4.222   0.984  13.143 -1.2537  0.2395 -1.9300
 9457TIP3   OH249785   2.380   2.546  12.828 -0.1244 -0.7857 -0.5546
 9457TIP3    H149786   2.434   2.484  12.878 -1.8357 -1.5681  0.4184
 9457TIP3    H249787   2.291   2.529  12.858 -0.7787  1.4004 -1.1150
 9458TIP3   OH249788   6.784   4.126  11.366 -0.1596  0.1556  0.2208
 9458TIP3    H149789   6.875   4.098  11.365 -0.2283 -0.2494 -2.5843
 9458TIP3    H249790   6.781   4.198  11.302 -2.0447 -0.9182 -0.9984
 9459TIP3   OH249791   2.060   0.288  14.465  0.2977  0.0794 -0.5090
 9459TIP3    H149792   2.095   0.347  14.532 -0.6005  0.6028 -0.4732
 9459TIP3    H249793   2.021   0.346  14.400 -2.1215 -0.4475  0.3568
 9460TIP3   OH249794   2.142   0.457  12.307  0.2725 -0.6815  0.1060
 9460TIP3    H149795   2.233   0.486  12.306  0.2457 -0.6015 -0.0531
 9460TIP3    H249796   2.109   0.485  12.392 -0.1551  1.0177 -0.5758
 9461TIP3   OH249797   6.538   2.554  16.508 -0.4598  0.4292  0.1361
 9461TIP3    H149798   6.567   2.594  16.426 -2.2787 -1.5641 -1.6229
 9461TIP3    H249799   6.444   2.572  16.512 -0.3769  0.6526  1.9334
 9462TIP3   OH249800   1.015   4.593  12.338 -0.1247  0.1520 -0.2842
 9462TIP3    H149801   0.965   4.575  12.258  0.4632  0.0433 -0.6311
 9462TIP3    H249802   1.106   4.595  12.309  0.4927 -3.4360  0.9365
 9463TIP3   OH249803   0.324   1.063   4.578 -0.7030 -0.0438  0.0845
 9463TIP3    H149804   0.291   1.152   4.571  2.1892  1.2160  0.8228
 9463TIP3    H249805   0.247   1.007   4.568 -2.4335  2.4653 -1.7771
 9464TIP3   OH249806   6.725   3.080  15.976 -0.4561 -0.4587 -0.5236
 9464TIP3    H149807   6.633   3.070  16.000 -0.6281  0.1521 -0.9165
 9464TIP3    H249808   6.755   3.155  16.026 -0.8875  0.9961 -2.3377
 9465TIP3   OH249809   0.694   1.678  11.340  0.5379  0.0244  0.2971
 9465TIP3    H149810   0.653   1.710  11.420  0.5433  1.3835 -0.2256
 9465TIP3    H249811   0.762   1.618  11.371  0.1611  0.0893  1.2800
 9466TIP3   OH249812   4.016   5.808  14.096 -0.3890  0.1649 -0.3489
 9466TIP3    H149813   4.035   5.898  14.069 -1.4527  0.5445  0.1175
 9466TIP3    H249814   3.960   5.773  14.026  0.9841 -0.5571 -1.1322
 9467TIP3   OH249815   0.710   5.717   6.730 -0.1118 -0.1189 -0.2171
 9467TIP3    H149816   0.634   5.685   6.681 -0.0397  1.1827 -1.2482
 9467TIP3    H249817   0.676   5.789   6.782 -0.0559 -1.1049  1.2404
 9468TIP3   OH249818   6.578   3.863  14.938 -0.5884 -0.7321  0.0803
 9468TIP3    H149819   6.575   3.775  14.901 -0.8283 -0.8291  0.3207
 9468TIP3    H249820   6.649   3.907  14.892 -1.9558 -0.2839 -1.7072
 9469TIP3   OH249821   2.974   1.216  14.102 -0.1349  0.5354 -0.1960
 9469TIP3    H149822   3.012   1.170  14.027 -1.6842  1.6929 -1.7717
 9469TIP3    H249823   2.989   1.157  14.176  0.1825 -1.3289 -1.6568
 9470TIP3   OH249824   4.704   6.101   2.498  0.0937  0.3585  0.1594
 9470TIP3    H149825   4.634   6.158   2.530 -1.3638 -0.6883 -1.0040
 9470TIP3    H249826   4.783   6.134   2.540 -0.7656  2.8463 -0.0036
 9471TIP3   OH249827   1.177   6.517   3.751  0.2217  0.2106 -0.0158
 9471TIP3    H149828   1.126   6.445   3.714  0.8298 -0.6683  0.8090
 9471TIP3    H249829   1.171   6.586   3.685 -0.7400 -0.4220 -0.6298
 9472TIP3   OH249830   5.340   5.566  12.316 -0.1408 -0.1790 -0.7404
 9472TIP3    H149831   5.426   5.527  12.330  0.3067  0.6534 -1.0691
 9472TIP3    H249832   5.345   5.651  12.359 -1.0433 -0.4002 -0.1650
 9473TIP3   OH249833   3.524   2.065  11.138  0.0781 -0.0016 -0.4346
 9473TIP3    H149834   3.518   2.102  11.050 -0.2086 -2.4445 -1.5178
 9473TIP3    H249835   3.494   1.975  11.128 -0.4528 -0.2054  2.2887
 9474TIP3   OH249836   5.474   1.026  15.931 -0.0151 -0.1460  0.1503
 9474TIP3    H149837   5.386   1.013  15.966  0.0384 -0.4305  0.1809
 9474TIP3    H249838   5.526   1.057  16.006 -0.0655 -0.0695  0.1541
 9475TIP3   OH249839   2.220   0.888   4.278  0.6364 -0.5312 -0.1538
 9475TIP3    H149840   2.309   0.869   4.309  0.9139 -2.7145 -1.9682
 9475TIP3    H249841   2.175   0.804   4.284 -1.2020  0.4494  0.3053
 9476TIP3   OH249842   0.609   6.011  12.059 -0.4765  0.1212  0.4314
 9476TIP3    H149843   0.672   6.021  12.131  0.3780 -0.4378 -0.2227
 9476TIP3    H249844   0.631   5.926  12.020 -0.1862  0.8954 -1.1836
 9477TIP3   OH249845   1.112   5.105  13.454  0.0796 -0.8166 -0.1324
 9477TIP3    H149846   1.204   5.096  13.431  0.2383 -0.3576  0.3218
 9477TIP3    H249847   1.084   5.016  13.476  0.4007 -0.9612 -0.3097
 9478TIP3   OH249848   3.346   3.373   6.369  0.4057  0.2874 -0.5812
 9478TIP3    H149849   3.346   3.304   6.436  0.1278  0.0467 -0.8239
 9478TIP3    H249850   3.439   3.393   6.354  0.5219 -0.4860 -0.9596
 9479TIP3   OH249851   5.203   5.216   4.737  0.6627  0.3493  0.3387
 9479TIP3    H149852   5.259   5.244   4.809  0.8066 -0.4048  0.5208
 9479TIP3    H249853   5.115   5.216   4.774  0.8573 -1.1036  0.8480
 9480TIP3   OH249854   4.825   4.833  15.470 -0.0432 -0.8281 -0.0586
 9480TIP3    H149855   4.915   4.867  15.474 -0.5430  0.4272  1.8371
 9480TIP3    H249856   4.810   4.795  15.557 -1.9567  0.7433  0.3727
 9481TIP3   OH249857   1.168   5.298  11.443  0.1404  0.3947 -0.5052
 9481TIP3    H149858   1.173   5.391  11.422  0.4711  0.1631 -1.5085
 9481TIP3    H249859   1.158   5.254  11.358 -0.6436 -0.4472  0.0044
 9482TIP3   OH249860   6.383   4.401   3.877  0.4708 -0.9076 -0.4002
 9482TIP3    H149861   6.296   4.364   3.891 -1.2828  2.7072 -0.3087
 9482TIP3    H249862   6.393   4.406   3.782 -0.1652  0.0223 -0.4370
 9483TIP3   OH249863   3.742   1.383   1.191  0.2576 -0.1169 -0.1960
 9483TIP3    H149864   3.660   1.391   1.142  1.0707  0.3609 -1.5419
 9483TIP3    H249865   3.773   1.472   1.201  1.5750 -0.3892 -1.4612
 9484TIP3   OH249866   2.740   4.231   1.645 -0.0299  0.0563  0.4548
 9484TIP3    H149867   2.676   4.228   1.574  1.1847 -0.5062 -0.6522
 9484TIP3    H249868   2.690   4.204   1.722 -0.8372 -1.7004 -0.6130
 9485TIP3   OH249869   4.338   1.367   1.823 -0.3213  0.1101  0.1017
 9485TIP3    H149870   4.284   1.394   1.749 -2.3497 -2.0698  0.6427
 9485TIP3    H249871   4.401   1.306   1.786 -1.4942 -1.1725  0.1024
 9486TIP3   OH249872   2.475   5.587   0.804  0.0425 -0.4819  0.2064
 9486TIP3    H149873   2.442   5.675   0.817 -0.4946 -0.1709 -2.6131
 9486TIP3    H249874   2.570   5.596   0.802  0.0701 -0.2911  1.7126
 9487TIP3   OH249875   1.719   3.497  15.765 -0.0172  0.0184 -0.4116
 9487TIP3    H149876   1.659   3.559  15.806  1.1699  0.9104  0.0227
 9487TIP3    H249877   1.713   3.418  15.819  1.1491  1.0071  1.2493
 9488TIP3   OH249878   4.770   6.738   1.124 -0.0265  0.2870 -0.1669
 9488TIP3    H149879   4.767   6.779   1.211 -1.7025  1.8302 -0.8855
 9488TIP3    H249880   4.828   6.663   1.135  0.9260  1.2435  1.9313
 9489TIP3   OH249881   3.897   5.008  11.055  0.0884 -0.2499 -0.0554
 9489TIP3    H149882   3.945   4.967  10.983 -1.7076 -0.5253 -1.1359
 9489TIP3    H249883   3.850   5.081  11.015 -0.0532  0.3013  1.0600
 9490TIP3   OH249884   5.097   0.787  16.277  0.6656 -0.0174  0.0278
 9490TIP3    H149885   5.124   0.854  16.339  0.1989 -0.6535  0.9566
 9490TIP3    H249886   5.017   0.822  16.237  2.3653  1.5564 -2.2159
 9491TIP3   OH249887   5.426   6.078  14.795  0.2456  0.1302 -0.4997
 9491TIP3    H149888   5.366   6.024  14.846  1.5544 -0.7139  0.2110
 9491TIP3    H249889   5.504   6.086  14.850 -0.6769  4.7998  0.5115
 9492TIP3   OH249890   1.937   1.699   3.382 -0.0183 -0.2976 -0.0158
 9492TIP3    H149891   1.950   1.743   3.299  0.6340 -0.2038  0.1326
 9492TIP3    H249892   2.006   1.633   3.386 -1.3123 -1.7317 -0.4837
 9493TIP3   OH249893   3.339   2.616  11.039 -0.4915 -0.8889 -0.1652
 9493TIP3    H149894   3.340   2.674  10.963 -0.2646  0.4372  0.8131
 9493TIP3    H249895   3.386   2.537  11.010 -0.5934 -0.4982 -1.4462
 9494TIP3   OH249896   6.360   0.275  14.519  0.0333 -0.3503  0.1612
 9494TIP3    H149897   6.404   0.267  14.603 -1.6400 -0.7741  1.0297
 9494TIP3    H249898   6.329   0.366  14.517 -1.7105 -0.8978  0.9509
 9495TIP3   OH249899   1.503   1.475   1.411 -0.4408 -0.1957  0.0129
 9495TIP3    H149900   1.427   1.525   1.441  0.4251  0.5116  1.0868
 9495TIP3    H249901   1.508   1.401   1.471 -0.1206 -0.0891  0.1199
 9496TIP3   OH249902   5.866   0.696   1.459 -0.2245 -0.0144  0.3931
 9496TIP3    H149903   5.821   0.650   1.530  0.5985 -0.5105  0.6132
 9496TIP3    H249904   5.883   0.627   1.394  2.3948 -0.4320  1.3939
 9497TIP3   OH249905   3.196   5.506  12.266 -0.0792 -0.8748  0.2066
 9497TIP3    H149906   3.127   5.570  12.283 -1.0427 -2.1024  1.0864
 9497TIP3    H249907   3.239   5.537  12.186 -0.1149  1.1768  0.9317
 9498TIP3   OH249908   0.524   0.945  16.878 -0.1127 -0.1272  0.5386
 9498TIP3    H149909   0.563   0.858  16.882  0.3021  0.0569  0.5846
 9498TIP3    H249910   0.546   0.985  16.962 -1.9952 -0.6781  1.3398
 9499TIP3   OH249911   6.759   2.744   1.736  0.2580  0.0484  0.4743
 9499TIP3    H149912   6.754   2.690   1.815  1.5332 -0.9944 -0.1196
 9499TIP3    H249913   6.794   2.827   1.766  2.1461 -0.8170  0.8344
 9500TIP3   OH249914   3.807   2.985   1.566 -0.0725 -0.0452  0.6917
 9500TIP3    H149915   3.718   2.967   1.534  0.3233  1.0644 -1.2012
 9500TIP3    H249916   3.846   3.038   1.497  1.3738  1.2831  2.4572
 9501TIP3   OH249917   1.452   2.920  11.341 -0.2760  0.0367  0.7811
 9501TIP3    H149918   1.530   2.869  11.361 -1.1497 -1.8052 -0.3195
 9501TIP3    H249919   1.464   2.948  11.250 -0.9973 -0.4435  0.5365
 9502TIP3   OH249920   6.752   2.331   4.126 -0.1789 -0.5887 -0.3583
 9502TIP3    H149921   6.694   2.371   4.062 -0.1096 -2.4126 -1.6589
 9502TIP3    H249922   6.833   2.314   4.078  1.2007  1.1502  1.2040
 9503TIP3   OH249923   6.470   2.882  17.149  0.5197 -0.1681  0.7911
 9503TIP3    H149924   6.444   2.898  17.239  0.0218  2.3611  0.2819
 9503TIP3    H249925   6.411   2.814  17.118 -0.0717 -0.2377  2.0214
 9504TIP3   OH249926   1.188   4.886   3.113 -0.2780  0.5182 -0.0228
 9504TIP3    H149927   1.276   4.914   3.138 -0.7061  0.1965  2.0221
 9504TIP3    H249928   1.172   4.929   3.029  2.5797 -0.9893 -1.4911
 9505TIP3   OH249929   3.788   3.976   5.484 -0.1439 -0.7726  0.4839
 9505TIP3    H149930   3.764   3.937   5.568 -0.5962 -0.9069  0.2985
 9505TIP3    H249931   3.787   3.902   5.423 -3.8822 -0.1303 -0.4790
 9506TIP3   OH249932   0.177   0.573  13.861 -0.3766 -0.5342  0.2195
 9506TIP3    H149933   0.087   0.606  13.863  0.4724  2.1718 -1.1151
 9506TIP3    H249934   0.171   0.491  13.812 -2.1604 -0.6682  0.5936
 9507TIP3   OH249935   6.350   5.266   2.949 -0.4157 -0.0394  0.4698
 9507TIP3    H149936   6.334   5.331   2.880 -0.9995 -0.3597  0.2967
 9507TIP3    H249937   6.440   5.283   2.977 -0.1643  0.0881 -0.3801
 9508TIP3   OH249938   4.338   6.011   5.788  0.0328 -0.1424 -0.5723
 9508TIP3    H149939   4.305   5.923   5.808  0.0058  0.0871  0.4219
 9508TIP3    H249940   4.425   6.014   5.828  0.9931 -0.4716 -2.5295
 9509TIP3   OH249941   2.032   6.534   4.461  0.5263 -0.4210 -0.3291
 9509TIP3    H149942   2.030   6.438   4.459  0.9986 -0.4176 -2.3476
 9509TIP3    H249943   2.117   6.555   4.502  0.0458 -0.8218  0.9374
 9510TIP3   OH249944   3.506   3.173  10.250 -0.2552 -0.0676  0.1790
 9510TIP3    H149945   3.547   3.088  10.234 -0.7081  0.0533 -1.7769
 9510TIP3    H249946   3.552   3.207  10.327 -0.5604 -2.3801  1.4937
 9511TIP3   OH249947   3.605   5.179  14.848  0.4066  0.4212 -0.6752
 9511TIP3    H149948   3.601   5.118  14.922 -0.0566 -0.0792 -1.1057
 9511TIP3    H249949   3.634   5.261  14.887  0.5664  0.0577 -0.0015
 9512TIP3   OH249950   4.934   3.341   0.711 -0.6031  0.4981 -0.0740
 9512TIP3    H149951   4.978   3.261   0.684 -1.0391  0.9188 -2.2037
 9512TIP3    H249952   4.841   3.320   0.708 -0.7855  1.4022 -1.9395
 9513TIP3   OH249953   0.705   3.108  13.791 -0.1281  0.0879 -0.0887
 9513TIP3    H149954   0.618   3.104  13.830 -0.3278  1.5963 -0.3005
 9513TIP3    H249955   0.764   3.123  13.866 -0.3319  1.3839 -0.1669
 9514TIP3   OH249956   2.561   6.010   3.085 -0.2618 -0.5440 -0.0342
 9514TIP3    H149957   2.529   6.081   3.140  0.0980  0.4045 -1.0308
 9514TIP3    H249958   2.619   5.960   3.142  3.5375  2.8200 -0.5096
 9515TIP3   OH249959   1.406   3.134  13.122 -0.0325  0.1770 -0.3557
 9515TIP3    H149960   1.493   3.153  13.156  0.2403 -0.9273 -0.4044
 9515TIP3    H249961   1.395   3.194  13.048  0.2056  1.1327  0.3663
 9516TIP3   OH249962   1.832   2.230   3.940 -0.1699  0.1319  0.5518
 9516TIP3    H149963   1.894   2.172   3.983 -0.2700  1.4817  2.6632
 9516TIP3    H249964   1.864   2.318   3.960 -2.3136  0.8642  1.0342
 9517TIP3   OH249965   4.449   0.527  11.898  0.5189 -0.7258 -0.3964
 9517TIP3    H149966   4.425   0.436  11.913  0.1771 -0.4426  0.9815
 9517TIP3    H249967   4.388   0.557  11.830  1.1235 -1.6992 -1.4014
 9518TIP3   OH249968   1.407   1.878  14.675 -0.3468 -0.2999 -0.4529
 9518TIP3    H149969   1.480   1.890  14.736 -0.4109 -0.8531 -0.2623
 9518TIP3    H249970   1.430   1.931  14.599  0.5204 -0.8932 -0.6271
 9519TIP3   OH249971   1.397   2.839  12.671 -0.6693 -0.5460  0.1394
 9519TIP3    H149972   1.384   2.814  12.762  0.4826  1.3406  0.8606
 9519TIP3    H249973   1.343   2.777  12.622 -1.8876 -1.1463  2.1275
 9520TIP3   OH249974   4.340   0.796  16.757  0.1630  0.3694 -0.4925
 9520TIP3    H149975   4.374   0.710  16.779  0.5121  0.5416 -0.3449
 9520TIP3    H249976   4.355   0.849  16.836  1.9469  1.1499 -1.2965
 9521TIP3   OH249977   4.636   4.568  11.997  0.1421 -0.0525  0.1956
 9521TIP3    H149978   4.564   4.624  12.026  0.8541  0.5425  0.8618
 9521TIP3    H249979   4.599   4.516  11.925 -0.9409  0.2410  0.5272
 9522TIP3   OH249980   3.819   2.534   2.495 -0.2561 -0.1130  0.3793
 9522TIP3    H149981   3.822   2.584   2.577 -1.6104  0.0553  0.3536
 9522TIP3    H249982   3.799   2.444   2.523  0.9000 -0.3976  0.3337
 9523TIP3   OH249983   2.806   4.336   6.099 -0.0048  0.1640 -1.0181
 9523TIP3    H149984   2.841   4.418   6.134  1.6634 -0.3973 -1.2914
 9523TIP3    H249985   2.809   4.347   6.004 -0.2784 -0.0102 -1.0462
 9524TIP3   OH249986   2.020   5.100   6.245 -0.3025 -0.3522  1.3959
 9524TIP3    H149987   2.021   5.004   6.245 -0.2272 -0.3708 -0.2734
 9524TIP3    H249988   1.944   5.123   6.298 -1.7306 -1.4013 -0.1011
 9525TIP3   OH249989   4.179   4.407  16.983  0.2794  0.1727 -0.3327
 9525TIP3    H149990   4.108   4.471  16.978  0.3181  0.1638 -1.2072
 9525TIP3    H249991   4.223   4.425  17.066  0.2365  1.2167 -0.5244
 9526TIP3   OH249992   1.820   5.505   4.310 -0.3997 -0.4543  0.2174
 9526TIP3    H149993   1.916   5.503   4.305 -0.4599 -1.6938 -1.3633
 9526TIP3    H249994   1.801   5.533   4.399  1.4511 -2.0298  1.1822
 9527TIP3   OH249995   4.766   5.438   3.587  0.2718 -0.0758 -0.4969
 9527TIP3    H149996   4.846   5.421   3.637 -0.1339 -1.1579 -0.1833
 9527TIP3    H249997   4.708   5.484   3.648  0.4196  0.1474 -0.5248
 9528TIP3   OH249998   1.631   1.175   0.912 -0.9019  0.5762  0.0998
 9528TIP3    H149999   1.594   1.091   0.887 -1.6436 -0.1818  3.2746
 9528TIP3    H250000   1.710   1.153   0.961 -1.0833  1.6890  0.9542
 9529TIP3   OH250001   5.056   4.421   4.860  0.2453 -0.0684  0.4135
 9529TIP3    H150002   4.966   4.395   4.842 -0.1832  1.1670  0.6671
 9529TIP3    H250003   5.096   4.344   4.900 -0.5293 -0.8169 -0.2140
 9530TIP3   OH250004   2.526   0.182   3.253 -0.1265  0.0077  0.0586
 9530TIP3    H150005   2.595   0.161   3.317  1.3694 -1.8273 -2.0133
 9530TIP3    H250006   2.446   0.186   3.306  0.8106 -2.7541  1.9524
 9531TIP3   OH250007   3.948   2.628  15.737  0.3590  0.2011  0.4642
 9531TIP3    H150008   3.902   2.678  15.669 -0.4103 -0.6730  0.3156
 9531TIP3    H250009   4.018   2.584  15.690  1.1739  1.2822  0.6333
 9532TIP3   OH250010   0.933   4.504   5.195 -0.0435 -0.2397 -0.7646
 9532TIP3    H150011   0.841   4.481   5.179  1.0414 -4.8019 -1.7081
 9532TIP3    H250012   0.970   4.519   5.109  0.6053 -0.6303 -0.5546
 9533TIP3   OH250013   4.974   4.054   0.895  0.4140  0.3008 -0.5137
 9533TIP3    H150014   5.020   4.047   0.978  1.0360  1.2657 -0.7543
 9533TIP3    H250015   4.971   3.965   0.862  0.2585 -0.0712  0.4913
 9534TIP3   OH250016   0.668   1.800   1.956 -0.5348 -0.0150  0.2326
 9534TIP3    H150017   0.622   1.717   1.950 -0.2393 -0.1956  0.4223
 9534TIP3    H250018   0.737   1.794   1.890 -0.6687  0.1805  0.0747
 9535TIP3   OH250019   2.409   4.098   1.964  0.0044 -0.1870  0.0253
 9535TIP3    H150020   2.350   4.157   2.012 -0.2810  0.1368 -0.7183
 9535TIP3    H250021   2.365   4.081   1.881  0.6929 -0.4143 -0.3046
 9536TIP3   OH250022   2.451   6.662   1.475 -0.1271 -0.1658  0.6537
 9536TIP3    H150023   2.385   6.716   1.518 -0.1455  0.6246 -0.3142
 9536TIP3    H250024   2.497   6.618   1.546 -1.5861 -0.6191  1.3537
 9537TIP3   OH250025   3.853   6.733   5.206 -0.3699 -0.1730 -0.4019
 9537TIP3    H150026   3.886   6.668   5.268 -1.3923  0.0965  0.4663
 9537TIP3    H250027   3.889   6.707   5.122  1.6275 -0.1493  0.4044
 9538TIP3   OH250028   4.433   3.263   3.513  0.1347 -0.9071 -0.1971
 9538TIP3    H150029   4.482   3.264   3.431 -0.9869 -0.3496 -0.8918
 9538TIP3    H250030   4.436   3.354   3.544  0.7009 -1.1479  0.4831
 9539TIP3   OH250031   1.944   3.264   0.161  0.1918 -0.3623  0.2337
 9539TIP3    H150032   2.022   3.265   0.217  0.0927  1.8686  0.4162
 9539TIP3    H250033   1.976   3.239   0.075  0.6719 -1.8527  0.8021
 9540TIP3   OH250034   5.312   5.146   3.220 -0.0664  0.1847 -0.2376
 9540TIP3    H150035   5.352   5.177   3.139  0.8115  1.5104  0.6574
 9540TIP3    H250036   5.219   5.162   3.208  0.1839  1.6023 -0.5061
 9541TIP3   OH250037   1.433   0.055   6.043  0.4277  0.0380 -0.6071
 9541TIP3    H150038   1.408  -0.006   6.112  0.5121  1.4543  0.7301
 9541TIP3    H250039   1.507   0.012   5.999 -0.0439 -1.1738 -0.2498
 9542TIP3   OH250040   6.570   2.094  12.309  0.0202  0.4151 -0.2144
 9542TIP3    H150041   6.506   2.024  12.322 -1.3839  1.3294 -1.8070
 9542TIP3    H250042   6.545   2.162  12.372  0.0246  0.3676 -0.1614
 9543TIP3   OH250043   4.419   3.008  11.283  0.7228  0.1858  0.3942
 9543TIP3    H150044   4.425   2.973  11.194  0.3811 -1.2938  0.9166
 9543TIP3    H250045   4.505   2.992  11.321  0.3459 -0.7940  0.8690
 9544TIP3   OH250046   0.057   3.992  16.618 -0.0843 -0.1451  0.0084
 9544TIP3    H150047   0.094   3.905  16.636 -1.0805 -0.3083  1.4373
 9544TIP3    H250048   0.056   4.036  16.703 -0.1456  1.0574 -0.5935
 9545TIP3   OH250049   6.699   0.890  17.160  0.3005  0.8392  0.2868
 9545TIP3    H150050   6.746   0.840  17.227 -1.8554 -0.9120  0.6028
 9545TIP3    H250051   6.678   0.973  17.203 -1.0596 -0.2628  1.8626
 9546TIP3   OH250052   1.088   1.267  11.032  0.2254 -0.6743  0.1521
 9546TIP3    H150053   0.994   1.261  11.015  0.5712 -1.7071 -1.6756
 9546TIP3    H250054   1.128   1.274  10.945  1.7684  1.5489  0.9495
 9547TIP3   OH250055   4.181   0.834  15.368  0.1821  0.0569 -0.2904
 9547TIP3    H150056   4.170   0.902  15.301 -0.1934  1.1543  0.8443
 9547TIP3    H250057   4.107   0.775  15.355 -0.2258  0.5977 -0.4670
 9548TIP3   OH250058   1.030   4.469   3.259 -0.5706  0.4497  0.2059
 9548TIP3    H150059   1.097   4.408   3.290 -0.7280  0.0561 -0.2163
 9548TIP3    H250060   0.967   4.473   3.330 -0.4316  0.3190  0.3383
 9549TIP3   OH250061   5.578   1.094  12.677  0.0411  0.0160  0.3417
 9549TIP3    H150062   5.569   1.184  12.647 -0.6144 -0.5147 -1.1918
 9549TIP3    H250063   5.488   1.061  12.681  0.3148 -0.8001  0.0706
 9550TIP3   OH250064   2.456   1.252  12.596 -0.6974 -0.0413  0.2061
 9550TIP3    H150065   2.449   1.287  12.685 -2.4785 -1.1845  0.5802
 9550TIP3    H250066   2.365   1.240  12.568 -0.1640  0.2197 -1.7591
 9551TIP3   OH250067   6.286   3.804  14.004 -0.5134 -0.2058 -0.3709
 9551TIP3    H150068   6.241   3.847  14.077  0.4919 -1.4417  1.0450
 9551TIP3    H250069   6.343   3.872  13.968 -1.6953  0.6797 -0.6252
 9552TIP3   OH250070   2.019   3.596   4.127  0.1710 -0.2001 -0.0832
 9552TIP3    H150071   1.956   3.566   4.192 -2.0331  0.3549 -1.8309
 9552TIP3    H250072   2.009   3.535   4.054 -1.9636  2.6151 -2.3450
 9553TIP3   OH250073   2.030   4.117   3.007  0.4804 -0.5430  0.4603
 9553TIP3    H150074   2.003   4.025   3.016  0.3963 -0.4413  1.3152
 9553TIP3    H250075   2.114   4.122   3.053  0.4420 -0.1669  0.4920
 9554TIP3   OH250076   1.147   1.952   4.068  0.5935  0.1369  0.3876
 9554TIP3    H150077   1.184   2.035   4.098  0.0106  0.9020 -0.9176
 9554TIP3    H250078   1.107   1.914   4.146 -0.7085  1.9455  0.6642
 9555TIP3   OH250079   5.463   4.556  10.869  0.0773 -0.1485  0.0223
 9555TIP3    H150080   5.483   4.470  10.832 -0.3113  0.6748 -2.2543
 9555TIP3    H250081   5.548   4.600  10.874  0.0073  0.1269 -1.0058
 9556TIP3   OH250082   2.756   4.834  12.647 -0.3889 -0.4649 -0.3544
 9556TIP3    H150083   2.719   4.850  12.734 -1.3076  0.0295 -0.8231
 9556TIP3    H250084   2.684   4.852  12.587 -0.0342 -1.6789 -1.1799
 9557TIP3   OH250085   3.147   1.184  17.233 -0.3475  0.6025 -0.5555
 9557TIP3    H150086   3.075   1.124  17.214 -0.3292  0.6447 -0.7616
 9557TIP3    H250087   3.113   1.270  17.207 -0.5056  0.7368  0.0699
 9558TIP3   OH250088   0.416   6.363   4.664  0.1467  0.3246  0.2816
 9558TIP3    H150089   0.325   6.390   4.670 -0.3484 -1.1985  0.1929
 9558TIP3    H250090   0.463   6.440   4.633 -0.8754  1.5478  1.6885
 9559TIP3   OH250091   1.891   3.379  12.750  0.4045 -0.2316 -0.1441
 9559TIP3    H150092   1.981   3.403  12.769  0.5641  1.1018 -2.3250
 9559TIP3    H250093   1.882   3.390  12.656 -1.9836 -0.5658 -0.0217
 9560TIP3   OH250094   0.280   1.064   1.486 -0.5679 -0.1546 -0.1107
 9560TIP3    H150095   0.310   0.997   1.424 -0.5076 -0.0073 -0.2421
 9560TIP3    H250096   0.201   1.027   1.525 -0.6318 -0.2292 -0.3100
 9561TIP3   OH250097   1.665   5.783  12.379  0.5610  0.1413  0.4691
 9561TIP3    H150098   1.726   5.710  12.386 -1.2267 -1.3615  1.2228
 9561TIP3    H250099   1.717   5.860  12.401  1.7077 -1.3345  3.5372
 9562TIP3   OH250100   1.793   3.012   3.482 -0.3631  0.5040  0.6131
 9562TIP3    H150101   1.719   3.029   3.540  1.2609  2.6025  2.2801
 9562TIP3    H250102   1.816   3.098   3.447  0.6828 -0.2477 -0.6191
 9563TIP3   OH250103   2.195   4.063   2.218  0.0861 -0.5691 -0.7566
 9563TIP3    H150104   2.141   4.143   2.221 -0.8902 -1.2279  1.5144
 9563TIP3    H250105   2.279   4.090   2.254  0.3224 -0.1959 -1.5708
 9564TIP3   OH250106   0.249   5.747  10.748  0.0060 -0.1664  0.2628
 9564TIP3    H150107   0.174   5.787  10.703  0.9832 -0.4156 -1.6809
 9564TIP3    H250108   0.245   5.655  10.722  0.8599 -0.2223  0.3198
 9565TIP3   OH250109   0.547   4.410  13.253 -0.2609 -0.1681 -0.5592
 9565TIP3    H150110   0.519   4.372  13.337  1.1522 -2.3937 -1.0051
 9565TIP3    H250111   0.465   4.424  13.205 -0.9928 -0.3038  0.6015
 9566TIP3   OH250112   5.608   3.856   0.702 -0.4864  0.3162  0.5420
 9566TIP3    H150113   5.654   3.925   0.653 -2.3989  1.6105  0.4582
 9566TIP3    H250114   5.541   3.903   0.751 -1.6454 -1.4751  0.7402
 9567TIP3   OH250115   4.519   1.127  16.153  0.4399  0.5136  0.1202
 9567TIP3    H150116   4.479   1.214  16.144  3.0733  1.8739  0.5809
 9567TIP3    H250117   4.596   1.142  16.208  0.3427 -2.3692  1.1735
 9568TIP3   OH250118   5.834   2.248  14.892 -0.0329  0.0066  0.5353
 9568TIP3    H150119   5.817   2.331  14.937 -1.0985  0.4644 -0.6446
 9568TIP3    H250120   5.776   2.250  14.816  0.0680 -1.7458  0.3795
 9569TIP3   OH250121   4.022   2.304  10.512  0.3955 -0.0925  0.4430
 9569TIP3    H150122   3.998   2.229  10.457  0.0636  2.2888 -3.0387
 9569TIP3    H250123   3.940   2.330  10.554  0.0877 -0.5516  0.1318
 9570TIP3   OH250124   6.683   6.104   1.217  0.3155  0.3380  0.2263
 9570TIP3    H150125   6.677   6.070   1.127  1.2361  0.0800  0.2526
 9570TIP3    H250126   6.680   6.199   1.207  0.5658  0.3137 -0.0941
 9571TIP3   OH250127   2.450   0.197   1.005 -0.4817 -0.4628  0.4597
 9571TIP3    H150128   2.527   0.141   1.010 -0.0809  0.1314  1.1131
 9571TIP3    H250129   2.440   0.216   0.911 -0.4060 -1.3148  0.2718
 9572TIP3   OH250130   3.467   5.924   0.679 -0.5001 -0.1138  1.3753
 9572TIP3    H150131   3.493   6.004   0.723 -2.8367  1.8332 -0.5125
 9572TIP3    H250132   3.535   5.909   0.613 -0.3402  0.6600  1.3608
 9573TIP3   OH250133   1.970   6.536  11.714 -0.2802 -0.0159 -0.2208
 9573TIP3    H150134   1.962   6.618  11.762 -0.5772 -0.0663 -0.1781
 9573TIP3    H250135   2.014   6.477  11.775 -2.2867 -0.6427  0.7326
 9574TIP3   OH250136   0.608   5.378  16.991 -0.0410  0.3476 -0.3019
 9574TIP3    H150137   0.564   5.454  16.953 -0.3137  0.6756  0.6345
 9574TIP3    H250138   0.693   5.374  16.948 -0.6594  0.1909 -1.5572
 9575TIP3   OH250139   2.810   4.405  12.506  0.2195 -0.0837 -0.0351
 9575TIP3    H150140   2.720   4.438  12.514 -0.3426 -1.5909  0.2236
 9575TIP3    H250141   2.861   4.459  12.566 -0.6297  0.3814  0.2834
 9576TIP3   OH250142   4.793   2.031  10.816 -0.1939  0.0409  0.0073
 9576TIP3    H150143   4.863   2.061  10.759  0.3986  0.9751  1.1827
 9576TIP3    H250144   4.823   2.052  10.904 -0.8801 -1.7924  0.7140
 9577TIP3   OH250145   3.169   2.370  11.945 -0.3421  0.7248 -0.0479
 9577TIP3    H150146   3.188   2.361  12.039 -1.5702 -0.1372  0.1263
 9577TIP3    H250147   3.248   2.338  11.902 -1.2910 -2.9251  0.6667
 9578TIP3   OH250148   5.307   0.934   3.881 -0.3813  1.1600 -0.3507
 9578TIP3    H150149   5.280   0.935   3.973 -1.7627  0.4432 -0.7208
 9578TIP3    H250150   5.267   1.013   3.845  1.0078  1.9955 -0.1394
 9579TIP3   OH250151   5.790   1.506  16.140  0.1472 -0.3496 -0.0305
 9579TIP3    H150152   5.735   1.536  16.212  1.8241 -0.2891  1.2880
 9579TIP3    H250153   5.762   1.559  16.065  0.1766  1.5409  1.2258
 9580TIP3   OH250154   2.800   5.481   0.779 -0.1865 -0.1765  0.3313
 9580TIP3    H150155   2.882   5.451   0.819  0.7526  1.0917 -0.5778
 9580TIP3    H250156   2.782   5.565   0.821 -0.4987  0.0143 -0.1786
 9581TIP3   OH250157   4.468   5.088  14.846 -0.3045  0.2117  0.1374
 9581TIP3    H150158   4.480   5.052  14.934  2.6005  0.8769  0.1069
 9581TIP3    H250159   4.557   5.104  14.814 -1.3433  3.0963 -1.6530
 9582TIP3   OH250160   2.988   1.595  15.771  0.6948 -0.7037  0.0888
 9582TIP3    H150161   2.924   1.526  15.753  0.9843 -1.0270  0.3135
 9582TIP3    H250162   2.934   1.673  15.785  0.4159 -0.5233 -1.6947
 9583TIP3   OH250163   5.650   2.735   3.971 -0.1558 -0.0540  0.1581
 9583TIP3    H150164   5.608   2.730   4.057  0.5473  1.9673  0.6770
 9583TIP3    H250165   5.706   2.657   3.968 -1.4029 -1.0254  0.8219
 9584TIP3   OH250166   1.538   5.601  15.788 -0.0861  0.1648  0.8366
 9584TIP3    H150167   1.589   5.529  15.824  0.6045 -0.3172 -1.0135
 9584TIP3    H250168   1.472   5.559  15.733 -0.1519  0.9227  0.3202
 9585TIP3   OH250169   0.414   6.790   5.611 -0.2274  0.4668 -0.2826
 9585TIP3    H150170   0.457   6.815   5.693  1.2778 -1.6811 -0.3334
 9585TIP3    H250171   0.334   6.842   5.610 -0.3320  0.5559  2.5782
 9586TIP3   OH250172   6.591   6.368  10.892  0.1651 -0.5727 -0.1189
 9586TIP3    H150173   6.588   6.319  10.810  0.2772 -1.8940  0.6341
 9586TIP3    H250174   6.598   6.301  10.960  0.5121  0.5033  0.9530
 9587TIP3   OH250175   3.711   4.455  15.405 -0.1296 -0.2846 -0.0019
 9587TIP3    H150176   3.777   4.495  15.462 -0.7182  1.0845 -0.2362
 9587TIP3    H250177   3.753   4.453  15.319 -0.4705  0.8620 -0.2136
 9588TIP3   OH250178   2.682   4.137   3.673 -0.0537 -0.4868  0.1071
 9588TIP3    H150179   2.592   4.104   3.671 -0.8012  1.4063 -0.7541
 9588TIP3    H250180   2.686   4.192   3.751 -0.2252  0.7749 -0.7228
 9589TIP3   OH250181   0.271   5.707   5.817 -0.5049 -0.2795  0.2617
 9589TIP3    H150182   0.323   5.649   5.872  1.5352  1.1234 -0.0900
 9589TIP3    H250183   0.251   5.782   5.873 -1.5606 -0.4507  0.1518
 9590TIP3   OH250184   4.273   6.687   4.534  0.3360 -0.1859 -0.2153
 9590TIP3    H150185   4.235   6.647   4.456  0.1125 -1.5285  0.5386
 9590TIP3    H250186   4.362   6.710   4.509 -0.5165  1.8364 -1.6346
 9591TIP3   OH250187   6.030   0.796   5.724 -0.2793 -0.7510  0.1800
 9591TIP3    H150188   5.966   0.860   5.753  0.4683  1.8025 -3.1616
 9591TIP3    H250189   5.978   0.731   5.675 -0.5750  0.4998 -1.2514
 9592TIP3   OH250190   1.115   2.036  16.185  0.5231  0.3987 -0.1701
 9592TIP3    H150191   1.093   2.047  16.277 -0.2483  0.6834 -0.3748
 9592TIP3    H250192   1.110   1.941  16.170  1.2399  0.2966  0.2121
 9593TIP3   OH250193   6.743   6.570   0.094  0.9778 -0.1454 -0.0964
 9593TIP3    H150194   6.755   6.658   0.130  0.8043 -0.6076  1.1312
 9593TIP3    H250195   6.831   6.543   0.068  1.2130 -0.0241  0.5462
 9594TIP3   OH250196   1.461   0.472   1.160 -0.0797  0.2490  0.2987
 9594TIP3    H150197   1.380   0.476   1.110 -0.3115  2.5248  0.7572
 9594TIP3    H250198   1.434   0.474   1.252  0.4743  0.9475  0.4584
 9595TIP3   OH250199   0.410   0.290   2.638  0.4899 -0.0220 -0.5130
 9595TIP3    H150200   0.444   0.211   2.596  0.9518  0.1867 -0.5334
 9595TIP3    H250201   0.422   0.359   2.573  0.3943  0.1310 -0.3707
 9596TIP3   OH250202   0.902   1.547  16.907 -0.1012  0.0124  0.4362
 9596TIP3    H150203   0.829   1.604  16.929 -1.1146 -0.6571 -1.0343
 9596TIP3    H250204   0.874   1.459  16.933 -2.2273 -1.2054 -4.7193
 9597TIP3   OH250205   2.873   0.415   5.065  0.1548  0.4459 -0.4067
 9597TIP3    H150206   2.830   0.330   5.065 -0.3524  0.6513 -2.5199
 9597TIP3    H250207   2.930   0.412   5.142 -0.3553 -1.5181 -0.0304
 9598TIP3   OH250208   2.258   3.898   0.051 -0.1251  0.4343 -0.2853
 9598TIP3    H150209   2.282   3.806   0.063 -0.7003  0.2571 -0.4683
 9598TIP3    H250210   2.342   3.943   0.040  0.2245  0.0833  0.7933
 9599TIP3   OH250211   4.895   1.471   0.700  0.0886  0.3316  0.1493
 9599TIP3    H150212   4.822   1.510   0.748 -1.1929 -0.0754 -1.3552
 9599TIP3    H250213   4.930   1.542   0.647 -0.5710  0.0738 -0.6575
 9600TIP3   OH250214   1.455   4.131   0.179  0.3790  0.4572 -0.0904
 9600TIP3    H150215   1.462   4.215   0.133 -0.6705  1.4777  1.5250
 9600TIP3    H250216   1.534   4.126   0.233 -0.0933  0.9497  0.6555
 9601TIP3   OH250217   2.428   5.191   4.998  0.4224 -0.2630  0.3432
 9601TIP3    H150218   2.491   5.123   5.018  0.9648 -0.4912 -1.8902
 9601TIP3    H250219   2.343   5.149   5.009  0.6903 -0.5806  1.2817
 9602TIP3   OH250220   4.334   2.681  11.005  0.3663  0.0104  0.3564
 9602TIP3    H150221   4.388   2.712  11.077  0.2122 -0.3441  0.6302
 9602TIP3    H250222   4.276   2.754  10.985 -0.4270 -0.2916  1.4169
 9603TIP3   OH250223   3.712   4.517  13.475  0.1647  0.2706 -0.0563
 9603TIP3    H150224   3.740   4.605  13.451 -0.1817  0.1418 -0.9621
 9603TIP3    H250225   3.705   4.470  13.391 -1.4756 -0.0815  0.2449
 9604TIP3   OH250226   4.862   3.459  10.261  0.0231 -0.3805  0.3390
 9604TIP3    H150227   4.879   3.454  10.355  0.9436  1.4826  0.3294
 9604TIP3    H250228   4.877   3.551  10.239  2.0897 -1.1635 -2.0356
 9605TIP3   OH250229   1.807   6.546   3.325 -0.7601  0.6509 -0.0226
 9605TIP3    H150230   1.718   6.512   3.314 -0.9161  1.0403  0.0279
 9605TIP3    H250231   1.795   6.636   3.353 -0.3497  0.1888  1.7580
 9606TIP3   OH250232   0.218   1.914   1.324 -0.1593  0.3764  0.1731
 9606TIP3    H150233   0.240   1.833   1.371 -0.7459  0.1241  0.0272
 9606TIP3    H250234   0.124   1.907   1.308  0.1669 -0.0556 -1.9660
 9607TIP3   OH250235   0.141   0.758  15.603 -0.2601 -0.0172 -0.0753
 9607TIP3    H150236   0.096   0.685  15.645  0.0108 -0.1916 -0.0898
 9607TIP3    H250237   0.215   0.718  15.558 -0.3212  0.2207 -0.3872
 9608TIP3   OH250238   3.225   1.291   0.571  0.3154 -1.5283 -0.1146
 9608TIP3    H150239   3.287   1.364   0.569  0.1959 -1.4405 -0.6339
 9608TIP3    H250240   3.139   1.333   0.575  0.2714 -1.6485  0.2576
 9609TIP3   OH250241   6.005   3.873   3.562  0.5043 -0.2385  0.0074
 9609TIP3    H150242   6.029   3.889   3.470  1.5734  0.3326  0.3762
 9609TIP3    H250243   6.069   3.921   3.613 -0.3141 -0.2272  1.0703
 9610TIP3   OH250244   1.700   6.238   0.961  0.1205  0.0024  0.3466
 9610TIP3    H150245   1.654   6.308   1.007 -1.2977  0.5104 -1.7208
 9610TIP3    H250246   1.687   6.161   1.016 -0.5652  0.8030  1.3462
 9611TIP3   OH250247   3.312   6.567   1.517 -0.7260  0.3050 -0.4035
 9611TIP3    H150248   3.239   6.509   1.538 -1.2134  0.7685 -0.7740
 9611TIP3    H250249   3.281   6.654   1.542  0.4421  0.2902  1.2708
 9612TIP3   OH250250   2.355   1.647   2.877 -0.3628 -0.1140  0.0150
 9612TIP3    H150251   2.260   1.645   2.866 -0.5584 -0.1911  1.5682
 9612TIP3    H250252   2.389   1.600   2.800 -1.5255  0.4834 -0.8972
 9613TIP3   OH250253   4.652   5.270   0.015  0.1478  0.8023 -0.2410
 9613TIP3    H150254   4.743   5.241   0.018 -0.6121 -1.8209 -0.0948
 9613TIP3    H250255   4.648   5.329  -0.060  1.7857  0.3458 -0.7245
 9614TIP3   OH250256   2.765   3.533   5.026  0.5069 -0.2296 -0.4587
 9614TIP3    H150257   2.856   3.533   4.998  1.0588  0.8785  1.2084
 9614TIP3    H250258   2.715   3.524   4.944  2.0601  0.4793 -1.5429
 9615TIP3   OH250259   0.443   3.349   0.061 -0.3731 -0.1727 -0.5190
 9615TIP3    H150260   0.360   3.306   0.084 -1.0251  1.8542  1.1711
 9615TIP3    H250261   0.509   3.303   0.113 -0.6219 -0.8390 -0.7716
 9616TIP3   OH250262   6.412   4.656   2.665 -0.3257  1.2215  0.2604
 9616TIP3    H150263   6.470   4.581   2.675  0.9419  1.9851 -0.9273
 9616TIP3    H250264   6.410   4.697   2.751  0.9533  1.2056  0.3061
 9617TIP3   OH250265   6.494   2.027  11.889 -0.1385 -0.6060 -0.2124
 9617TIP3    H150266   6.549   1.970  11.942  2.2791  1.6899 -0.0588
 9617TIP3    H250267   6.440   2.074  11.953 -1.2036 -1.7288 -0.2522
 9618TIP3   OH250268   0.583   5.407  15.009  0.2406  0.8191  0.7333
 9618TIP3    H150269   0.625   5.435  15.091 -0.9059  0.6812  1.3894
 9618TIP3    H250270   0.544   5.322  15.030  0.1023  0.6925 -0.0206
 9619TIP3   OH250271   5.747   1.505  11.650  0.1965 -0.1659 -0.4319
 9619TIP3    H150272   5.805   1.481  11.577  0.7481  0.4569 -0.2012
 9619TIP3    H250273   5.806   1.527  11.721 -0.3242  0.8296 -0.3031
 9620TIP3   OH250274   6.057   5.725  15.763  0.3866  0.7411 -0.0981
 9620TIP3    H150275   6.042   5.650  15.705  0.0134  0.1208  0.7797
 9620TIP3    H250276   6.033   5.801  15.710 -1.2658  0.0920 -0.3493
 9621TIP3   OH250277   3.760   4.742  12.251  0.0611 -0.0466 -0.8248
 9621TIP3    H150278   3.838   4.789  12.278 -0.0535  0.2435 -0.9893
 9621TIP3    H250279   3.777   4.650  12.273 -0.9783  0.4235  2.5485
 9622TIP3   OH250280   6.786   6.344  13.003  0.3565  0.1501 -0.6752
 9622TIP3    H150281   6.719   6.296  13.051 -0.0484  2.0926  0.8418
 9622TIP3    H250282   6.861   6.284  12.998  0.2676 -0.3062  2.1030
 9623TIP3   OH250283   0.985   3.977   4.938  0.2422 -0.5761  0.0011
 9623TIP3    H150284   0.900   3.932   4.946 -0.6083  0.8884 -0.4041
 9623TIP3    H250285   0.999   3.986   4.844 -0.4893  1.4800  0.0167
 9624TIP3   OH250286   3.189   3.783  13.682 -0.0467  0.2411  0.5136
 9624TIP3    H150287   3.170   3.863  13.732 -1.0563 -0.1764  0.8183
 9624TIP3    H250288   3.272   3.753  13.718 -0.7741 -0.0812  2.0220
 9625TIP3   OH250289   4.397   6.562   3.603 -0.1298  0.3083  0.2053
 9625TIP3    H150290   4.348   6.642   3.621 -0.7154 -0.2459  1.1951
 9625TIP3    H250291   4.352   6.522   3.528 -1.1470 -0.1282  1.0198
 9626TIP3   OH250292   0.174   3.805  10.647 -0.7811 -0.3948  0.4734
 9626TIP3    H150293   0.128   3.734  10.604 -0.6373 -0.3432  0.2289
 9626TIP3    H250294   0.115   3.880  10.640  0.0029  0.1239 -1.3430
 9627TIP3   OH250295   0.344   2.489   4.798 -0.0266 -0.1038 -0.6060
 9627TIP3    H150296   0.306   2.555   4.856 -0.3265 -1.3123  0.6337
 9627TIP3    H250297   0.273   2.468   4.736 -0.6058 -0.6361  0.2107
 9628TIP3   OH250298   6.300   3.991   0.024 -0.3476  0.0089 -0.2946
 9628TIP3    H150299   6.352   4.006   0.102 -0.8100  1.9907 -0.2960
 9628TIP3    H250300   6.296   4.077  -0.019 -0.7238 -0.8616 -2.0969
 9629TIP3   OH250301   0.951   3.661   2.967 -0.3100  0.0528  0.3194
 9629TIP3    H150302   1.035   3.640   2.925 -0.6258  0.6182 -0.6269
 9629TIP3    H250303   0.975   3.719   3.039  0.1275  0.1296  0.1200
 9630TIP3   OH250304   3.065   1.236  14.997 -0.1826 -0.0262  0.1184
 9630TIP3    H150305   3.036   1.234  14.906 -1.4323 -0.1675  0.4998
 9630TIP3    H250306   3.139   1.176  15.001 -0.7665 -0.8007 -0.5927
 9631TIP3   OH250307   2.429   4.155  11.865 -0.1345 -0.7574  0.2702
 9631TIP3    H150308   2.360   4.177  11.927 -1.0317 -1.1772 -0.5396
 9631TIP3    H250309   2.507   4.142  11.918 -0.5912  0.0939  1.1721
 9632TIP3   OH250310   6.664   1.478   1.101  0.0694  0.8395 -0.0159
 9632TIP3    H150311   6.706   1.396   1.073  2.9055  2.5716 -1.3568
 9632TIP3    H250312   6.671   1.477   1.197 -2.4381 -1.5817  0.2785
 9633TIP3   OH250313   1.306   4.272   3.867  0.1643 -0.4832 -0.1667
 9633TIP3    H150314   1.333   4.288   3.958  1.7622 -0.2256 -0.6602
 9633TIP3    H250315   1.320   4.356   3.823  0.2007 -0.8293 -0.8292
 9634TIP3   OH250316   4.477   1.038  12.304 -0.3096 -0.4334  0.0920
 9634TIP3    H150317   4.516   1.079  12.226 -0.5196  0.9236  0.6655
 9634TIP3    H250318   4.551   1.023  12.363 -0.3990  0.5270  0.4735
 9635TIP3   OH250319   4.040   4.185  14.922  0.8124  0.0631 -0.4794
 9635TIP3    H150320   4.126   4.222  14.941  1.0054 -1.1855  1.4061
 9635TIP3    H250321   4.006   4.237  14.849  2.0332  2.3117  0.4604
 9636TIP3   OH250322   3.347   0.711  12.015 -0.7818 -0.1894 -0.1075
 9636TIP3    H150323   3.317   0.799  11.992 -0.2675  0.0110 -0.0134
 9636TIP3    H250324   3.443   0.717  12.014 -0.7353 -0.3311  1.4983
 9637TIP3   OH250325   2.043   6.157   4.797  0.1692  0.1925 -0.1064
 9637TIP3    H150326   2.120   6.141   4.852  0.3775  0.5518 -0.2872
 9637TIP3    H250327   1.971   6.171   4.858  0.2421 -0.1595  0.0636
 9638TIP3   OH250328   0.276   6.059  12.222 -1.1410 -0.2883 -0.0564
 9638TIP3    H150329   0.197   6.014  12.192  0.0789 -1.4974 -1.6074
 9638TIP3    H250330   0.298   6.118  12.150 -1.3480  1.0622  0.9403
 9639TIP3   OH250331   0.169   5.249  14.557 -0.1165  0.0950  0.2519
 9639TIP3    H150332   0.238   5.298  14.602  0.7379  0.7717 -1.6880
 9639TIP3    H250333   0.092   5.307  14.563  0.2190  0.5629  0.0893
 9640TIP3   OH250334   5.647   2.814  14.550 -0.4021  0.1470 -0.3177
 9640TIP3    H150335   5.718   2.821  14.615 -1.7659  1.6767  1.0972
 9640TIP3    H250336   5.588   2.749  14.586  0.3453 -1.3437 -1.6429
 9641TIP3   OH250337   3.544   0.406  11.983 -0.1356  0.2493  0.0174
 9641TIP3    H150338   3.513   0.440  12.067 -1.8026 -0.6691 -0.2018
 9641TIP3    H250339   3.557   0.484  11.929 -3.9047  0.7095 -0.4844
 9642TIP3   OH250340   0.108   1.561   2.701  0.0145  0.0441  0.6581
 9642TIP3    H150341   0.058   1.530   2.626 -1.5533  0.2029  1.5841
 9642TIP3    H250342   0.076   1.651   2.716  0.1346 -0.0591  1.6162
 9643TIP3   OH250343   6.344   1.665   4.396  0.0219 -0.3459  0.8594
 9643TIP3    H150344   6.326   1.757   4.416  1.4719 -0.2494  1.9201
 9643TIP3    H250345   6.397   1.634   4.470  1.2214 -1.4748 -0.3935
 9644TIP3   OH250346   5.711   5.387   0.553 -0.1335 -0.0950  0.2914
 9644TIP3    H150347   5.759   5.318   0.598  2.1014  0.2829 -1.3331
 9644TIP3    H250348   5.758   5.468   0.575 -0.5104  0.4076 -0.6859
 9645TIP3   OH250349   3.985   3.235   3.129  0.2353 -0.1050  0.0088
 9645TIP3    H150350   4.067   3.256   3.084 -0.0285  1.0975  0.0593
 9645TIP3    H250351   3.990   3.281   3.212 -0.8062  0.6467 -0.3087
 9646TIP3   OH250352   0.755   6.095  16.835  0.4855 -0.2120 -0.3831
 9646TIP3    H150353   0.728   6.168  16.781  1.4456  0.2417 -0.2619
 9646TIP3    H250354   0.830   6.128  16.885  0.9357 -1.2699 -0.3311
 9647TIP3   OH250355   4.896   0.128  17.180  0.0564  0.8643 -0.4809
 9647TIP3    H150356   4.956   0.120  17.254  0.7574  1.6181 -0.9467
 9647TIP3    H250357   4.885   0.038  17.148  0.8145  0.6920 -0.2831
 9648TIP3   OH250358   4.144   1.209  11.311  0.1565 -0.1866 -0.5870
 9648TIP3    H150359   4.105   1.144  11.370  2.5752  0.2787  1.7153
 9648TIP3    H250360   4.124   1.293  11.351 -0.3564  0.3487 -1.8969
 9649TIP3   OH250361   4.536   3.670  16.786 -0.1782  0.2246 -0.6337
 9649TIP3    H150362   4.449   3.702  16.810 -0.2627 -0.2377 -0.2861
 9649TIP3    H250363   4.587   3.748  16.767 -1.2407  0.4234 -2.8954
 9650TIP3   OH250364   2.539   3.337  16.548  0.5809 -0.3069  0.0265
 9650TIP3    H150365   2.570   3.339  16.639  0.6086 -1.8836  0.0787
 9650TIP3    H250366   2.573   3.255  16.513  0.6259  0.3114 -1.4507
 9651TIP3   OH250367   1.802   5.234   0.769  0.1563 -0.0854  0.4180
 9651TIP3    H150368   1.778   5.145   0.743 -1.7291  0.6383 -0.5298
 9651TIP3    H250369   1.743   5.255   0.842  0.3132  0.5086  0.3821
 9652TIP3   OH250370   0.876   1.116   5.446  0.3058  0.0024  0.4560
 9652TIP3    H150371   0.922   1.176   5.504 -0.3001  0.9145  0.0141
 9652TIP3    H250372   0.786   1.116   5.479 -0.7363  2.5984 -1.9742
 9653TIP3   OH250373   3.463   2.412  11.876  0.2971 -0.4923 -0.7188
 9653TIP3    H150374   3.471   2.363  11.795  0.5921 -1.3054 -0.2109
 9653TIP3    H250375   3.481   2.348  11.945 -1.8129 -0.3176  0.0928
 9654TIP3   OH250376   1.231   2.372  12.404  0.2116  0.1973 -0.1334
 9654TIP3    H150377   1.204   2.376  12.312  0.6893  0.0471 -0.2791
 9654TIP3    H250378   1.299   2.438  12.413  0.7185 -0.3207 -0.0747
 9655TIP3   OH250379   0.538   1.081  13.511 -0.4039  0.1048  0.0921
 9655TIP3    H150380   0.608   1.146  13.506  0.4670 -0.8815 -2.2743
 9655TIP3    H250381   0.467   1.118  13.458 -0.5980 -0.0861  0.2173
 9656TIP3   OH250382   5.108   4.684  15.657  0.3732  0.8710  0.5170
 9656TIP3    H150383   5.089   4.737  15.735 -0.4074 -1.4576  2.0091
 9656TIP3    H250384   5.204   4.683  15.651  0.7402 -1.8833  3.7987
 9657TIP3   OH250385   1.616   4.320  17.037  0.3830 -0.7246  0.4307
 9657TIP3    H150386   1.585   4.397  16.989  0.6319 -0.7964  0.1479
 9657TIP3    H250387   1.689   4.353  17.089 -0.9853 -0.2626  2.1277
 9658TIP3   OH250388   1.086   0.608  16.439  0.5317 -0.0716  0.0871
 9658TIP3    H150389   1.032   0.586  16.364 -1.8312  3.0571  0.6948
 9658TIP3    H250390   1.171   0.630  16.401  0.2296 -1.1690 -1.3236
 9659TIP3   OH250391   5.310   5.408  17.049  0.2539 -0.0938  0.3283
 9659TIP3    H150392   5.306   5.470  17.122 -1.7831  0.5054 -0.2336
 9659TIP3    H250393   5.372   5.447  16.987 -1.9503  2.1778 -0.6283
 9660TIP3   OH250394   4.720   5.059  14.222  0.7340  0.3831  0.2153
 9660TIP3    H150395   4.644   5.014  14.184  1.7602 -0.6183 -0.7121
 9660TIP3    H250396   4.796   5.016  14.182  1.8947 -0.4845  3.1148
 9661TIP3   OH250397   4.054   3.061   1.040 -0.0536 -0.3020  0.7891
 9661TIP3    H150398   4.012   2.992   0.988  3.1002 -1.7145 -0.0948
 9661TIP3    H250399   4.049   3.139   0.985 -1.8304 -0.2768  0.9193
 9662TIP3   OH250400   0.903   5.769   2.439  0.1991  0.2597  0.4530
 9662TIP3    H150401   0.848   5.830   2.389 -1.4607  1.1701  3.1397
 9662TIP3    H250402   0.987   5.814   2.446 -0.1224  0.9481  0.0676
 9663TIP3   OH250403   6.327   2.756   4.434  0.1303 -0.2163  0.2279
 9663TIP3    H150404   6.295   2.846   4.428  3.9897  1.4377  1.6035
 9663TIP3    H250405   6.331   2.738   4.528  1.9581 -0.7367  0.0832
 9664TIP3   OH250406   4.355   5.217  15.618  0.1228 -0.2150  0.0503
 9664TIP3    H150407   4.439   5.177  15.599  1.0138  1.3212  0.6084
 9664TIP3    H250408   4.369   5.310  15.604 -2.1400 -0.1076 -2.1830
 9665TIP3   OH250409   6.311   0.130  15.162  0.5959 -0.2008 -0.6254
 9665TIP3    H150410   6.401   0.160  15.170  1.1813 -2.0326  0.3068
 9665TIP3    H250411   6.259   0.210  15.158  2.1870  0.8934 -0.3618
 9666TIP3   OH250412   0.492   1.810  16.802  0.2957 -0.3630  0.3814
 9666TIP3    H150413   0.516   1.809  16.710 -0.3046  0.2193  0.2106
 9666TIP3    H250414   0.428   1.740  16.812  3.2099 -3.1630  1.2070
 9667TIP3   OH250415   6.250   3.358   2.727  0.0166  0.3000 -0.4444
 9667TIP3    H150416   6.240   3.295   2.798  1.2021 -0.1219 -0.6251
 9667TIP3    H250417   6.208   3.316   2.651  0.3544 -0.0547 -0.4375
 9668TIP3   OH250418   2.137   5.584   2.966  0.0050  0.0029 -0.2228
 9668TIP3    H150419   2.043   5.565   2.968 -0.0588  0.3686  0.5286
 9668TIP3    H250420   2.177   5.511   3.013  0.1358 -0.3156 -0.8140
 9669TIP3   OH250421   0.090   5.757   4.043  0.4697 -0.6481  0.6914
 9669TIP3    H150422   0.133   5.838   4.014  0.4510 -0.7301  0.4346
 9669TIP3    H250423   0.149   5.687   4.014 -1.6556 -1.0936 -3.3020
 9670TIP3   OH250424   1.544   2.583   3.191  0.1694  0.6898  0.1667
 9670TIP3    H150425   1.547   2.678   3.202  0.4096  0.5126  1.9132
 9670TIP3    H250426   1.452   2.560   3.204 -0.0549  0.7466 -1.1551
 9671TIP3   OH250427   6.296   0.127   0.705  0.0735 -0.2025  0.1925
 9671TIP3    H150428   6.326   0.077   0.629  2.5377  0.5071  0.6176
 9671TIP3    H250429   6.200   0.121   0.701  0.1882 -3.6797 -0.5949
 9672TIP3   OH250430   1.174   6.370  16.945 -0.6071 -0.3899 -0.4740
 9672TIP3    H150431   1.229   6.417  17.008 -1.3481 -0.2403  0.0673
 9672TIP3    H250432   1.234   6.309  16.902  0.0010 -0.1604  0.0385
 9673TIP3   OH250433   1.956   5.172  11.927  0.0516 -0.1200  0.0361
 9673TIP3    H150434   1.871   5.206  11.899 -0.7816 -1.0604  1.2884
 9673TIP3    H250435   2.016   5.246  11.920 -0.5746  0.2595 -1.9979
 9674TIP3   OH250436   3.088   2.612   5.012 -0.0906  0.3047  0.1119
 9674TIP3    H150437   3.165   2.589   5.063 -0.7132 -0.4923  0.7253
 9674TIP3    H250438   3.035   2.666   5.071 -2.1871 -2.9468  1.5084
 9675TIP3   OH250439   5.489   1.597   0.603  0.2025 -0.2647 -0.5320
 9675TIP3    H150440   5.446   1.680   0.625  0.9667  0.4197 -1.5243
 9675TIP3    H250441   5.433   1.530   0.642 -2.0071  0.5466 -2.1372
 9676TIP3   OH250442   3.533   0.781   1.429 -0.4899  0.0083 -0.0815
 9676TIP3    H150443   3.507   0.863   1.472 -0.8841  0.1556 -0.5840
 9676TIP3    H250444   3.536   0.804   1.336 -1.3070 -0.7289 -0.2986
 9677TIP3   OH250445   3.978   1.639   3.435 -0.1871  0.2042 -0.0503
 9677TIP3    H150446   4.003   1.549   3.415 -1.1164 -0.8407  2.9636
 9677TIP3    H250447   3.884   1.643   3.415 -0.7433 -0.3654  2.1159
 9678TIP3   OH250448   0.753   5.965   2.704 -0.3454 -0.1069 -0.1494
 9678TIP3    H150449   0.840   5.985   2.668 -0.3414  2.2248  1.0135
 9678TIP3    H250450   0.762   5.876   2.738  2.1349  0.6416  1.4196
 9679TIP3   OH250451   0.853   5.880  12.712 -0.0770  0.0467  0.1445
 9679TIP3    H150452   0.854   5.915  12.624  2.2405  1.8679  0.8045
 9679TIP3    H250453   0.880   5.789  12.702 -1.0393 -0.1300 -1.0933
 9680TIP3   OH250454   5.462   3.652   4.865 -0.3252  0.6762 -0.0811
 9680TIP3    H150455   5.378   3.691   4.887 -0.3164 -0.0607  1.4489
 9680TIP3    H250456   5.487   3.605   4.945  1.3191  0.5128 -0.6608
 9681TIP3   OH250457   4.804   5.443  14.586 -0.5842  0.5219  0.3859
 9681TIP3    H150458   4.873   5.488  14.537 -0.3215 -0.0317  0.2285
 9681TIP3    H250459   4.773   5.507  14.649  0.9517  0.4301  1.3102
 9682TIP3   OH250460   2.517   6.630  13.294  0.1900  0.4386  0.5839
 9682TIP3    H150461   2.424   6.633  13.270  0.2349 -0.3063  0.2873
 9682TIP3    H250462   2.557   6.576  13.226  0.9729  1.3527  0.3006
 9683TIP3   OH250463   6.019   2.410   1.990  0.6298 -0.1085 -0.0286
 9683TIP3    H150464   6.060   2.353   2.054 -0.5483 -0.4431  0.4596
 9683TIP3    H250465   5.944   2.360   1.957  1.7577 -0.3599 -2.4348
 9684TIP3   OH250466   6.526   2.933  15.705 -0.0333  0.5809 -0.3558
 9684TIP3    H150467   6.480   2.930  15.621 -0.8470  1.2147  0.0507
 9684TIP3    H250468   6.470   2.988  15.760  1.0183  1.0195  0.2835
 9685TIP3   OH250469   6.709   3.779  13.230  0.4070 -0.8781  0.2104
 9685TIP3    H150470   6.788   3.801  13.180  0.4065  0.5202  0.7818
 9685TIP3    H250471   6.711   3.684  13.237  1.1980 -0.9818 -1.1478
 9686TIP3   OH250472   0.119   1.826   4.280  0.3753  0.3294  0.2667
 9686TIP3    H150473   0.181   1.807   4.209 -0.1932 -1.0139  0.1130
 9686TIP3    H250474   0.137   1.760   4.346 -0.9663 -0.1566  0.1740
 9687TIP3   OH250475   0.228   5.819   5.156  0.3469 -0.3812  0.1145
 9687TIP3    H150476   0.178   5.898   5.133  0.6266 -0.1073  0.4502
 9687TIP3    H250477   0.254   5.782   5.071 -0.2340 -0.4025 -0.0585
 9688TIP3   OH250478   4.622   6.399  11.972  0.4109  0.3630 -0.4625
 9688TIP3    H150479   4.579   6.319  11.944 -0.0841  0.8605 -1.1701
 9688TIP3    H250480   4.604   6.404  12.067  0.4419 -0.3484 -0.4137
 9689TIP3   OH250481   1.015   6.211   6.187 -0.4805  0.2637  0.9264
 9689TIP3    H150482   1.079   6.164   6.241  1.2131  0.1480 -1.0789
 9689TIP3    H250483   0.932   6.165   6.203  0.3709 -1.0086  1.8853
 9690TIP3   OH250484   4.964   2.508  15.511 -0.0927  0.2941  0.2978
 9690TIP3    H150485   4.916   2.493  15.429 -0.4530 -0.2253  0.6005
 9690TIP3    H250486   5.045   2.550  15.483 -1.0061  1.8309 -0.1706
 9691TIP3   OH250487   4.693   0.573   4.342  0.4985  0.3689 -0.0458
 9691TIP3    H150488   4.756   0.635   4.380 -0.0987  1.4062 -0.7148
 9691TIP3    H250489   4.675   0.607   4.255 -1.2935  0.3333  0.2685
 9692TIP3   OH250490   0.274   2.318  11.157 -0.4202  0.1806  0.0581
 9692TIP3    H150491   0.259   2.301  11.064 -0.3286  1.2071 -0.1606
 9692TIP3    H250492   0.315   2.405  11.159 -0.5882  0.2503  1.0642
 9693TIP3   OH250493   4.934   5.422   4.105 -0.2121 -0.2404 -0.0385
 9693TIP3    H150494   4.973   5.497   4.149 -0.6827 -0.3893  0.6536
 9693TIP3    H250495   4.991   5.348   4.127  1.8813  0.3183 -2.9936
 9694TIP3   OH250496   3.437   2.203   0.274 -0.3020 -0.3273  0.5284
 9694TIP3    H150497   3.373   2.137   0.299 -0.2355 -0.3629  0.6058
 9694TIP3    H250498   3.522   2.159   0.283 -0.2584 -0.2383  0.5583
 9695TIP3   OH250499   2.583   6.184  12.649  0.5151 -0.0872 -0.2886
 9695TIP3    H150500   2.654   6.228  12.603  1.8963 -0.6461  1.2271
 9695TIP3    H250501   2.626   6.130  12.715 -1.2788 -1.2147  0.0382
 9696TIP3   OH250502   5.292   6.296  14.253 -0.2592 -0.0627 -0.4314
 9696TIP3    H150503   5.249   6.298  14.168  0.4081 -2.4828 -0.9092
 9696TIP3    H250504   5.385   6.303  14.233  0.0812 -2.8707 -0.1808
 9697TIP3   OH250505   0.832   0.099  16.632  0.4240 -0.0907  0.2313
 9697TIP3    H150506   0.826   0.177  16.576 -0.1665 -0.2247  0.1090
 9697TIP3    H250507   0.834   0.134  16.721 -1.8394  0.0029  0.2898
 9698TIP3   OH250508   3.540   4.189  15.997  0.2081 -0.0288 -0.3222
 9698TIP3    H150509   3.497   4.274  15.991  0.8289  0.4063  0.9363
 9698TIP3    H250510   3.552   4.175  16.091 -0.2727 -1.7180 -0.4596
 9699TIP3   OH250511   3.460   0.216   0.943  0.3759  0.4285  0.7718
 9699TIP3    H150512   3.525   0.162   0.989  2.0431  0.0233 -1.8427
 9699TIP3    H250513   3.497   0.304   0.945  1.1202  0.1751 -0.8298
 9700TIP3   OH250514   5.469   5.932  15.809  0.4516 -0.7880 -0.5641
 9700TIP3    H150515   5.426   5.852  15.778  1.1313 -1.5890  0.5021
 9700TIP3    H250516   5.519   5.905  15.886  2.6267  0.1431 -1.5520
 9701TIP3   OH250517   4.150   4.896  17.055  0.6497 -0.4163  0.2445
 9701TIP3    H150518   4.083   4.931  17.114  0.3358  0.6939 -0.7176
 9701TIP3    H250519   4.105   4.830  17.003  0.3145  0.2066 -0.2828
 9702TIP3   OH250520   1.268   1.478   1.927  0.0178  0.0785  1.0846
 9702TIP3    H150521   1.244   1.570   1.921  0.7254  0.2495  0.6949
 9702TIP3    H250522   1.186   1.430   1.916 -0.4301  0.6664  1.7690
 9703TIP3   OH250523   6.242   3.871   6.499  0.1933  0.5517 -0.2573
 9703TIP3    H150524   6.283   3.789   6.526 -1.1100  0.0334  0.2325
 9703TIP3    H250525   6.293   3.939   6.542  0.8357 -0.0404 -0.0601
 9704TIP3   OH250526   5.444   1.559   2.718  0.4414 -0.3104  0.0375
 9704TIP3    H150527   5.531   1.580   2.683 -0.0794  1.8634 -0.1418
 9704TIP3    H250528   5.446   1.465   2.735  2.6673 -0.3851 -0.3781
 9705TIP3   OH250529   2.085   5.540   0.239  0.1535  0.4420  0.5755
 9705TIP3    H150530   2.105   5.542   0.145 -0.1372  1.3488  0.5212
 9705TIP3    H250531   2.014   5.477   0.247  0.4586  0.0522  0.2443
 9706TIP3   OH250532   1.689   6.518   1.407 -0.8297 -0.3914 -0.3913
 9706TIP3    H150533   1.627   6.467   1.458 -0.9690  0.7933  0.6823
 9706TIP3    H250534   1.765   6.461   1.397  0.3342  0.1666  3.5255
 9707TIP3   OH250535   1.214   3.019   4.554 -0.5639  0.2672 -0.2334
 9707TIP3    H150536   1.246   2.937   4.591  0.3871  0.5618 -0.3964
 9707TIP3    H250537   1.235   3.013   4.461 -0.6761  0.6149 -0.2812
 9708TIP3   OH250538   1.533   6.670   1.248  0.3592 -0.3259 -0.1921
 9708TIP3    H150539   1.529   6.765   1.261 -2.1507 -0.6100  1.9621
 9708TIP3    H250540   1.601   6.640   1.309  2.8292  0.2031 -2.5259
 9709TIP3   OH250541   6.373   0.495   4.723 -0.5218  0.3104 -0.2564
 9709TIP3    H150542   6.329   0.579   4.709 -0.5166  0.3516 -0.0396
 9709TIP3    H250543   6.394   0.463   4.636  1.9155  1.8025 -0.2972
 9710TIP3   OH250544   3.271   1.463   3.847  0.1998 -0.1043  0.1017
 9710TIP3    H150545   3.329   1.445   3.774  0.6254  0.6752  0.2447
 9710TIP3    H250546   3.329   1.490   3.918 -0.1446 -1.4230  0.9368
 9711TIP3   OH250547   5.685   6.471  12.557 -0.3001  0.1024 -0.1405
 9711TIP3    H150548   5.725   6.417  12.489  0.9204 -2.6912  2.5544
 9711TIP3    H250549   5.599   6.433  12.571 -0.2469  0.1599  0.3633
 9712TIP3   OH250550   4.651   4.983  13.273 -0.3403  0.0507 -0.3098
 9712TIP3    H150551   4.592   4.934  13.216  0.6902 -0.0666 -1.3242
 9712TIP3    H250552   4.610   4.980  13.359 -1.7711 -0.0650 -0.9686
 9713TIP3   OH250553   6.304   5.848   1.178  0.2357 -0.0803 -0.0535
 9713TIP3    H150554   6.316   5.940   1.204 -0.2360 -0.0955  0.2239
 9713TIP3    H250555   6.369   5.835   1.108 -0.6120  0.8639 -1.0610
 9714TIP3   OH250556   0.638   3.141   2.143 -0.1173  0.0014  0.3836
 9714TIP3    H150557   0.588   3.132   2.062  0.4040  2.2670 -0.2571
 9714TIP3    H250558   0.729   3.151   2.115 -0.0858  2.1826  1.1156
 9715TIP3   OH250559   1.729   1.982   2.669  0.6171 -0.5897 -0.3583
 9715TIP3    H150560   1.807   1.929   2.685  1.2190  0.3537 -0.0543
 9715TIP3    H250561   1.713   2.027   2.752 -0.7413 -1.3590 -0.1647
 9716TIP3   OH250562   2.606   6.180  11.249 -0.5431 -0.2736 -0.5152
 9716TIP3    H150563   2.652   6.210  11.170  0.2851  0.8407  0.3519
 9716TIP3    H250564   2.605   6.257  11.306 -2.3738 -0.6635  0.0156
 9717TIP3   OH250565   4.974   0.958  11.337  0.1901  0.3395  0.2889
 9717TIP3    H150566   4.957   0.953  11.243  0.9130  1.7320  0.0656
 9717TIP3    H250567   4.906   0.902  11.376 -0.1837 -0.1797 -1.0353
 9718TIP3   OH250568   5.994   1.017   3.690  0.4287  0.5761  0.2748
 9718TIP3    H150569   5.917   1.043   3.639 -0.0776 -1.1901  0.0775
 9718TIP3    H250570   6.049   0.969   3.628  0.5397 -0.2464  0.9951
 9719TIP3   OH250571   2.040   4.623  10.681 -0.2992  0.1863 -0.1508
 9719TIP3    H150572   1.963   4.672  10.653 -0.8879  1.1582  2.8983
 9719TIP3    H250573   2.109   4.689  10.691  0.9387 -0.6222 -2.4641
 9720TIP3   OH250574   6.678   3.418   4.557 -0.3131 -0.5690  0.4268
 9720TIP3    H150575   6.727   3.342   4.528 -0.5092 -0.9412  1.0521
 9720TIP3    H250576   6.650   3.396   4.646 -0.2662  0.2776  0.6621
 9721TIP3   OH250577   1.545   0.801   4.581 -0.1142 -0.0127 -0.3700
 9721TIP3    H150578   1.602   0.872   4.551  0.5031  0.6452  2.1022
 9721TIP3    H250579   1.605   0.729   4.599  0.0181  0.6118  2.0406
 9722TIP3   OH250580   5.142   6.747   5.929 -0.2141 -0.0487 -0.0159
 9722TIP3    H150581   5.195   6.824   5.907 -0.8432  0.3360 -0.2069
 9722TIP3    H250582   5.173   6.720   6.015  0.3066  0.1611 -0.1355
 9723TIP3   OH250583   3.767   3.833  14.313  0.3391  0.5798 -0.0003
 9723TIP3    H150584   3.861   3.816  14.313  0.2494  0.0360 -1.0941
 9723TIP3    H250585   3.749   3.871  14.227 -0.8889 -2.0051 -0.9790
 9724TIP3   OH250586   0.151   2.945   4.843 -0.2092  0.3113 -0.1742
 9724TIP3    H150587   0.234   2.953   4.796  0.2340  1.2246  0.7307
 9724TIP3    H250588   0.118   3.034   4.849 -1.2931 -0.0502 -0.5662
 9725TIP3   OH250589   1.497   2.817   3.461 -0.6023 -0.6881 -0.1681
 9725TIP3    H150590   1.510   2.722   3.461 -1.4698 -0.8204  0.9502
 9725TIP3    H250591   1.531   2.845   3.376  1.2165 -1.7671  0.1527
 9726TIP3   OH250592   0.348   2.483   2.018  0.4577  0.3367 -0.4809
 9726TIP3    H150593   0.394   2.534   1.951  0.3412  1.8481  0.5533
 9726TIP3    H250594   0.416   2.432   2.061  0.3562 -1.7938 -2.6495
 9727TIP3   OH250595   4.224   4.211  16.142  0.3076  0.2921  0.2512
 9727TIP3    H150596   4.136   4.198  16.106  0.6337 -0.8215 -0.1754
 9727TIP3    H250597   4.211   4.211  16.237 -0.1751  0.2269  0.1859
 9728TIP3   OH250598   1.797   5.662   1.582  0.4062 -0.1007 -0.5268
 9728TIP3    H150599   1.762   5.582   1.619 -0.9759  0.4176 -0.6544
 9728TIP3    H250600   1.832   5.636   1.497 -1.4238 -0.3265 -1.2533
 9729TIP3   OH250601   1.772   3.407   1.119  0.1044 -0.5296  0.2755
 9729TIP3    H150602   1.724   3.325   1.115 -1.6491  0.4898 -1.1485
 9729TIP3    H250603   1.856   3.388   1.079 -0.0487 -1.7649  0.5165
 9730TIP3   OH250604   4.448   2.304  12.151 -0.0180 -0.7424 -0.5557
 9730TIP3    H150605   4.455   2.215  12.116 -0.1040  0.1727 -3.1360
 9730TIP3    H250606   4.367   2.338  12.114  0.3642  0.6298 -0.1938
 9731TIP3   OH250607   3.757   0.798  11.127 -0.5831 -0.0920 -0.2609
 9731TIP3    H150608   3.781   0.841  11.045 -0.3928  0.1862 -0.0619
 9731TIP3    H250609   3.743   0.706  11.103  0.3662 -0.2017 -0.4450
 9732TIP3   OH250610   1.060   4.220   3.578  0.0894  0.3940  0.1459
 9732TIP3    H150611   1.080   4.252   3.490 -2.4788 -0.3373 -0.7767
 9732TIP3    H250612   1.002   4.286   3.616 -1.9121 -1.0504 -0.2265
 9733TIP3   OH250613   4.971   2.556   3.996 -0.0271 -0.0994 -0.5210
 9733TIP3    H150614   4.918   2.633   3.977  0.1750  0.8460  2.2471
 9733TIP3    H250615   5.051   2.569   3.946 -0.4341  0.9647 -0.9086
 9734TIP3   OH250616   2.253   0.637   3.981 -0.1947 -0.2371 -0.0514
 9734TIP3    H150617   2.207   0.575   3.925  0.8781 -1.6377  0.5716
 9734TIP3    H250618   2.279   0.708   3.921 -0.1394 -1.1055 -1.0916
 9735TIP3   OH250619   3.606   2.642   2.674 -0.1890  0.3086 -0.5569
 9735TIP3    H150620   3.695   2.677   2.673 -0.0082 -0.0817  0.5141
 9735TIP3    H250621   3.590   2.620   2.766 -2.2862  2.6212 -0.2672
 9736TIP3   OH250622   5.740   6.649   6.565 -0.3176  0.0148  0.4409
 9736TIP3    H150623   5.721   6.574   6.508  1.1346 -0.1177  0.1075
 9736TIP3    H250624   5.835   6.656   6.565 -0.4022  3.5883 -1.8086
 9737TIP3   OH250625   0.618   1.667   1.123 -0.0859  0.2428 -0.0064
 9737TIP3    H150626   0.637   1.721   1.200 -2.8387  1.7545 -0.2591
 9737TIP3    H250627   0.587   1.584   1.158  0.1585  0.3474  0.4654
 9738TIP3   OH250628   4.656   6.118   3.456 -0.2962 -0.5994  0.5039
 9738TIP3    H150629   4.589   6.050   3.470 -0.1957 -0.7168  0.4180
 9738TIP3    H250630   4.731   6.071   3.420 -0.2806 -0.4166  0.2967
 9739TIP3   OH250631   2.100   0.984   2.484 -0.1684  0.4537 -0.3783
 9739TIP3    H150632   2.025   0.961   2.538  1.1408  1.2198  1.8896
 9739TIP3    H250633   2.067   1.050   2.423 -1.6783 -0.4222 -0.5628
 9740TIP3   OH250634   5.402   3.097   5.701  1.0493  0.1301 -0.0312
 9740TIP3    H150635   5.480   3.093   5.757  0.3566  0.7266  1.0135
 9740TIP3    H250636   5.352   3.170   5.736 -1.1150 -1.6743  0.8521
 9741TIP3   OH250637   2.425   0.176   0.713 -0.3324 -0.1765 -0.5970
 9741TIP3    H150638   2.420   0.086   0.743 -0.0751  0.1178  0.3632
 9741TIP3    H250639   2.338   0.196   0.679 -0.5505 -0.5944 -0.2806
 9742TIP3   OH250640   3.931   4.002   1.528 -0.1699 -0.0326  0.0527
 9742TIP3    H150641   3.901   3.972   1.614 -0.1669  0.0840  0.0939
 9742TIP3    H250642   3.988   3.932   1.497  0.9513  0.5569  0.7491
 9743TIP3   OH250643   2.241   2.405   4.073 -0.0526  0.1583  0.3862
 9743TIP3    H150644   2.198   2.368   3.996  1.3850  0.9952 -0.8738
 9743TIP3    H250645   2.330   2.370   4.069  0.2385  0.7716  1.2823
 9744TIP3   OH250646   2.304   6.379  14.303 -0.1795 -1.1381 -0.2616
 9744TIP3    H150647   2.344   6.439  14.366 -0.2757 -2.6056  1.2762
 9744TIP3    H250648   2.222   6.421  14.279  0.0638 -0.3371  0.2651
 9745TIP3   OH250649   1.013   4.088  11.905  0.8095  0.0943 -0.3244
 9745TIP3    H150650   0.949   4.055  11.968  3.0010 -2.2846  0.8483
 9745TIP3    H250651   1.079   4.133  11.959  2.4323 -1.4993 -0.8586
 9746TIP3   OH250652   5.460   3.006  10.766  0.4479 -0.1238  0.4215
 9746TIP3    H150653   5.405   3.063  10.713  1.3393  0.8795  0.5339
 9746TIP3    H250654   5.399   2.952  10.815 -0.4065 -0.1346 -0.6285
 9747TIP3   OH250655   1.754   5.810   5.226 -0.5874 -0.0099  0.4200
 9747TIP3    H150656   1.769   5.904   5.228 -0.0304 -0.0960  0.3855
 9747TIP3    H250657   1.659   5.801   5.230 -0.6060  0.5258  1.4775
 9748TIP3   OH250658   3.083   0.758  14.298  0.5580  0.0494  0.2530
 9748TIP3    H150659   3.105   0.703  14.373  2.0081  1.7896  1.1731
 9748TIP3    H250660   3.149   0.827  14.298 -0.3413  1.0014 -1.7052
 9749TIP3   OH250661   4.745   1.801   3.891  0.6429  0.0453  0.5261
 9749TIP3    H150662   4.679   1.842   3.835 -0.1103 -1.0706  0.5533
 9749TIP3    H250663   4.755   1.861   3.965 -0.6415  0.0526  0.7125
 9750TIP3   OH250664   5.488   4.450  13.402 -0.3071 -0.1709  0.5797
 9750TIP3    H150665   5.536   4.378  13.443  0.9051  1.6631  2.5976
 9750TIP3    H250666   5.553   4.496  13.349 -1.0018 -0.3315 -0.4561
 9751TIP3   OH250667   5.477   5.537  16.610 -0.0096 -0.3501 -0.2467
 9751TIP3    H150668   5.565   5.555  16.643 -0.3993 -0.9652  1.2094
 9751TIP3    H250669   5.442   5.471  16.670 -1.2761 -0.5053 -1.1175
 9752TIP3   OH250670   2.459   3.325  15.506  0.2279  0.0741  0.5994
 9752TIP3    H150671   2.437   3.374  15.586  0.0572  0.4408  0.3306
 9752TIP3    H250672   2.386   3.342  15.447  0.6275  0.2707  0.1563
 9753TIP3   OH250673   1.177   4.577  16.997  0.0008 -0.5846  0.1021
 9753TIP3    H150674   1.143   4.524  17.069 -0.4607  1.5314  1.5528
 9753TIP3    H250675   1.110   4.571  16.929 -1.4640  0.3907  1.3915
 9754TIP3   OH250676   1.625   6.527   0.802 -0.2236  0.5805  0.5726
 9754TIP3    H150677   1.709   6.480   0.808  0.0101  0.8799 -0.2229
 9754TIP3    H250678   1.647   6.618   0.822 -0.0597  0.9428 -1.1121
 9755TIP3   OH250679   1.611   3.717  12.802  0.4428  0.4067  0.3191
 9755TIP3    H150680   1.605   3.626  12.831 -0.4665 -0.0658 -1.2363
 9755TIP3    H250681   1.667   3.714  12.724 -0.3211  1.0396 -0.2689
 9756TIP3   OH250682   0.982   3.514  10.571  0.5680 -0.3505 -0.2563
 9756TIP3    H150683   0.890   3.539  10.575  1.0015  1.3493  0.1726
 9756TIP3    H250684   1.029   3.594  10.597  2.1250 -1.4840  0.5785
 9757TIP3   OH250685   1.625   1.055   1.720  0.0529  0.4226  0.0738
 9757TIP3    H150686   1.717   1.080   1.721  0.3950 -0.7051 -0.7361
 9757TIP3    H250687   1.587   1.098   1.796  1.7022 -0.7284  1.6158
 9758TIP3   OH250688   2.741   5.844  11.026  0.3283 -0.6927 -0.1023
 9758TIP3    H150689   2.810   5.822  11.088 -0.7681 -2.4807  0.5923
 9758TIP3    H250690   2.667   5.870  11.081 -0.3814 -1.4353 -0.6627
 9759TIP3   OH250691   5.384   4.857   3.210 -0.1278 -0.0743 -0.5325
 9759TIP3    H150692   5.419   4.779   3.254 -0.8550  0.1189  0.4131
 9759TIP3    H250693   5.370   4.920   3.280  1.5579  1.3693 -1.4040
 9760TIP3   OH250694   6.096   0.614   1.727 -0.6106  0.5012 -0.1893
 9760TIP3    H150695   6.056   0.536   1.765 -0.8883  0.0831 -1.3320
 9760TIP3    H250696   6.178   0.583   1.688  0.0131  1.0535  0.6408
 9761TIP3   OH250697   2.218   4.849   4.460 -0.6219 -0.0416 -0.1806
 9761TIP3    H150698   2.273   4.910   4.412 -0.7600  0.3795  0.1920
 9761TIP3    H250699   2.280   4.793   4.507 -0.5061  0.8581  0.7668
 9762TIP3   OH250700   4.312   5.567   2.334 -0.3103  0.2651  0.2887
 9762TIP3    H150701   4.358   5.535   2.256 -2.0264 -1.8592  0.0681
 9762TIP3    H250702   4.286   5.657   2.310  0.4038  0.1536 -1.0277
 9763TIP3   OH250703   2.682   0.356   3.842 -0.1166  0.3244  0.2327
 9763TIP3    H150704   2.720   0.435   3.881  0.0460 -0.2034  1.1889
 9763TIP3    H250705   2.593   0.382   3.817 -0.5818  0.4484  1.8762
 9764TIP3   OH250706   5.580   2.557   3.570 -0.4215  0.1055  0.0619
 9764TIP3    H150707   5.630   2.575   3.649  0.0084 -1.1058  0.0941
 9764TIP3    H250708   5.490   2.547   3.600 -0.3119 -0.0261  0.3494
 9765TIP3   OH250709   0.275   5.145   0.487  0.9418  0.1868 -0.0412
 9765TIP3    H150710   0.304   5.112   0.401  2.3950  1.0347  0.0878
 9765TIP3    H250711   0.338   5.108   0.549 -0.9440 -1.6084  0.9053
 9766TIP3   OH250712   2.655   5.118  11.658 -0.5454 -0.0178 -0.6858
 9766TIP3    H150713   2.721   5.142  11.593  1.1249 -1.6375  0.3393
 9766TIP3    H250714   2.691   5.150  11.741 -1.4200 -0.2734 -0.2014
 9767TIP3   OH250715   1.698   0.395  12.475 -0.0718 -0.9542  0.0117
 9767TIP3    H150716   1.740   0.329  12.531  0.2258 -2.1267 -1.5103
 9767TIP3    H250717   1.750   0.395  12.395  0.6362  2.0406  0.3838
 9768TIP3   OH250718   3.638   6.634  16.571 -0.2745  0.1359  0.2487
 9768TIP3    H150719   3.705   6.576  16.608 -2.2204 -3.4662 -1.3760
 9768TIP3    H250720   3.668   6.652  16.482  1.7093  4.3258  1.4864
 9769TIP3   OH250721   0.748   5.528  14.796 -0.0613  0.5578 -0.0348
 9769TIP3    H150722   0.791   5.452  14.758 -0.4803  0.7536 -0.9482
 9769TIP3    H250723   0.700   5.494  14.872  1.1467  0.2338  0.6051
 9770TIP3   OH250724   4.397   3.527   3.629  0.4987 -0.8442  0.2417
 9770TIP3    H150725   4.331   3.595   3.646  0.0026 -1.4066  0.6039
 9770TIP3    H250726   4.444   3.519   3.712  2.9885  1.5662 -0.7576
 9771TIP3   OH250727   1.049   4.985   4.852  0.4354  0.3206 -0.8224
 9771TIP3    H150728   1.066   5.077   4.871 -0.9594  0.3671  0.3287
 9771TIP3    H250729   1.109   4.937   4.909 -2.1839  0.5020  2.3646
 9772TIP3   OH250730   0.062   1.811   2.844  0.4301 -0.5676 -0.0200
 9772TIP3    H150731  -0.018   1.855   2.814  2.0787  1.1020 -2.3317
 9772TIP3    H250732   0.072   1.839   2.935 -0.9970  0.1391 -0.0537
 9773TIP3   OH250733   5.256   5.732  13.335 -0.0641  0.3360  0.2230
 9773TIP3    H150734   5.241   5.648  13.377  0.2660 -0.1758 -0.6554
 9773TIP3    H250735   5.350   5.749  13.349  0.4536 -0.6694 -1.7379
 9774TIP3   OH250736   3.990   6.405  11.617  0.1391 -0.1916  0.6003
 9774TIP3    H150737   4.068   6.455  11.643 -0.1886 -0.0275  1.3105
 9774TIP3    H250738   3.941   6.394  11.699 -0.9320  0.3121  0.0441
 9775TIP3   OH250739   2.809   6.277  11.076 -0.4481 -0.1595  0.0121
 9775TIP3    H150740   2.889   6.260  11.027 -0.4640  0.8315 -0.3725
 9775TIP3    H250741   2.824   6.362  11.117 -1.7797  0.6226 -1.0630
 9776TIP3   OH250742   2.324   4.539  14.626 -0.4367 -0.1417  0.7264
 9776TIP3    H150743   2.321   4.444  14.612  1.4671 -0.0028 -1.1744
 9776TIP3    H250744   2.394   4.569  14.568 -2.3760  2.7178 -0.3533
 9777TIP3   OH250745   4.187   0.274  16.783  0.3166 -0.2056  0.1749
 9777TIP3    H150746   4.134   0.206  16.825  1.6950 -1.3716  0.1223
 9777TIP3    H250747   4.169   0.264  16.689 -0.1498  0.1006  0.2290
 9778TIP3   OH250748   5.554   4.149   3.039 -0.1160 -0.5451  0.4155
 9778TIP3    H150749   5.579   4.158   2.947  1.2026 -0.4870  0.7521
 9778TIP3    H250750   5.565   4.056   3.058  0.4415 -0.4274  0.7149
 9779TIP3   OH250751   2.959   1.571   0.060  0.5916 -0.2253 -0.0773
 9779TIP3    H150752   2.875   1.615   0.073  0.7128  0.9797 -2.6775
 9779TIP3    H250753   2.937   1.485   0.025  0.4288 -1.3965  2.6595
 9780TIP3   OH250754   2.730   3.470   3.892  0.8356 -0.3469  0.2180
 9780TIP3    H150755   2.755   3.432   3.976 -0.2841 -1.5186  0.0474
 9780TIP3    H250756   2.784   3.423   3.828  1.9516  0.7957  0.2824
 9781TIP3   OH250757   5.297   3.849  11.662 -0.8520  0.6564 -0.1765
 9781TIP3    H150758   5.315   3.765  11.621  0.7477  1.8986 -2.2445
 9781TIP3    H250759   5.326   3.838  11.753  1.0915 -0.5071 -0.8734
 9782TIP3   OH250760   1.077   4.397   4.400 -0.4188 -0.3496 -0.1906
 9782TIP3    H150761   1.067   4.476   4.347 -0.6787 -1.2987 -1.5925
 9782TIP3    H250762   1.167   4.402   4.433  0.2277 -0.3927 -1.8505
 9783TIP3   OH250763   2.101   3.144   3.272 -0.5980 -0.0737 -0.2176
 9783TIP3    H150764   2.074   3.175   3.359 -0.7790  0.3239 -0.4136
 9783TIP3    H250765   2.055   3.061   3.261 -0.7574 -0.0101 -0.0339
 9784TIP3   OH250766   2.753   5.358  15.413 -0.2583 -0.7220  0.1634
 9784TIP3    H150767   2.752   5.318  15.325  0.5558 -0.7067  0.1471
 9784TIP3    H250768   2.802   5.439  15.402 -2.0487  0.4241  0.1581
 9785TIP3   OH250769   0.010   5.920  13.679 -0.1502 -0.2412 -0.6121
 9785TIP3    H150770   0.003   6.010  13.712  0.5533 -0.5122  0.3166
 9785TIP3    H250771  -0.042   5.868  13.739  1.9448 -0.8836  0.7788
 9786TIP3   OH250772   5.004   0.183  15.160  0.0161  0.5194  0.2318
 9786TIP3    H150773   5.004   0.182  15.064  0.3003  1.3917  0.2184
 9786TIP3    H250774   4.914   0.160  15.184 -0.2071  0.8721 -0.2508
 9787TIP3   OH250775   0.969   3.122  13.299  0.3787 -0.2809  0.0593
 9787TIP3    H150776   0.993   3.099  13.388 -1.9314 -0.8315  0.6059
 9787TIP3    H250777   1.033   3.078  13.244  2.3434  0.7327  1.4227
 9788TIP3   OH250778   6.775   5.578  14.187  0.0987  0.1951  0.2858
 9788TIP3    H150779   6.711   5.554  14.120 -0.8530 -0.7017  1.4668
 9788TIP3    H250780   6.807   5.664  14.160 -2.3744  1.1596  0.2006
 9789TIP3   OH250781   3.593   6.435   0.558 -0.0933  0.1036  1.0867
 9789TIP3    H150782   3.671   6.379   0.559  0.3814  0.7524  1.1524
 9789TIP3    H250783   3.626   6.522   0.583 -0.8982  0.3079  1.4633
 9790TIP3   OH250784   3.869   0.457   2.253 -1.0986  0.3231  0.4672
 9790TIP3    H150785   3.836   0.382   2.203 -0.5025  1.2362 -1.4290
 9790TIP3    H250786   3.964   0.446   2.252 -1.0000  1.1225  0.0865
 9791TIP3   OH250787   1.032   2.395   5.815 -0.2751 -0.2777 -0.6737
 9791TIP3    H150788   0.979   2.316   5.827 -0.6436  0.2300  1.5648
 9791TIP3    H250789   1.122   2.363   5.809 -0.4574 -0.8997 -0.1646
 9792TIP3   OH250790   0.477   1.783  14.099 -0.6294  0.0572  0.2612
 9792TIP3    H150791   0.383   1.800  14.103 -0.8517 -1.0140 -0.0750
 9792TIP3    H250792   0.497   1.781  14.005 -0.1290  0.9404  0.3326
 9793TIP3   OH250793   0.857   6.007  15.126 -0.2031  0.5434  0.3669
 9793TIP3    H150794   0.951   6.016  15.138 -0.4090 -0.3643  3.4321
 9793TIP3    H250795   0.845   6.011  15.031  2.5962  3.1478 -0.0369
 9794TIP3   OH250796   1.804   1.427   0.523  0.5142 -0.5162 -0.4531
 9794TIP3    H150797   1.879   1.368   0.513  0.2818 -0.7371 -0.9538
 9794TIP3    H250798   1.773   1.414   0.612 -0.0955 -1.8292 -0.8356
 9795TIP3   OH250799   1.358   2.571   1.371 -0.0813 -0.2852 -0.2054
 9795TIP3    H150800   1.359   2.543   1.463 -0.9117  3.2541  1.0571
 9795TIP3    H250801   1.450   2.568   1.344  0.1589 -1.5559  0.6665
 9796TIP3   OH250802   4.669   6.632   5.383 -0.2722 -0.2704 -0.0048
 9796TIP3    H150803   4.653   6.727   5.390  0.0975 -0.1455 -0.7657
 9796TIP3    H250804   4.760   6.625   5.354 -0.7033 -0.8105 -1.3035
 9797TIP3   OH250805   3.052   0.951   4.344 -0.3447 -0.4057 -0.2771
 9797TIP3    H150806   2.968   0.909   4.327 -1.3654  1.9837 -1.5682
 9797TIP3    H250807   3.046   0.979   4.435 -0.1394 -1.8423  0.2152
 9798TIP3   OH250808   2.172   4.262   1.431  0.1753 -0.1590 -0.4085
 9798TIP3    H150809   2.105   4.315   1.475  0.5469  0.9895 -1.1874
 9798TIP3    H250810   2.210   4.210   1.502 -1.4103 -0.7101  0.0742
 9799TIP3   OH250811   3.439   2.086   1.482 -0.2031  0.1484 -0.2162
 9799TIP3    H150812   3.472   2.163   1.528 -1.8444 -0.3312  1.8889
 9799TIP3    H250813   3.492   2.082   1.402 -0.2718  3.6167 -0.5919
 9800TIP3   OH250814   3.631   0.941  12.424  0.4196  0.7282 -0.0623
 9800TIP3    H150815   3.720   0.908  12.416  0.0594 -0.7441  1.4312
 9800TIP3    H250816   3.581   0.867  12.457 -1.5900  1.2305 -1.7698
 9801TIP3   OH250817   1.100   4.378  14.960 -0.1711  0.1283  0.1254
 9801TIP3    H150818   1.123   4.285  14.954  0.8431  0.2723  1.3568
 9801TIP3    H250819   1.038   4.382  15.033 -0.2405  0.4289  0.0504
 9802TIP3   OH250820   5.300   2.787   5.968  0.2991  0.2059 -0.2557
 9802TIP3    H150821   5.341   2.767   5.884  0.6819 -0.3037  0.0458
 9802TIP3    H250822   5.351   2.738   6.032  2.0598  3.0620  0.6898
 9803TIP3   OH250823   0.222   0.040  17.139  0.0908 -0.8929 -0.1289
 9803TIP3    H150824   0.271  -0.009  17.073  2.1257 -0.3921  0.9042
 9803TIP3    H250825   0.239  -0.007  17.221  2.9125  1.8810  1.0776
 9804TIP3   OH250826   4.227   1.971   0.219 -0.1063  0.1194 -0.4701
 9804TIP3    H150827   4.246   2.032   0.290 -0.8408 -0.3986  0.1839
 9804TIP3    H250828   4.313   1.947   0.185  0.2987 -0.2034  0.7431
 9805TIP3   OH250829   5.424   1.735  15.076 -0.0760  0.0056 -0.5729
 9805TIP3    H150830   5.480   1.801  15.035  1.0056 -0.0154  0.7864
 9805TIP3    H250831   5.455   1.652  15.042 -0.9579  0.1204 -1.7244
 9806TIP3   OH250832   1.150   0.750   5.919  0.2017 -0.1239 -0.4948
 9806TIP3    H150833   1.086   0.769   5.851  0.9671 -1.0877 -1.5125
 9806TIP3    H250834   1.099   0.702   5.986 -0.8720  2.0530  0.3520
 9807TIP3   OH250835   3.109   3.927  11.561  0.3840  0.6681  0.7100
 9807TIP3    H150836   3.014   3.922  11.551  0.6239 -0.9075 -1.5733
 9807TIP3    H250837   3.133   3.849  11.609  0.6257  0.3503  0.0852
 9808TIP3   OH250838   5.740   3.010  10.740  0.1500 -0.1863  0.1965
 9808TIP3    H150839   5.752   3.097  10.779 -0.2089 -0.1194  0.1546
 9808TIP3    H250840   5.645   2.998  10.734  0.1848  0.2322 -1.6244
 9809TIP3   OH250841   0.067   4.528  14.699  0.1109 -0.1784 -0.3585
 9809TIP3    H150842   0.117   4.557  14.623  1.8524 -1.7230  0.1322
 9809TIP3    H250843   0.077   4.598  14.763  1.1684 -0.2020 -0.4907
 9810TIP3   OH250844   5.108   2.727  11.712 -0.4474  0.2025 -0.0484
 9810TIP3    H150845   5.013   2.719  11.725 -0.5827  1.3678 -0.2124
 9810TIP3    H250846   5.117   2.768  11.626  0.2025  0.2412  0.0356
 9811TIP3   OH250847   1.726   1.259  16.603 -0.4517 -0.5702  0.5966
 9811TIP3    H150848   1.753   1.350  16.591  1.7822 -1.1366  0.8449
 9811TIP3    H250849   1.631   1.263  16.606 -0.4843  1.5636 -0.8659
 9812TIP3   OH250850   5.852   5.463   1.556 -0.5278 -0.1087  0.2696
 9812TIP3    H150851   5.930   5.513   1.531 -1.0445  0.5068 -0.1567
 9812TIP3    H250852   5.873   5.373   1.535  1.6765 -0.6644  3.9830
 9813TIP3   OH250853   5.213   5.764   4.511  0.4332  0.5196 -0.3360
 9813TIP3    H150854   5.125   5.777   4.546  0.1552  1.5416 -1.3727
 9813TIP3    H250855   5.210   5.676   4.471  0.0882  0.2859  0.1948
 9814TIP3   OH250856   4.982   4.517  13.565 -0.8005 -0.0409 -0.7360
 9814TIP3    H150857   4.955   4.439  13.613 -1.3647  0.4834 -0.1696
 9814TIP3    H250858   4.957   4.500  13.475  1.5239 -1.6164 -1.1548
 9815TIP3   OH250859   3.656   3.815   3.678 -0.1580  0.0853 -0.2038
 9815TIP3    H150860   3.586   3.878   3.660 -0.3627  0.2320  1.0443
 9815TIP3    H250861   3.705   3.809   3.595 -1.7410 -0.1645 -1.1749
 9816TIP3   OH250862   2.256   5.900  14.679  0.2786 -0.0253  0.6421
 9816TIP3    H150863   2.266   5.922  14.772 -1.7519  2.0645  0.4475
 9816TIP3    H250864   2.206   5.973  14.643 -0.9386 -1.8771 -1.6357
 9817TIP3   OH250865   5.162   1.213   0.793  0.5300  0.0958  0.2922
 9817TIP3    H150866   5.068   1.214   0.776  0.6954 -0.8634 -0.7758
 9817TIP3    H250867   5.169   1.200   0.888 -0.3993  0.4051  0.4178
 9818TIP3   OH250868   3.053   4.264   1.035  0.6147 -0.1629 -0.4391
 9818TIP3    H150869   2.998   4.334   0.999  0.2012  0.0748  0.6390
 9818TIP3    H250870   3.139   4.277   0.994  0.2006  0.1799 -1.2283
 9819TIP3   OH250871   6.494   5.655  11.139 -0.0330  0.2149 -0.1802
 9819TIP3    H150872   6.415   5.675  11.088 -0.2230  2.4680  0.8479
 9819TIP3    H250873   6.461   5.639  11.228  0.5298 -0.6865 -0.1259
 9820TIP3   OH250874   0.180   4.520   5.662 -0.0550  0.3189 -0.2364
 9820TIP3    H150875   0.158   4.441   5.710 -1.2934  0.8436  0.0858
 9820TIP3    H250876   0.145   4.506   5.574 -1.8297  1.1819  0.2955
 9821TIP3   OH250877   0.890   1.067   1.126 -0.1557 -0.3719 -0.1898
 9821TIP3    H150878   0.829   1.095   1.194 -1.9744  1.9145 -2.5320
 9821TIP3    H250879   0.857   0.983   1.096  0.8762 -1.5792  1.8802
 9822TIP3   OH250880   3.980   1.554   2.030 -0.0471 -0.2959  0.1303
 9822TIP3    H150881   4.005   1.633   1.983 -0.3640 -0.6967 -0.7438
 9822TIP3    H250882   3.896   1.528   1.991  1.5944 -2.9185 -2.0729
 9823TIP3   OH250883   2.770   3.991  14.307  0.1273  0.0192  0.0191
 9823TIP3    H150884   2.714   4.042  14.365 -0.2071 -1.8848  1.4691
 9823TIP3    H250885   2.847   4.045  14.294 -0.8949  1.5602  0.1501
 9824TIP3   OH250886   4.801   2.873   4.584  0.4057  0.3522 -0.4763
 9824TIP3    H150887   4.892   2.903   4.578  0.5016 -0.1777 -2.2185
 9824TIP3    H250888   4.804   2.781   4.558 -0.3929 -0.2519  1.3400
 9825TIP3   OH250889   2.953   0.300   2.869 -0.3520  0.3024 -0.3479
 9825TIP3    H150890   2.971   0.230   2.807  0.3056 -0.4573  0.6640
 9825TIP3    H250891   3.017   0.368   2.848 -0.7849  0.4772 -1.1288
 9826TIP3   OH250892   3.116   2.095  14.939  0.7622 -0.3964 -0.0308
 9826TIP3    H150893   3.174   2.022  14.961  0.1798 -0.6947  0.5202
 9826TIP3    H250894   3.108   2.091  14.844 -0.1791 -1.7692  0.0754
 9827TIP3   OH250895   3.496   1.652  16.789 -0.3180 -0.2036 -0.6653
 9827TIP3    H150896   3.480   1.707  16.866  1.6525 -1.3876  0.6521
 9827TIP3    H250897   3.493   1.713  16.715 -0.7173  1.2218  0.4891
 9828TIP3   OH250898   4.439   3.545   5.222  0.3023 -0.1093  0.1949
 9828TIP3    H150899   4.484   3.606   5.281 -1.3268 -0.0163  1.3835
 9828TIP3    H250900   4.414   3.598   5.146 -2.7826  1.2656  2.0355
 9829TIP3   OH250901   1.407   3.234   2.559 -0.4266 -0.4616 -0.2968
 9829TIP3    H150902   1.321   3.246   2.519 -1.0104  0.7602  1.2618
 9829TIP3    H250903   1.422   3.313   2.609  1.0830 -1.1749  0.4368
 9830TIP3   OH250904   0.905   4.069   6.481  0.4749 -0.3974  0.1154
 9830TIP3    H150905   0.860   4.126   6.543 -0.6647 -1.3333  0.1857
 9830TIP3    H250906   0.913   4.122   6.401  0.5741  0.2823  0.5709
 9831TIP3   OH250907   4.552   4.795  16.652  0.3012 -0.1961 -0.1412
 9831TIP3    H150908   4.599   4.876  16.633  1.3983 -0.9381 -0.6580
 9831TIP3    H250909   4.560   4.784  16.746 -1.5354  1.2793  0.2661
 9832TIP3   OH250910   2.635   2.860   5.575  0.8237 -0.4025  0.0860
 9832TIP3    H150911   2.617   2.824   5.662  0.7693  1.5807  0.9281
 9832TIP3    H250912   2.600   2.794   5.514 -1.8092 -0.4933  1.5653
 9833TIP3   OH250913   4.249   2.592  16.758  0.3916 -0.2439 -0.0481
 9833TIP3    H150914   4.276   2.502  16.772 -0.3215 -0.2588  1.4989
 9833TIP3    H250915   4.178   2.587  16.694 -0.4249 -0.9311  0.8852
 9834TIP3   OH250916   2.340   4.221  10.943 -0.1167  0.5641  0.2683
 9834TIP3    H150917   2.339   4.131  10.910  2.1361  0.3107  0.7236
 9834TIP3    H250918   2.318   4.275  10.867  0.6867 -0.2571 -0.5605
 9835TIP3   OH250919   2.877   4.908  12.940 -0.1407 -0.5741 -0.3785
 9835TIP3    H150920   2.783   4.916  12.925 -0.1603 -0.1052 -0.0209
 9835TIP3    H250921   2.885   4.847  13.013 -0.1818 -0.3236 -0.1651
 9836TIP3   OH250922   3.426   3.576   5.270  0.1863  0.4910 -0.0970
 9836TIP3    H150923   3.486   3.646   5.244  1.9229  0.6805  3.8574
 9836TIP3    H250924   3.384   3.609   5.349 -2.4792 -1.1848 -0.6874
 9837TIP3   OH250925   6.194   3.463  15.564  0.3668  0.2085 -0.0931
 9837TIP3    H150926   6.266   3.517  15.531 -0.6224  1.8292  0.2784
 9837TIP3    H250927   6.237   3.397  15.618  1.7883 -0.7669 -2.2896
 9838TIP3   OH250928   3.036   3.549  17.042  0.0702  0.3220 -0.1836
 9838TIP3    H150929   2.942   3.561  17.035 -0.2577 -2.2337 -1.0361
 9838TIP3    H250930   3.059   3.585  17.128 -1.4219  2.1709 -0.5121
 9839TIP3   OH250931   3.982   4.370  11.626  0.6009  0.3862 -0.5087
 9839TIP3    H150932   3.964   4.298  11.565 -0.1391 -1.6000  1.9111
 9839TIP3    H250933   3.903   4.424  11.623 -0.2244 -0.7462  0.0305
 9840TIP3   OH250934   5.818   5.892  13.460 -0.1066  0.1823  0.3419
 9840TIP3    H150935   5.739   5.946  13.467 -0.1210  0.1055  0.7370
 9840TIP3    H250936   5.788   5.811  13.420 -0.6691 -0.7763  2.5789
 9841TIP3   OH250937   3.916   1.323  14.544  0.1700 -0.3088 -0.0866
 9841TIP3    H150938   3.965   1.390  14.591  0.9323 -1.9186  1.5165
 9841TIP3    H250939   3.830   1.362  14.529  1.1611  1.6939 -0.8737
 9842TIP3   OH250940   5.560   0.364   2.047 -0.0534  0.6568  0.5452
 9842TIP3    H150941   5.517   0.337   1.966 -1.3974 -0.6082  1.6119
 9842TIP3    H250942   5.650   0.332   2.038 -0.0009  1.1213 -0.7077
 9843TIP3   OH250943   3.199   2.910   4.812  0.0654  0.0283  0.0043
 9843TIP3    H150944   3.253   2.838   4.781  0.2998 -0.6541  1.8562
 9843TIP3    H250945   3.244   2.989   4.782  0.6955 -0.5722 -0.6528
 9844TIP3   OH250946   6.506   6.664  15.711  0.4799 -0.7263 -0.0669
 9844TIP3    H150947   6.553   6.717  15.776  0.0397 -1.0175  0.4927
 9844TIP3    H250948   6.458   6.728  15.658  1.1145 -0.4613 -0.3422
 9845TIP3   OH250949   4.987   2.741   4.967 -0.2652  0.5272  0.0399
 9845TIP3    H150950   4.974   2.769   5.057  0.2998  1.1287 -0.0555
 9845TIP3    H250951   4.900   2.717   4.936 -0.5965  1.1360  0.4764
 9846TIP3   OH250952   3.856   4.943  16.366 -0.0647 -0.3955  0.4002
 9846TIP3    H150953   3.790   4.892  16.318  0.4790 -2.4110  1.6365
 9846TIP3    H250954   3.938   4.924  16.320  0.1201 -0.5637  0.7918
 9847TIP3   OH250955   1.683   4.610  16.020 -0.3153 -0.4258  0.6005
 9847TIP3    H150956   1.705   4.548  15.950 -0.4136 -1.9978  1.9052
 9847TIP3    H250957   1.610   4.570  16.066 -0.7859  0.9776  1.1301
 9848TIP3   OH250958   2.714   6.459   2.761 -0.3260 -0.2264  0.0372
 9848TIP3    H150959   2.778   6.428   2.697 -0.2432 -0.9052  0.4325
 9848TIP3    H250960   2.652   6.386   2.771 -0.1828 -0.2446  0.9215
 9849TIP3   OH250961   3.838   4.332   1.768  0.1683 -0.0731  0.3847
 9849TIP3    H150962   3.828   4.427   1.774 -0.2604 -0.1510  1.0694
 9849TIP3    H250963   3.835   4.302   1.859 -0.9858 -0.8610  0.1095
 9850TIP3   OH250964   6.113   1.887  14.528  0.5663 -0.2541 -0.0869
 9850TIP3    H150965   6.114   1.819  14.460  1.4798  0.6590 -1.0269
 9850TIP3    H250966   6.108   1.969  14.479  0.3159  0.3856  0.9996
 9851TIP3   OH250967   2.747   1.615  16.052  0.1304  0.2487  0.1426
 9851TIP3    H150968   2.809   1.682  16.078 -0.6551  0.7799  0.6945
 9851TIP3    H250969   2.762   1.543  16.113 -0.0759  0.5412  0.5398
 9852TIP3   OH250970   4.682   0.117   2.497 -0.0589 -0.0834 -0.7984
 9852TIP3    H150971   4.745   0.056   2.535  0.6908 -0.1971 -2.1534
 9852TIP3    H250972   4.711   0.203   2.526 -1.7098 -0.3619  1.9681
 9853TIP3   OH250973   6.469   4.318   1.585  0.6370 -0.4469 -0.1541
 9853TIP3    H150974   6.544   4.333   1.527  0.6674  0.1446  0.0227
 9853TIP3    H250975   6.509   4.304   1.671  0.5347  0.8786  0.1422
 9854TIP3   OH250976   0.577   1.563   1.484  0.6915  0.2134  0.0161
 9854TIP3    H150977   0.584   1.537   1.392 -1.5220  2.4980 -0.9272
 9854TIP3    H250978   0.534   1.490   1.527  0.7744 -0.4417 -0.9859
 9855TIP3   OH250979   1.402   1.068  11.488 -0.2446 -0.3708  0.7558
 9855TIP3    H150980   1.462   1.121  11.436  1.7402 -0.8736  2.3992
 9855TIP3    H250981   1.375   1.125  11.560 -0.4107 -0.6809  0.9412
 9856TIP3   OH250982   0.608   2.453  15.205 -0.2907 -0.8261  0.1497
 9856TIP3    H150983   0.606   2.543  15.172  1.6071  0.3567  2.8963
 9856TIP3    H250984   0.653   2.404  15.136 -1.7858  0.1607 -1.6093
 9857TIP3   OH250985   5.079   6.502  10.910  0.0013 -0.5285 -0.2078
 9857TIP3    H150986   5.082   6.581  10.963 -0.3541 -0.1942 -0.6794
 9857TIP3    H250987   4.989   6.472  10.916 -0.1167 -0.3309 -0.8356
 9858TIP3   OH250988   1.131   2.874   2.367 -0.4271  0.0812  0.6910
 9858TIP3    H150989   1.099   2.864   2.277  1.9482  2.5454 -0.5874
 9858TIP3    H250990   1.053   2.864   2.422 -1.9168 -1.7362 -1.5723
 9859TIP3   OH250991   5.606   2.951   4.763 -0.3110 -0.3619 -0.0944
 9859TIP3    H150992   5.514   2.979   4.763 -0.4500 -0.6778 -2.1228
 9859TIP3    H250993   5.655   3.033   4.758 -0.5235 -0.2330 -0.1146
 9860TIP3   OH250994   5.083   1.706   2.122  0.2341 -0.1480 -0.2537
 9860TIP3    H150995   5.048   1.789   2.091 -2.0584 -0.1446  1.9609
 9860TIP3    H250996   5.139   1.675   2.051  1.0309  3.1535 -1.2387
 9861TIP3   OH250997   1.865   3.799   2.277 -0.3099 -0.1777  0.6447
 9861TIP3    H150998   1.873   3.728   2.213  0.7535  1.0492 -0.6607
 9861TIP3    H250999   1.951   3.804   2.318 -0.4134  0.2883  0.8090
 9862TIP3   OH251000   0.196   3.600   2.855 -0.3075  0.2499 -0.1926
 9862TIP3    H151001   0.148   3.662   2.800  0.6291  0.5063 -0.7654
 9862TIP3    H251002   0.136   3.576   2.925 -0.3468  2.6340  0.6677
 9863TIP3   OH251003   1.679   1.380   5.543 -0.1070 -0.3196 -0.1486
 9863TIP3    H151004   1.693   1.412   5.632  1.1763 -0.7796 -0.1524
 9863TIP3    H251005   1.676   1.285   5.552 -1.3427 -0.3254 -0.4439
 9864TIP3   OH251006   6.439   3.393   3.411 -0.2940  0.1539  0.4345
 9864TIP3    H151007   6.396   3.460   3.464 -1.0930 -0.3342  0.4331
 9864TIP3    H251008   6.369   3.330   3.393  0.3668 -0.5090  0.1672
 9865TIP3   OH251009   1.157   1.725   1.901  0.3133  0.2162  0.4061
 9865TIP3    H151010   1.151   1.771   1.817  0.6495  2.1619  1.3791
 9865TIP3    H251011   1.067   1.721   1.932  0.2239 -0.2434  0.0977
 9866TIP3   OH251012   3.898   5.430  11.524  0.1607  0.0948  0.2167
 9866TIP3    H151013   3.862   5.412  11.611 -0.2360  0.6948  0.1850
 9866TIP3    H251014   3.985   5.391  11.526 -0.1470 -0.5955  0.6084
 9867TIP3   OH251015   1.644   6.604   1.831  0.0578 -0.1163  0.1049
 9867TIP3    H151016   1.618   6.520   1.868  2.9886 -1.2820 -0.2006
 9867TIP3    H251017   1.727   6.625   1.875  0.8849  1.1242 -1.8979
 9868TIP3   OH251018   4.371   0.673   1.115  0.1069 -0.5832 -0.5352
 9868TIP3    H151019   4.318   0.727   1.057  0.2763 -0.7187 -0.8188
 9868TIP3    H251020   4.457   0.670   1.073  0.8959  1.1275  0.8078
 9869TIP3   OH251021   5.318   3.634  11.852  0.2737 -0.3758 -0.5176
 9869TIP3    H151022   5.288   3.544  11.856  0.8736 -0.5792 -0.4723
 9869TIP3    H251023   5.414   3.628  11.852  0.3330  0.2815  0.2180
 9870TIP3   OH251024   1.571   1.057  15.565 -0.1494  0.0459 -0.5416
 9870TIP3    H151025   1.507   1.097  15.623  0.0178 -1.0324  0.4149
 9870TIP3    H251026   1.530   0.974  15.538  1.1288 -1.0759  0.7570
 9871TIP3   OH251027   3.725   1.293   5.199 -0.5657  0.0544 -0.3417
 9871TIP3    H151028   3.730   1.226   5.267  0.3185 -0.5517 -0.9801
 9871TIP3    H251029   3.672   1.254   5.130 -0.4313  0.1831 -0.5192
 9872TIP3   OH251030   3.096   5.096   3.508  0.2214 -0.1461 -0.3862
 9872TIP3    H151031   3.095   5.174   3.453  1.2634  0.2395  0.1145
 9872TIP3    H251032   3.112   5.024   3.446  1.0884  0.2500 -0.6413
 9873TIP3   OH251033   0.947   5.457  16.520 -0.1522  0.0094  0.0706
 9873TIP3    H151034   0.911   5.421  16.439 -1.0380  0.7501  0.1200
 9873TIP3    H251035   0.871   5.466  16.578  0.5456 -0.9739  1.1689
 9874TIP3   OH251036   6.267   6.635   0.858  0.7223  0.1210  0.4572
 9874TIP3    H151037   6.177   6.661   0.877  1.2217  1.5843  1.0054
 9874TIP3    H251038   6.282   6.663   0.768  0.6166 -0.1848  0.3427
 9875TIP3   OH251039   3.660   0.252   3.602  0.0620  0.2850  1.1470
 9875TIP3    H151040   3.744   0.244   3.557 -0.5849 -1.0669  0.1250
 9875TIP3    H251041   3.608   0.179   3.569 -1.6979  1.3802  1.3796
 9876TIP3   OH251042   0.727   4.994   6.372 -0.1915  0.0254  0.1480
 9876TIP3    H151043   0.634   4.994   6.347 -1.1145 -1.2102  3.1042
 9876TIP3    H251044   0.752   4.902   6.372  0.7689  0.2778  0.2756
 9877TIP3   OH251045   3.837   4.439   4.641 -0.1172  0.2476 -0.3656
 9877TIP3    H151046   3.848   4.346   4.619 -0.3255  0.2422 -0.4500
 9877TIP3    H251047   3.752   4.443   4.684  0.0338  0.3498 -0.0741
 9878TIP3   OH251048   4.437   2.252  12.821  0.8747 -0.0588  0.1925
 9878TIP3    H151049   4.373   2.192  12.860 -0.2121  1.5681  1.0295
 9878TIP3    H251050   4.428   2.239  12.727  0.7371 -1.2412  0.3487
 9879TIP3   OH251051   5.475   2.667   2.611  0.0323 -0.7431 -0.0891
 9879TIP3    H151052   5.541   2.726   2.647 -1.0467  0.8374 -0.5910
 9879TIP3    H251053   5.457   2.606   2.682  0.8999 -0.2287  0.5997
 9880TIP3   OH251054   1.030   1.235  17.098  0.4465 -0.0555 -0.4775
 9880TIP3    H151055   1.062   1.322  17.122  0.5519 -0.5736  1.4642
 9880TIP3    H251056   1.101   1.195  17.048  0.8630  0.5553 -0.3774
 9881TIP3   OH251057   1.492   2.680  15.166 -0.4219 -0.1537  0.0727
 9881TIP3    H151058   1.432   2.605  15.166 -0.0395 -0.5211 -1.7144
 9881TIP3    H251059   1.500   2.704  15.258 -0.2079 -2.5941  0.7858
 9882TIP3   OH251060   3.790   1.221  11.607  0.4518 -0.3740  0.0383
 9882TIP3    H151061   3.821   1.263  11.527  1.6421  1.0146  1.1878
 9882TIP3    H251062   3.840   1.139  11.612  1.0543 -0.0222 -0.1529
 9883TIP3   OH251063   1.154   3.271   2.393 -0.2132 -0.3642  0.3334
 9883TIP3    H151064   1.088   3.201   2.390 -0.2823 -0.2949  0.2311
 9883TIP3    H251065   1.103   3.352   2.396 -0.1320 -0.3137  0.3462
 9884TIP3   OH251066   6.513   4.402  12.096 -0.2874 -0.4704 -0.2991
 9884TIP3    H151067   6.480   4.344  12.164  1.9351 -0.7789  0.5938
 9884TIP3    H251068   6.574   4.461  12.141  1.1677 -0.6131 -1.9569
 9885TIP3   OH251069   1.414   6.327   0.797 -0.7786 -0.2982 -0.6348
 9885TIP3    H151070   1.496   6.369   0.824 -0.5332 -0.2401 -1.4500
 9885TIP3    H251071   1.402   6.256   0.860 -0.6232  0.3075  0.0923
 9886TIP3   OH251072   1.901   5.377  15.533  0.4379 -0.7864  0.2808
 9886TIP3    H151073   1.960   5.376  15.609  0.3446 -0.0232  0.3685
 9886TIP3    H251074   1.944   5.320  15.469  1.5129  0.1250  0.1668
 9887TIP3   OH251075   2.613   0.376   0.749  0.5361  0.2839 -0.1839
 9887TIP3    H151076   2.544   0.312   0.729  0.0865 -0.2934  2.7392
 9887TIP3    H251077   2.659   0.388   0.666 -1.8157 -0.8269 -1.7779
 9888TIP3   OH251078   1.857   3.703   5.939  0.0683  0.2637  0.1075
 9888TIP3    H151079   1.918   3.642   5.981  1.2054  1.5661  0.4058
 9888TIP3    H251080   1.815   3.749   6.012 -1.0556 -0.3747 -0.1069
 9889TIP3   OH251081   2.254   6.202   1.839 -0.2848 -0.7579 -0.1885
 9889TIP3    H151082   2.196   6.275   1.861  0.1882  0.7891 -3.4522
 9889TIP3    H251083   2.198   6.124   1.844 -1.1765 -0.0446  1.9588
 9890TIP3   OH251084   1.343   6.723   6.280  0.3828  0.3911 -0.2181
 9890TIP3    H151085   1.328   6.794   6.343  1.0755  1.9371 -1.6933
 9890TIP3    H251086   1.423   6.681   6.310 -0.2822 -0.1012  0.9340
 9891TIP3   OH251087   5.159   4.164  16.439 -0.3577  0.1346  0.7022
 9891TIP3    H151088   5.076   4.176  16.393  0.6070 -1.2725 -1.5778
 9891TIP3    H251089   5.134   4.130  16.525 -2.1658  0.7254  0.4540
 9892TIP3   OH251090   1.604   3.074  15.303  0.1765  0.1070 -0.0407
 9892TIP3    H151091   1.544   3.130  15.254 -1.5967 -0.8122  0.9682
 9892TIP3    H251092   1.548   3.005  15.339  1.9490 -1.1260  0.4910
 9893TIP3   OH251093   2.715   4.841   0.038  0.1275 -0.7754  0.6297
 9893TIP3    H151094   2.807   4.867   0.037  0.8081 -2.9667  0.3691
 9893TIP3    H251095   2.711   4.772   0.105 -2.0185  1.3504  2.8996
 9894TIP3   OH251096   5.262   0.578  16.219 -0.0488 -0.4517 -0.0973
 9894TIP3    H151097   5.248   0.563  16.126  1.3863 -0.6469 -0.3018
 9894TIP3    H251098   5.198   0.645  16.243  0.0375  0.1074 -1.3751
 9895TIP3   OH251099   0.719   5.232   2.717  0.3672 -0.4145  0.3439
 9895TIP3    H151100   0.783   5.162   2.729  0.1876 -1.0655 -1.9408
 9895TIP3    H251101   0.638   5.197   2.753  0.8697 -0.3040  1.6129
 9896TIP3   OH251102   2.843   1.560   0.758 -0.2237  0.2883 -0.5673
 9896TIP3    H151103   2.880   1.584   0.844 -1.5825 -0.4656  0.2551
 9896TIP3    H251104   2.920   1.537   0.705  0.5961  0.0575  0.6758
 9897TIP3   OH251105   6.183   2.265   5.576 -1.0916  0.4905 -0.8913
 9897TIP3    H151106   6.091   2.255   5.552 -1.1750 -0.8259 -0.1306
 9897TIP3    H251107   6.199   2.359   5.573 -2.6295  0.7929 -0.4220
 9898TIP3   OH251108   3.356   4.475   2.094  0.1160 -0.3479 -0.4948
 9898TIP3    H151109   3.395   4.553   2.135  1.4742 -2.2414  2.1679
 9898TIP3    H251110   3.405   4.465   2.012 -0.7624  2.0533 -1.4141
 9899TIP3   OH251111   0.849   1.815  11.768  0.5265  0.0929 -0.1138
 9899TIP3    H151112   0.871   1.736  11.719 -0.6243 -0.8191  0.7930
 9899TIP3    H251113   0.888   1.886  11.717 -0.4903 -0.8289 -2.2758
 9900TIP3   OH251114   4.285   3.946   1.357 -0.3734 -0.2568  0.0990
 9900TIP3    H151115   4.199   3.905   1.367 -0.9016  0.3115 -1.7653
 9900TIP3    H251116   4.285   3.981   1.268  1.2163  1.1029  0.5791
 9901TIP3   OH251117   1.931   5.520   3.981 -0.2047 -0.4886  0.3535
 9901TIP3    H151118   1.887   5.520   3.895  1.1600 -1.5872 -0.3821
 9901TIP3    H251119   1.862   5.545   4.042 -1.2193  0.3499 -1.0598
 9902TIP3   OH251120   6.153   0.965   3.068 -0.1845  0.1647 -0.1660
 9902TIP3    H151121   6.205   0.941   3.146  0.6236 -2.5844 -1.4192
 9902TIP3    H251122   6.063   0.964   3.099  0.2396  1.2914  1.2157
 9903TIP3   OH251123   6.756   3.578  14.542 -0.2801  0.5992 -0.1566
 9903TIP3    H151124   6.700   3.503  14.564  1.5076 -0.7702 -0.0090
 9903TIP3    H251125   6.713   3.619  14.467 -1.6139 -0.2175  0.1271
 9904TIP3   OH251126   2.856   1.591  15.350  0.4014  0.5544  0.1843
 9904TIP3    H151127   2.904   1.523  15.303  0.0359  0.3939  0.0409
 9904TIP3    H251128   2.906   1.604  15.431  1.4648  1.3662 -0.5650
 9905TIP3   OH251129   2.525   5.696  16.876 -0.3260 -0.0655 -0.7022
 9905TIP3    H151130   2.553   5.786  16.857  0.5966  0.5060  2.7721
 9905TIP3    H251131   2.431   5.703  16.892 -0.3714  0.1344 -1.0328
 9906TIP3   OH251132   5.694   2.102   0.261 -0.2573  0.2278  0.5496
 9906TIP3    H151133   5.738   2.090   0.345  0.6726  1.4916  0.2648
 9906TIP3    H251134   5.700   2.196   0.243 -0.7484  0.0393 -0.7652
 9907TIP3   OH251135   3.148   2.383  11.451 -0.0542  0.0198 -0.8977
 9907TIP3    H151136   3.162   2.365  11.544 -0.3494  0.3683 -0.7813
 9907TIP3    H251137   3.058   2.355  11.434  0.7025 -2.1902 -1.6312
 9908TIP3   OH251138   5.017   1.265  12.148 -0.0706  0.2407  0.0884
 9908TIP3    H151139   5.018   1.326  12.074 -0.5894  0.0167 -0.1090
 9908TIP3    H251140   5.043   1.181  12.110 -1.2997 -0.0971 -0.0568
 9909TIP3   OH251141   6.740   5.315   4.628  0.0769  0.3029  0.0399
 9909TIP3    H151142   6.758   5.221   4.622  0.5436  0.2974  1.2483
 9909TIP3    H251143   6.647   5.323   4.606  0.2423 -0.3204 -0.9654
 9910TIP3   OH251144   6.281   1.693  16.275  0.1018 -0.2900 -0.4639
 9910TIP3    H151145   6.377   1.691  16.276  0.2063  1.7121 -0.6068
 9910TIP3    H251146   6.254   1.602  16.277  1.9945 -0.8705  0.7545
 9911TIP3   OH251147   2.905   4.949  13.464 -0.0865 -0.6858 -0.2529
 9911TIP3    H151148   2.907   4.929  13.557 -1.5695 -0.0276 -0.0573
 9911TIP3    H251149   2.830   4.900  13.430 -0.0980 -0.2219 -0.9183
 9912TIP3   OH251150   0.444   4.757   3.611 -0.0627  0.1420 -0.6327
 9912TIP3    H151151   0.421   4.831   3.555  4.1052  0.0613 -2.7810
 9912TIP3    H251152   0.449   4.683   3.551 -0.9009 -1.2506  0.9289
 9913TIP3   OH251153   3.086   5.296   2.849 -0.4538  0.1929 -0.0544
 9913TIP3    H151154   2.994   5.273   2.862 -0.6032  1.3142  0.9806
 9913TIP3    H251155   3.129   5.271   2.931  0.1930 -0.3601 -0.5423
 9914TIP3   OH251156   2.068   4.581  16.218  0.1521 -0.3037 -0.7032
 9914TIP3    H151157   2.120   4.660  16.200 -0.9736  0.5920 -0.2000
 9914TIP3    H251158   2.119   4.533  16.283  0.1389  0.8221  0.1815
 9915TIP3   OH251159   4.415   5.259  16.042  0.3329 -0.4804 -0.1813
 9915TIP3    H151160   4.366   5.289  15.965 -1.1326 -1.9599  0.0995
 9915TIP3    H251161   4.498   5.306  16.038 -0.0993  0.2179 -2.1287
 9916TIP3   OH251162   3.069   5.500   6.098  0.0211 -0.0345  0.5549
 9916TIP3    H151163   3.036   5.577   6.146  0.7920 -0.0939  1.1900
 9916TIP3    H251164   3.044   5.517   6.007 -0.4820  0.6095  0.8008
 9917TIP3   OH251165   2.241   5.798  11.399  0.5178 -0.0107 -0.0015
 9917TIP3    H151166   2.176   5.737  11.363  1.0686  0.1942 -1.4177
 9917TIP3    H251167   2.255   5.862  11.329  1.0007  0.9309  0.9292
 9918TIP3   OH251168   5.205   5.941  14.905 -0.5693 -0.0810  0.4082
 9918TIP3    H151169   5.122   5.959  14.949 -1.4972  1.0797 -1.6426
 9918TIP3    H251170   5.192   5.974  14.815  2.2078  0.4235  0.0942
 9919TIP3   OH251171   4.292   0.867   3.511 -0.3915  0.0097 -0.0388
 9919TIP3    H151172   4.387   0.855   3.518 -0.2203 -0.3339 -2.3694
 9919TIP3    H251173   4.258   0.841   3.597  1.3114 -3.1453 -0.1777
 9920TIP3   OH251174   2.570   6.018   5.105 -0.3057  0.1997 -0.1177
 9920TIP3    H151175   2.511   5.946   5.083 -1.1882  0.4525  1.3472
 9920TIP3    H251176   2.516   6.080   5.155  0.7465  1.3014 -0.2860
 9921TIP3   OH251177   0.157   4.371   0.584  0.2604  0.4639 -0.2706
 9921TIP3    H151178   0.222   4.378   0.515 -2.4611 -0.1382 -3.1172
 9921TIP3    H251179   0.165   4.453   0.633  1.8478  1.2013 -1.6677
 9922TIP3   OH251180   1.264   5.305  14.974  0.3611 -0.1439  0.6333
 9922TIP3    H151181   1.169   5.310  14.968  0.4729  1.4533 -0.3465
 9922TIP3    H251182   1.283   5.325  15.066 -0.1813  1.0775  0.4905
 9923TIP3   OH251183   3.803   3.508  14.999 -0.0252 -0.2750  0.0590
 9923TIP3    H151184   3.745   3.557  15.057 -1.6336 -0.4111 -1.3267
 9923TIP3    H251185   3.751   3.431  14.973  1.1422 -0.9034 -0.5108
 9924TIP3   OH251186   4.581   4.616  13.209 -0.7013  0.2242  0.6196
 9924TIP3    H151187   4.488   4.604  13.226 -0.9556  2.7944  1.5151
 9924TIP3    H251188   4.585   4.681  13.140  0.4695 -0.7379 -0.2739
 9925TIP3   OH251189   3.784   5.922   3.277 -0.4169 -0.3942 -0.2672
 9925TIP3    H151190   3.723   5.990   3.305  0.2668  0.4396 -0.7466
 9925TIP3    H251191   3.838   5.904   3.354 -0.7439 -0.5647 -0.0747
 9926TIP3   OH251192   4.111   3.547   0.764 -0.4124  0.2201 -0.2241
 9926TIP3    H151193   4.165   3.621   0.791 -1.4668  1.0775 -0.4054
 9926TIP3    H251194   4.143   3.525   0.677 -1.3209  1.7168 -0.9781
 9927TIP3   OH251195   2.948   6.738   3.368 -0.2260  0.2244  0.4014
 9927TIP3    H151196   2.970   6.675   3.300 -1.5160 -0.4530  0.5719
 9927TIP3    H251197   3.006   6.716   3.441 -3.4273 -3.8369  2.1692
 9928TIP3   OH251198   5.489   1.609   5.796 -0.4779  0.2927  0.1073
 9928TIP3    H151199   5.528   1.654   5.720  0.2166  1.6689  1.2319
 9928TIP3    H251200   5.523   1.656   5.872 -3.9686  1.3558  1.2049
 9929TIP3   OH251201   0.546   4.272   0.408 -0.0536 -0.8875 -0.0016
 9929TIP3    H151202   0.516   4.360   0.386  0.7976 -1.1969 -2.7005
 9929TIP3    H251203   0.600   4.284   0.486  1.0213  1.1859 -0.9878
 9930TIP3   OH251204   3.647   4.668  16.827 -0.1001  0.0967 -0.0477
 9930TIP3    H151205   3.698   4.632  16.899 -0.5178  1.2414  0.8605
 9930TIP3    H251206   3.694   4.642  16.748  1.1212 -0.0341  0.7001
 9931TIP3   OH251207   3.659   6.071   1.596 -0.0134  0.1787  0.3309
 9931TIP3    H151208   3.614   6.083   1.512 -0.3207 -1.1209  0.2998
 9931TIP3    H251209   3.660   6.159   1.635 -0.4834  0.6646 -0.7147
 9932TIP3   OH251210   0.833   3.652  16.368 -0.3298  0.1547  0.3310
 9932TIP3    H151211   0.832   3.708  16.291 -1.0382 -1.5913 -1.0045
 9932TIP3    H251212   0.775   3.695  16.431 -0.9963  0.8284 -0.7179
 9933TIP3   OH251213   3.200   1.638  11.876 -0.3150  0.2043 -0.0350
 9933TIP3    H151214   3.122   1.673  11.919 -0.6690 -1.2021  0.5244
 9933TIP3    H251215   3.211   1.551  11.913  1.4637  0.3201 -0.1998
 9934TIP3   OH251216   1.028   2.286   4.409  0.0919 -0.2844  0.1445
 9934TIP3    H151217   1.105   2.261   4.461  1.1591  3.0159  0.3884
 9934TIP3    H251218   0.989   2.358   4.459 -2.3031 -0.8882 -0.7587
 9935TIP3   OH251219   2.277   6.653  15.016  0.0977  0.2965  0.2253
 9935TIP3    H151220   2.198   6.650  15.069 -0.0930  2.1281  0.0887
 9935TIP3    H251221   2.345   6.683  15.075  0.0761  1.4733 -0.3318
 9936TIP3   OH251222   6.504   5.479  17.181  0.5504  0.2713 -0.8512
 9936TIP3    H151223   6.571   5.487  17.248 -2.1496  0.2762  2.0885
 9936TIP3    H251224   6.514   5.391  17.146  0.6657 -0.5929  1.2348
 9937TIP3   OH251225   4.037   0.623   4.682 -0.4778  0.0337 -0.0041
 9937TIP3    H151226   4.027   0.631   4.777 -1.4880  1.7692 -0.2146
 9937TIP3    H251227   4.002   0.705   4.647  0.1321 -0.4515 -1.8716
 9938TIP3   OH251228   5.717   4.889   3.765  0.5834  0.0552 -0.6004
 9938TIP3    H151229   5.692   4.956   3.702 -0.9535  0.5394  0.4649
 9938TIP3    H251230   5.789   4.928   3.814  2.1157 -0.5069 -2.2905
 9939TIP3   OH251231   1.813   0.903  12.774  0.1189 -0.0463  1.1665
 9939TIP3    H151232   1.852   0.953  12.846 -1.0506  0.6716  1.3320
 9939TIP3    H251233   1.753   0.965  12.732  1.7134 -0.0092 -1.2727
 9940TIP3   OH251234   4.337   4.889  16.541  0.0540 -0.3713 -0.0726
 9940TIP3    H151235   4.410   4.849  16.587 -0.9783 -0.7410  1.3222
 9940TIP3    H251236   4.345   4.858  16.451  2.1165  0.3399 -0.1720
 9941TIP3   OH251237   1.883   0.535   6.056 -0.4012  0.7436 -0.3762
 9941TIP3    H151238   1.893   0.594   5.982  0.2834  1.0611 -0.0428
 9941TIP3    H251239   1.920   0.583   6.130 -1.3517  0.5611  0.2410
 9942TIP3   OH251240   1.690   5.624   2.406  0.6765  0.7430  0.3621
 9942TIP3    H151241   1.671   5.677   2.484 -2.6434  0.5750 -0.1936
 9942TIP3    H251242   1.677   5.534   2.434  0.1285  0.6393 -0.2128
 9943TIP3   OH251243   3.775   0.966  13.238 -0.4140  0.2047  0.1489
 9943TIP3    H151244   3.680   0.961  13.239 -0.4087 -0.3822 -0.6385
 9943TIP3    H251245   3.796   1.010  13.156 -0.0430  2.6220  1.4358
 9944TIP3   OH251246   2.117   1.472   4.185 -0.1361  0.5170  0.3770
 9944TIP3    H151247   2.094   1.481   4.277  0.3608 -1.2189  0.6943
 9944TIP3    H251248   2.179   1.399   4.182 -0.5485  0.1881 -1.3911
 9945TIP3   OH251249   1.002   6.131  10.870 -0.2166  0.3161  0.5200
 9945TIP3    H151250   1.029   6.144  10.961  0.4597  1.7203  0.1498
 9945TIP3    H251251   0.976   6.218  10.840 -0.7148 -0.1805 -0.5508
 9946TIP3   OH251252   3.658   3.264  12.299  0.6072 -0.1605 -0.6216
 9946TIP3    H151253   3.622   3.181  12.330  0.6647 -0.1895 -0.6311
 9946TIP3    H251254   3.623   3.274  12.210  0.4393 -0.0752 -0.5454
 9947TIP3   OH251255   5.571   3.392  12.195 -0.3586  0.5283 -0.7825
 9947TIP3    H151256   5.540   3.470  12.241 -1.3036 -1.7294  2.7817
 9947TIP3    H251257   5.663   3.384  12.219 -0.3976  0.2670 -0.7198
 9948TIP3   OH251258   0.663   1.383   4.822 -0.3728 -0.3350 -0.3279
 9948TIP3    H151259   0.588   1.327   4.803 -0.3734 -0.1944 -0.7394
 9948TIP3    H251260   0.661   1.451   4.755 -2.9040  2.7435  2.4748
 9949TIP3   OH251261   0.206   0.124  12.485  0.0517  0.2212  0.8554
 9949TIP3    H151262   0.183   0.190  12.419 -2.4651  0.8887  2.2556
 9949TIP3    H251263   0.164   0.155  12.565  1.6508 -1.3908  2.4244
 9950TIP3   OH251264   0.344   4.635  13.844  0.2379 -0.1276 -0.6991
 9950TIP3    H151265   0.252   4.656  13.861  0.3574 -0.2217  0.1153
 9950TIP3    H251266   0.353   4.643  13.749 -0.3785  0.8348 -0.6980
 9951TIP3   OH251267   0.579   5.791   0.461 -0.1256  0.0416  0.1796
 9951TIP3    H151268   0.642   5.752   0.520  0.6238  0.3627 -0.3917
 9951TIP3    H251269   0.505   5.815   0.517  0.5757  0.3661  0.9931
 9952TIP3   OH251270   0.532   6.287  12.119  0.2490  0.0942 -0.0725
 9952TIP3    H151271   0.587   6.234  12.061 -0.6746 -1.4146  0.3980
 9952TIP3    H251272   0.445   6.283  12.079 -0.0682  0.3529  0.5881
 9953TIP3   OH251273   1.765   0.687   2.216  0.1149 -0.0319  0.4090
 9953TIP3    H151274   1.815   0.692   2.134 -0.4959  1.4327  0.1000
 9953TIP3    H251275   1.743   0.594   2.225 -1.0263 -0.0414 -1.8588
 9954TIP3   OH251276   4.316   2.464  12.347 -0.3645  0.4276 -0.5130
 9954TIP3    H151277   4.364   2.395  12.300  0.0914 -0.0134  0.5683
 9954TIP3    H251278   4.224   2.442  12.334 -0.2806  0.7591 -1.8359
 9955TIP3   OH251279   5.244   5.658  14.909  0.4099  0.2843 -0.0614
 9955TIP3    H151280   5.219   5.749  14.898  1.1334  0.4263 -0.6626
 9955TIP3    H251281   5.220   5.617  14.825 -0.3644 -0.1903  0.3843
 9956TIP3   OH251282   5.408   4.135   0.094 -0.1023 -0.6274 -0.5590
 9956TIP3    H151283   5.445   4.148   0.007  1.8564 -1.5537  0.0800
 9956TIP3    H251284   5.409   4.040   0.107  1.3352 -0.4190  1.1363
 9957TIP3   OH251285   5.269   2.463   2.393  0.3385  0.7865  0.5967
 9957TIP3    H151286   5.212   2.386   2.392 -0.2188  1.1778 -0.6555
 9957TIP3    H251287   5.242   2.512   2.470  0.0983  0.1655  0.9157
 9958TIP3   OH251288   1.373   6.690   1.770  0.2584 -0.0473 -1.2029
 9958TIP3    H151289   1.463   6.699   1.802  1.0500 -3.0638 -2.3087
 9958TIP3    H251290   1.336   6.619   1.823 -0.1306 -1.5033 -3.3211
 9959TIP3   OH251291   0.872   4.778  12.114 -0.1656  0.9177  0.1112
 9959TIP3    H151292   0.918   4.848  12.069 -0.3607  0.9982  0.0368
 9959TIP3    H251293   0.863   4.709  12.048  0.9138  0.4146  0.4657
 9960TIP3   OH251294   4.403   3.520   2.090 -0.3610  0.6164 -0.3208
 9960TIP3    H151295   4.336   3.573   2.047 -0.7633  0.4239  0.0535
 9960TIP3    H251296   4.362   3.434   2.101  1.0262 -0.4959 -2.9227
 9961TIP3   OH251297   5.130   2.668  17.088  0.2216  0.5451 -0.5201
 9961TIP3    H151298   5.134   2.647  16.995  1.3304 -0.5463 -0.2490
 9961TIP3    H251299   5.062   2.609  17.122  0.5939  0.1590 -0.4445
 9962TIP3   OH251300   0.040   1.854   0.337  0.2452  0.8042  0.0998
 9962TIP3    H151301   0.070   1.850   0.427  0.5978  0.4362 -0.0289
 9962TIP3    H251302  -0.041   1.803   0.336  0.1938  0.8829  0.2232
 9963TIP3   OH251303   1.129   4.333   4.704  0.2081  0.0707  0.0734
 9963TIP3    H151304   1.047   4.296   4.673  0.5424  0.3142 -1.1520
 9963TIP3    H251305   1.169   4.372   4.626  0.4334  1.9397  1.0572
 9964TIP3   OH251306   1.024   5.632  10.875  0.1681 -0.5115  0.1396
 9964TIP3    H151307   0.978   5.707  10.838 -0.3305 -0.9133 -0.0816
 9964TIP3    H251308   1.111   5.635  10.835  0.5765  0.6444  1.0828
 9965TIP3   OH251309   1.298   6.758   1.522 -0.1342  0.3743 -0.4795
 9965TIP3    H151310   1.295   6.703   1.601 -1.2531  1.2756  0.1447
 9965TIP3    H251311   1.365   6.824   1.542  0.6505 -0.2779 -0.9101
 9966TIP3   OH251312   6.277   3.992  16.158 -0.0855  0.7723  0.3058
 9966TIP3    H151313   6.361   4.009  16.116 -0.4997  2.5659  0.1210
 9966TIP3    H251314   6.292   4.013  16.250  0.2767 -1.1936  0.7234
 9967TIP3   OH251315   0.531   3.525  17.024 -0.5098  0.0130  0.3455
 9967TIP3    H151316   0.551   3.541  16.932  0.4132 -1.5128  0.2565
 9967TIP3    H251317   0.538   3.611  17.065 -0.9741  0.7221 -0.9995
 9968TIP3   OH251318   2.785   1.845  14.339  0.2380 -0.2311  0.4548
 9968TIP3    H151319   2.843   1.914  14.307  0.3918 -0.3238  0.5276
 9968TIP3    H251320   2.843   1.788  14.391  0.2286 -0.7099 -0.0444
 9969TIP3   OH251321   5.565   3.450  12.906 -0.3388  0.3060 -0.0351
 9969TIP3    H151322   5.495   3.451  12.971 -2.1022 -0.9907 -1.7584
 9969TIP3    H251323   5.539   3.517  12.842  1.5456  1.8181  0.6862
 9970TIP3   OH251324   4.869   6.406   4.185  0.1305  0.5524 -0.3609
 9970TIP3    H151325   4.951   6.371   4.151  0.3197  1.8343 -1.3133
 9970TIP3    H251326   4.866   6.378   4.276  1.4686  0.2082 -0.4113
 9971TIP3   OH251327   5.937   1.829  16.287  0.1299  0.1665  0.0363
 9971TIP3    H151328   5.848   1.834  16.322 -0.2503 -0.9101 -0.7236
 9971TIP3    H251329   5.990   1.801  16.362 -0.6394 -1.9453 -0.1483
 9972TIP3   OH251330   2.017   1.538   1.456  0.0945  0.0522  0.0694
 9972TIP3    H151331   2.088   1.490   1.414  1.8396  0.1372  2.6698
 9972TIP3    H251332   2.053   1.625   1.471 -1.3352  0.7492 -0.3524
 9973TIP3   OH251333   5.252   3.466   3.123  0.4764  0.7701  0.3907
 9973TIP3    H151334   5.162   3.496   3.137  1.0367  2.6527  0.3083
 9973TIP3    H251335   5.243   3.381   3.080 -1.2423  0.3518  1.5127
 9974TIP3   OH251336   2.563   5.305   0.343  0.3525  0.1344 -0.0014
 9974TIP3    H151337   2.635   5.296   0.281  0.0897  1.2618 -0.5111
 9974TIP3    H251338   2.579   5.240   0.410  1.3361 -0.2525 -0.6032
 9975TIP3   OH251339   5.822   0.721   4.888  0.1636 -0.0070  0.5787
 9975TIP3    H151340   5.826   0.667   4.967  3.0983  1.2689  1.4158
 9975TIP3    H251341   5.773   0.799   4.914 -2.0273 -1.1281  0.0288
 9976TIP3   OH251342   1.929   1.562  13.513  0.1812 -0.1966 -0.3753
 9976TIP3    H151343   1.927   1.508  13.591  0.7721 -0.3871 -0.4852
 9976TIP3    H251344   1.989   1.517  13.453  0.3718  0.3645 -0.6234
 9977TIP3   OH251345   3.202   3.562  16.813 -0.0230  0.0897 -0.3953
 9977TIP3    H151346   3.150   3.569  16.893  0.0901  1.4896 -0.4208
 9977TIP3    H251347   3.217   3.468  16.802 -0.3563 -0.1503  1.0248
 9978TIP3   OH251348   3.785   5.937   3.949  0.0410 -0.1744  0.0644
 9978TIP3    H151349   3.846   5.903   3.883 -1.1281 -1.0351 -0.6196
 9978TIP3    H251350   3.740   5.859   3.983 -1.7310  0.5291 -0.5361
 9979TIP3   OH251351   6.214   0.176  15.821  0.9509 -0.1419 -0.0312
 9979TIP3    H151352   6.299   0.174  15.866  1.8629  1.3057 -1.5925
 9979TIP3    H251353   6.223   0.111  15.751  1.0520  0.5357 -0.6524
 9980TIP3   OH251354   2.555   6.634   0.420  0.1814  0.4362  0.4141
 9980TIP3    H151355   2.531   6.714   0.372 -0.7725 -0.3437 -0.4531
 9980TIP3    H251356   2.647   6.620   0.397 -0.0084  0.5786 -0.4798
 9981TIP3   OH251357   1.769   4.431   2.322  0.2964  0.0638 -0.2204
 9981TIP3    H151358   1.717   4.350   2.322 -0.2709  0.4160 -0.8671
 9981TIP3    H251359   1.834   4.418   2.391 -0.2130 -0.6729  0.1329
 9982TIP3   OH251360   5.836   0.507  17.209 -0.1346  0.1563 -0.1410
 9982TIP3    H151361   5.923   0.537  17.235 -0.0798 -1.2699  1.4748
 9982TIP3    H251362   5.845   0.413  17.198 -1.4509 -0.0032 -0.0013
 9983TIP3   OH251363   1.934   4.904   4.889 -0.0418  0.1591  0.5141
 9983TIP3    H151364   1.873   4.947   4.829 -0.1045  0.2538  0.6445
 9983TIP3    H251365   1.944   4.966   4.961  0.5983  0.3556  0.2609
 9984TIP3   OH251366   3.257   2.818   1.468  0.5749  0.0330  0.1367
 9984TIP3    H151367   3.240   2.901   1.513  1.5493  1.4651 -2.0096
 9984TIP3    H251368   3.197   2.756   1.510  1.0991  1.3241  3.0623
 9985TIP3   OH251369   2.958   5.846   3.290  0.3846  0.3184 -0.0543
 9985TIP3    H151370   2.934   5.760   3.255 -0.0964  0.1242  0.7246
 9985TIP3    H251371   3.011   5.826   3.367 -0.4505  0.6883  0.6372
 9986TIP3   OH251372   3.877   2.680   2.705  0.6480 -0.4487 -0.2170
 9986TIP3    H151373   3.876   2.616   2.776  0.2350  0.6917  0.8432
 9986TIP3    H251374   3.960   2.727   2.717 -0.6644  1.6488  1.3340
 9987TIP3   OH251375   3.642   6.232   5.132  0.2272 -0.4151  0.1878
 9987TIP3    H151376   3.654   6.276   5.217 -1.2774 -0.1606  0.2898
 9987TIP3    H251377   3.711   6.166   5.130 -0.4299 -1.2537  2.1829
 9988TIP3   OH251378   0.153   2.064   2.555 -0.5264 -0.3432 -0.1739
 9988TIP3    H151379   0.243   2.046   2.526 -1.1610 -1.0591 -1.8088
 9988TIP3    H251380   0.111   2.106   2.481 -1.3014  0.8653  0.9157
 9989TIP3   OH251381   2.483   5.945   3.910  0.4838 -0.5431 -0.5211
 9989TIP3    H151382   2.510   6.036   3.919 -0.8790  0.0091 -1.6731
 9989TIP3    H251383   2.514   5.903   3.990 -1.3607  1.5566  1.4177
 9990TIP3   OH251384   0.100   3.518  14.776  0.2070 -0.3174  0.0813
 9990TIP3    H151385   0.089   3.484  14.687 -0.7344 -1.3304  0.5572
 9990TIP3    H251386   0.119   3.440  14.829  0.7099  0.2684  0.7825
 9991TIP3   OH251387   1.647   3.135   3.693 -0.6782  0.0533  0.2973
 9991TIP3    H151388   1.620   3.213   3.742  1.8162  1.1069  0.1209
 9991TIP3    H251389   1.630   3.062   3.753  1.0631  1.1839  2.2851
 9992TIP3   OH251390   6.629   4.858   3.303 -0.5024  0.1397 -0.0269
 9992TIP3    H151391   6.559   4.895   3.247 -1.3136 -0.5444  0.5065
 9992TIP3    H251392   6.594   4.773   3.330  0.4249 -0.0742  0.5048
 9993TIP3   OH251393   6.073   5.619  17.173 -0.5756 -0.2031 -0.1448
 9993TIP3    H151394   6.009   5.662  17.230 -1.1791 -0.9342 -0.2605
 9993TIP3    H251395   6.131   5.690  17.146 -0.3826  0.1850  1.2193
 9994TIP3   OH251396   0.316   2.342  14.700 -0.2712  0.1852  0.5086
 9994TIP3    H151397   0.271   2.422  14.726 -0.9641 -0.0119 -0.0424
 9994TIP3    H251398   0.314   2.344  14.604 -0.8704 -0.8045  0.4935
 9995TIP3   OH251399   6.655   4.062   4.738 -0.7685 -0.0930  0.0491
 9995TIP3    H151400   6.590   4.131   4.749  0.6034  1.3097 -0.2914
 9995TIP3    H251401   6.651   4.040   4.645 -0.9445 -0.1917  0.0806
 9996TIP3   OH251402   0.555   3.908   1.270  0.3077  0.8908  0.1695
 9996TIP3    H151403   0.503   3.954   1.203  0.7458  1.3327  0.1275
 9996TIP3    H251404   0.645   3.911   1.236  0.1874 -1.0538 -0.4240
 9997TIP3   OH251405   6.727   6.153  16.238 -0.4387 -0.1446 -0.4254
 9997TIP3    H151406   6.744   6.171  16.331 -0.8533 -0.2264 -0.3373
 9997TIP3    H251407   6.642   6.111  16.236  1.0948 -3.6192 -0.4710
 9998TIP3   OH251408   4.972   2.949  17.197 -0.6139  0.2226 -0.2956
 9998TIP3    H151409   5.049   2.897  17.221 -0.2940  0.9115  0.2168
 9998TIP3    H251410   5.001   3.040  17.208 -1.6720  0.4836  0.4852
 9999TIP3   OH251411   1.668   2.647  15.645 -0.4078 -0.1036  0.1867
 9999TIP3    H151412   1.592   2.598  15.678 -0.4329 -0.5278 -0.4866
 9999TIP3    H251413   1.670   2.726  15.699 -1.0738 -0.2892  0.5028
10000TIP3   OH251414   1.997   3.275   2.872 -0.5666 -0.1780  0.3781
10000TIP3    H151415   1.990   3.238   2.785  0.5777 -0.6396  0.4737
10000TIP3    H251416   1.909   3.266   2.909 -0.6074 -1.7065 -0.0324
10001TIP3   OH251417   2.343   5.498   5.412  0.3008  0.3433  0.2129
10001TIP3    H151418   2.254   5.483   5.378  0.2094 -1.8951  1.2937
10001TIP3    H251419   2.342   5.590   5.439 -1.1083  0.8693 -1.4087
10002TIP3   OH251420   4.389   6.714   5.012 -0.2066 -0.0554  0.5606
10002TIP3    H151421   4.452   6.778   4.978  0.1137  0.2630  1.7118
10002TIP3    H251422   4.443   6.643   5.047 -0.5331 -0.4593  0.2484
10003TIP3   OH251423   1.983   4.928   4.566  0.3217 -0.4440 -0.0159
10003TIP3    H151424   2.071   4.906   4.537  0.7374 -1.4255  1.8003
10003TIP3    H251425   1.993   5.013   4.610  0.3796 -0.5655  0.2092
10004TIP3   OH251426   5.989   3.022  13.809  0.1793 -0.6840  0.4099
10004TIP3    H151427   6.083   3.017  13.827  0.2505 -1.0123 -0.0327
10004TIP3    H251428   5.983   3.037  13.715 -0.2093 -0.3481  0.4831
10005TIP3   OH251429   1.055   4.187   0.109 -0.5520 -0.2483  0.3286
10005TIP3    H151430   0.980   4.218   0.160 -0.1296 -0.2432  0.9607
10005TIP3    H251431   1.016   4.139   0.035 -1.1780  0.1412  0.4008
10006TIP3   OH251432   3.723   0.436   0.863  0.0445  0.3794 -0.2348
10006TIP3    H151433   3.780   0.510   0.883 -0.2314  0.5971 -0.2563
10006TIP3    H251434   3.636   0.474   0.852  0.1956  0.3216 -2.0064
10007TIP3   OH251435   2.886   3.557   6.207 -0.2937  0.3127 -0.0221
10007TIP3    H151436   2.954   3.608   6.250 -0.5754  1.7241 -1.1931
10007TIP3    H251437   2.931   3.510   6.137  0.1601 -1.9673  1.6776
10008TIP3   OH251438   3.319   4.087  16.848 -0.2192 -0.1958  0.2632
10008TIP3    H151439   3.346   4.065  16.937 -0.1787 -0.8309  0.0991
10008TIP3    H251440   3.319   4.182  16.846 -0.7933 -0.1706  1.1151
10009TIP3   OH251441   3.016   3.450  10.957  0.1219 -0.0513 -0.6915
10009TIP3    H151442   2.933   3.496  10.946  0.4202  0.6873 -0.0087
10009TIP3    H251443   3.011   3.413  11.046  0.6560  0.3096 -0.5037
10010TIP3   OH251444   1.581   3.635   2.045  0.0063  0.0728 -0.4166
10010TIP3    H151445   1.573   3.652   2.139 -0.6043  0.3487 -0.5088
10010TIP3    H251446   1.635   3.557   2.038 -0.0363 -0.0079  0.1679
10011TIP3   OH251447   1.099   3.769  10.618  0.4777 -0.3092 -0.0536
10011TIP3    H151448   1.070   3.860  10.621  1.8672  0.1441  1.7276
10011TIP3    H251449   1.144   3.761  10.534 -1.5318 -0.0096 -1.2020
10012TIP3   OH251450   3.563   5.161  13.127  0.2021 -0.2311  0.6163
10012TIP3    H151451   3.540   5.102  13.055  0.9770  0.2253 -0.0220
10012TIP3    H251452   3.532   5.116  13.206  0.3837 -1.2807  0.1039
10013TIP3   OH251453   4.783   4.831   5.455  0.2346  0.3519 -0.6910
10013TIP3    H151454   4.770   4.908   5.400  2.0657  0.6338 -0.8014
10013TIP3    H251455   4.865   4.848   5.502 -1.3599  0.2568  2.3912
10014TIP3   OH251456   1.033   3.349   2.874  0.1012  0.0358  0.1873
10014TIP3    H151457   0.954   3.379   2.917 -1.0159  0.3980 -1.9731
10014TIP3    H251458   1.036   3.399   2.792  2.1789 -0.4973 -0.1120
10015TIP3   OH251459   4.538   0.592   2.292 -0.4114  0.1594  0.3724
10015TIP3    H151460   4.591   0.642   2.354 -0.1585 -0.8476  0.9948
10015TIP3    H251461   4.463   0.562   2.343 -0.8307  0.3367 -0.1295
10016TIP3   OH251462   5.330   4.387  15.087  0.0838  0.0179 -0.0138
10016TIP3    H151463   5.338   4.311  15.029 -0.2648 -0.3484  0.4110
10016TIP3    H251464   5.360   4.355  15.172  1.1474  0.7134 -0.1136
10017TIP3   OH251465   3.999   4.091  16.290  0.3000 -0.5654 -0.4220
10017TIP3    H151466   4.046   4.075  16.371  0.5418  0.8515 -0.2648
10017TIP3    H251467   3.915   4.045  16.302 -0.0989  0.4707  1.0720
10018TIP3   OH251468   4.946   0.233  16.180 -0.0895  0.5036  0.3047
10018TIP3    H151469   4.915   0.144  16.195 -3.4158  0.8570 -2.9744
10018TIP3    H251470   5.018   0.223  16.118 -0.3668  0.0769  0.0491
10019TIP3   OH251471   4.175   6.459   3.814  0.1492 -0.0547  0.0147
10019TIP3    H151472   4.153   6.478   3.723  1.0985  0.9970 -0.0247
10019TIP3    H251473   4.266   6.429   3.812  0.2642  0.2157  0.6267
10020TIP3   OH251474   2.050   0.965   5.850 -0.6896 -0.0536 -0.2584
10020TIP3    H151475   1.994   0.915   5.909 -1.1132 -0.4153 -0.9560
10020TIP3    H251476   2.080   1.039   5.902 -1.6813  0.0576  0.1743
10021TIP3   OH251477   0.944   1.220  10.776  0.0303  0.4896 -0.3015
10021TIP3    H151478   0.874   1.203  10.712 -0.3227 -3.2172  0.8443
10021TIP3    H251479   0.999   1.142  10.773 -0.2352 -0.1421  4.1074
10022TIP3   OH251480   4.010   1.586  15.345 -0.2190 -0.1190  0.4069
10022TIP3    H151481   4.055   1.604  15.262 -2.6625 -0.1449 -1.0327
10022TIP3    H251482   4.054   1.641  15.409  0.5018  1.4143 -1.3218
10023TIP3   OH251483   2.513   6.714  15.157 -0.2694 -0.1217 -0.0765
10023TIP3    H151484   2.603   6.738  15.133 -0.3905  0.2733 -0.1338
10023TIP3    H251485   2.502   6.746  15.246 -0.6902  0.7458 -0.4301
10024TIP3   OH251486   1.360   0.476   5.287 -0.4739 -0.0250 -0.2366
10024TIP3    H151487   1.432   0.503   5.344 -0.5583  0.0301 -0.1560
10024TIP3    H251488   1.292   0.542   5.301 -0.4102  0.1146 -0.5671
10025TIP3   OH251489   4.488   2.883   5.489 -0.3377 -0.6305  0.2849
10025TIP3    H151490   4.404   2.836   5.485 -0.8833  0.4095 -0.9751
10025TIP3    H251491   4.529   2.866   5.405 -0.3227  0.7325  0.0063
10026TIP3   OH251492   4.175   4.708   6.327  0.0168  0.3128 -0.1506
10026TIP3    H151493   4.096   4.654   6.321 -0.3432  0.5012  1.9215
10026TIP3    H251494   4.153   4.775   6.392  0.9725  2.0873 -1.5594
10027TIP3   OH251495   5.122   3.597  14.603  0.0694 -0.3078 -0.0065
10027TIP3    H151496   5.198   3.552  14.641  0.5861  0.7926  0.2824
10027TIP3    H251497   5.138   3.595  14.509 -0.3011 -1.3966 -0.0679
10028TIP3   OH251498   0.848   4.200  12.285 -0.0873  0.0255  0.2566
10028TIP3    H151499   0.754   4.183  12.298 -0.1076  1.0561  1.8299
10028TIP3    H251500   0.876   4.134  12.222 -1.6610 -0.9487  0.5078
10029TIP3   OH251501   4.828   2.195   4.278 -0.7595  0.1901  0.2644
10029TIP3    H151502   4.820   2.207   4.373  0.5591 -0.2961  0.4490
10029TIP3    H251503   4.918   2.220   4.258 -0.8125 -0.3899 -0.7637
10030TIP3   OH251504   1.639   5.511  14.025 -0.0813  0.0026  0.2547
10030TIP3    H151505   1.722   5.552  14.003 -0.6086  0.2291 -1.4707
10030TIP3    H251506   1.658   5.417  14.028  0.4731  0.1379  1.0612
10031TIP3   OH251507   2.862   3.938  16.874 -0.7019  0.1739  0.4243
10031TIP3    H151508   2.802   3.870  16.903 -0.7370  0.2975  0.6418
10031TIP3    H251509   2.946   3.893  16.862 -0.4861  0.2629  1.4747
10032TIP3   OH251510   4.988   0.311   0.452 -0.4691 -0.5451 -0.6047
10032TIP3    H151511   5.014   0.369   0.381  0.8434 -2.3735 -1.7116
10032TIP3    H251512   4.910   0.267   0.421 -1.6509  0.7847  0.3635
10033TIP3   OH251513   1.350   0.396   0.323  0.6344 -0.1554  0.2452
10033TIP3    H151514   1.444   0.403   0.341  1.0248  0.5645 -1.7510
10033TIP3    H251515   1.309   0.388   0.409  2.3269  2.0802  1.3735
10034TIP3   OH251516   6.382   1.070  15.340 -0.4541  0.2142  0.1380
10034TIP3    H151517   6.473   1.049  15.319 -0.8942 -0.1986 -1.4834
10034TIP3    H251518   6.334   0.990  15.319 -1.3961  0.9598 -0.6497
10035TIP3   OH251519   6.623   3.986   4.461 -0.3616 -0.6598  0.0123
10035TIP3    H151520   6.707   3.986   4.416 -0.8000 -1.0699 -0.8364
10035TIP3    H251521   6.563   3.943   4.400 -2.0114  2.6144 -0.9154
10036TIP3   OH251522   0.621   4.088  15.745  0.3104 -0.1104  0.1595
10036TIP3    H151523   0.608   4.002  15.784  1.3027 -0.5652 -0.4805
10036TIP3    H251524   0.536   4.132  15.754  0.0400 -0.8277  1.2593
10037TIP3   OH251525   5.535   1.070   5.224  0.2787  0.0820  0.2909
10037TIP3    H151526   5.621   1.067   5.266 -0.0746  0.2242  1.0415
10037TIP3    H251527   5.485   1.002   5.269 -0.0770  0.1666  0.0239
10038TIP3   OH251528   2.096   0.409   0.975 -0.2056  0.1357 -0.8620
10038TIP3    H151529   2.147   0.421   0.895  0.5095  0.6086 -0.3488
10038TIP3    H251530   2.122   0.322   1.007  0.1438  0.2955 -0.7045
10039TIP3   OH251531   5.100   1.204  15.621 -0.1920  0.2910 -0.2266
10039TIP3    H151532   5.108   1.298  15.640 -1.2595  0.6246 -1.3171
10039TIP3    H251533   5.006   1.187  15.622 -0.0556 -0.5751 -0.9216
10040TIP3   OH251534   5.115   1.292  12.537 -0.7541 -0.2053 -0.0803
10040TIP3    H151535   5.170   1.286  12.616 -0.4654 -0.0247 -0.2651
10040TIP3    H251536   5.170   1.256  12.467 -1.4692 -1.5393  0.0160
10041TIP3   OH251537   1.314   3.067   4.270 -0.3918 -0.2937 -0.1422
10041TIP3    H151538   1.332   2.995   4.210 -0.6552  0.4343 -1.1238
10041TIP3    H251539   1.401   3.101   4.292 -0.2666 -0.8910  0.3182
10042TIP3   OH251540   2.475   1.471  15.302  0.2769 -0.2223 -0.6696
10042TIP3    H151541   2.383   1.468  15.327 -0.1362 -0.6522 -2.1224
10042TIP3    H251542   2.521   1.422  15.371 -0.6943 -0.7051 -0.3543
10043TIP3   OH251543   6.529   6.288   1.520  0.4810  0.0232  0.0936
10043TIP3    H151544   6.610   6.337   1.503 -0.7736  1.8465 -1.0302
10043TIP3    H251545   6.546   6.201   1.484  2.0617  0.2637  0.2007
10044TIP3   OH251546   3.624   0.165  13.692 -0.0197  1.0509  0.9147
10044TIP3    H151547   3.701   0.208  13.730  0.3615  0.8713  0.3592
10044TIP3    H251548   3.567   0.238  13.667  0.1367  1.2020  0.9911
10045TIP3   OH251549   6.603   1.234   1.609  0.4115  0.1436 -0.0881
10045TIP3    H151550   6.540   1.286   1.560 -0.1627 -1.0691 -0.7031
10045TIP3    H251551   6.593   1.261   1.700 -2.0368 -0.9751  0.0536
10046TIP3   OH251552   4.316   3.784   2.523  1.1109 -0.2174  0.5071
10046TIP3    H151553   4.378   3.728   2.569  0.4403 -0.7418  0.7830
10046TIP3    H251554   4.233   3.736   2.524  1.1216 -0.3893 -1.5010
10047TIP3   OH251555   0.828   0.952  13.313 -0.1922  0.3817  0.5266
10047TIP3    H151556   0.740   0.955  13.349 -0.8539 -1.5955 -0.7511
10047TIP3    H251557   0.826   1.013  13.239 -1.1460 -1.0497 -0.6958
10048TIP3   OH251558   6.272   3.855   1.188 -0.0284 -0.1019  0.4584
10048TIP3    H151559   6.266   3.791   1.117 -1.3907 -0.0296  0.4712
10048TIP3    H251560   6.209   3.823   1.253 -0.3961  1.0109  0.6582
10049TIP3   OH251561   0.180   1.746  14.384  0.5771 -0.2897  0.1949
10049TIP3    H151562   0.177   1.742  14.289 -1.1522 -1.6878  0.2519
10049TIP3    H251563   0.141   1.830  14.407 -0.5517 -0.6576 -0.3125
10050TIP3   OH251564   0.374   6.092   3.151  0.7348 -0.1756 -0.6914
10050TIP3    H151565   0.461   6.079   3.189  0.4896  0.1624  0.0077
10050TIP3    H251566   0.334   6.161   3.205 -0.8537 -1.9431  0.5603
10051TIP3   OH251567   0.948   1.729  17.143 -0.1227 -0.4579 -0.1182
10051TIP3    H151568   0.859   1.742  17.112  0.2773 -0.8021 -1.5101
10051TIP3    H251569   0.981   1.817  17.158 -0.4142 -0.2810 -0.4916
10052TIP3   OH251570   6.516   4.257  13.715 -0.5356  0.0749 -0.3698
10052TIP3    H151571   6.519   4.344  13.676  0.3085  0.2810  0.1280
10052TIP3    H251572   6.602   4.246  13.755 -0.9002 -0.6811  0.2287
10053TIP3   OH251573   5.040   4.008   0.325 -0.5706 -0.0035  0.2811
10053TIP3    H151574   5.064   3.962   0.405 -1.8101  2.0823  1.9633
10053TIP3    H251575   4.953   4.044   0.343 -1.0053  0.3304 -2.1253
10054TIP3   OH251576   4.611   1.511   3.978  0.5502 -0.1276  0.4179
10054TIP3    H151577   4.618   1.563   3.899 -1.5059  0.5489  0.6218
10054TIP3    H251578   4.654   1.563   4.045 -1.8084  1.6544  0.7125
10055TIP3   OH251579   1.974   2.720  15.990  0.1216  0.4499 -0.8613
10055TIP3    H151580   1.914   2.652  15.959 -1.3351  0.8899  0.8682
10055TIP3    H251581   2.061   2.680  15.980 -0.6248 -1.2664 -0.8949
10056TIP3   OH251582   1.058   4.801   3.680  0.2209  0.0709 -0.2767
10056TIP3    H151583   1.005   4.877   3.707  1.8736  1.2397 -0.2009
10056TIP3    H251584   1.025   4.729   3.733  0.2630  1.2923  1.4817
10057TIP3   OH251585   0.235   3.090   1.337 -0.0299  0.2463 -0.3134
10057TIP3    H151586   0.146   3.103   1.306 -0.6734 -0.0798  1.3068
10057TIP3    H251587   0.271   3.178   1.346 -1.4626  0.6916  2.4353
10058TIP3   OH251588   4.845   0.128  16.612  0.0723  0.3936 -0.0971
10058TIP3    H151589   4.889   0.188  16.672  1.6006  1.4111 -2.0742
10058TIP3    H251590   4.914   0.101  16.551 -0.9881 -2.0088 -0.3613
10059TIP3   OH251591   2.893   6.656   1.691  0.5236  0.1351 -0.2881
10059TIP3    H151592   2.871   6.643   1.598 -0.8650  1.0107 -0.1182
10059TIP3    H251593   2.938   6.741   1.693 -0.2109  0.5287 -0.0733
10060TIP3   OH251594   4.877   1.811   5.466 -0.1226 -0.2417  0.3900
10060TIP3    H151595   4.865   1.886   5.524 -2.0233  1.0330 -1.5073
10060TIP3    H251596   4.909   1.849   5.384 -2.6769 -1.1829 -1.1662
10061TIP3   OH251597   1.066   1.788  12.047  0.5841 -0.1873 -0.0436
10061TIP3    H151598   1.030   1.710  12.004 -1.3226  0.0820  0.9552
10061TIP3    H251599   1.122   1.754  12.116  0.8181 -0.6513 -0.4547
10062TIP3   OH251600   6.599   1.551   0.708 -0.4088  0.1695 -0.0814
10062TIP3    H151601   6.509   1.577   0.688 -0.3114  0.1996 -0.4946
10062TIP3    H251602   6.653   1.621   0.670 -0.1684 -0.3856 -0.7755
10063TIP3   OH251603   4.447   1.422   2.462  0.1155 -0.3035  0.3188
10063TIP3    H151604   4.490   1.483   2.403 -0.6868  1.1624  1.1860
10063TIP3    H251605   4.465   1.456   2.550 -2.1985  0.0476  0.7419
10064TIP3   OH251606   6.483   5.000   1.448 -0.0684 -0.0374 -0.0570
10064TIP3    H151607   6.569   4.981   1.487  0.4581  0.9752 -0.6822
10064TIP3    H251608   6.479   4.942   1.372  1.0985  1.5117 -1.3746
10065TIP3   OH251609   2.892   1.840  17.152 -0.6276  0.1063 -0.0364
10065TIP3    H151610   2.819   1.781  17.137 -2.0043  1.5130  0.7986
10065TIP3    H251611   2.861   1.926  17.122  0.5581  0.8102  0.6302
10066TIP3   OH251612   4.218   3.328   3.010 -0.8108 -0.0292 -0.0656
10066TIP3    H151613   4.264   3.249   2.982 -1.9585 -0.5917 -0.4045
10066TIP3    H251614   4.287   3.383   3.048 -0.4107 -2.5453  3.2931
10067TIP3   OH251615   5.538   3.650  13.986  0.5782  0.0785 -0.2496
10067TIP3    H151616   5.454   3.656  13.941 -0.4597 -0.2868  1.5360
10067TIP3    H251617   5.558   3.557  13.987  0.3718  0.0304  0.3621
10068TIP3   OH251618   4.013   3.991   1.967  0.2257 -0.5574  0.0117
10068TIP3    H151619   3.998   3.913   2.020 -0.0855  0.3679  1.3385
10068TIP3    H251620   3.964   3.975   1.886 -0.1445 -1.5600  0.4177
10069TIP3   OH251621   5.813   3.833   5.144  0.1378 -0.4402 -0.3030
10069TIP3    H151622   5.737   3.884   5.118 -0.0615 -0.1590  0.7848
10069TIP3    H251623   5.859   3.888   5.207 -0.0871 -1.5598  0.9024
10070TIP3   OH251624   3.850   2.501  10.634  0.2401  0.1838  0.2094
10070TIP3    H151625   3.758   2.480  10.650  0.1345  1.3047  1.2015
10070TIP3    H251626   3.869   2.574  10.693  1.3328  1.0291 -1.1055
10071TIP3   OH251627   3.369   5.451  15.121  0.0234  0.2677 -0.4483
10071TIP3    H151628   3.332   5.535  15.152 -0.3295 -0.5373  1.4819
10071TIP3    H251629   3.440   5.432  15.182 -0.4086 -1.2156 -0.3680
10072TIP3   OH251630   1.620   2.841  15.872 -0.0054  0.2971  0.3589
10072TIP3    H151631   1.616   2.757  15.917 -0.6101  1.2903  2.2771
10072TIP3    H251632   1.639   2.904  15.941 -0.5401  1.8610 -0.8634
10073TIP3   OH251633   0.299   4.114  15.685  0.2441 -0.2214  0.6837
10073TIP3    H151634   0.298   4.024  15.654  1.0479  0.5588 -1.8974
10073TIP3    H251635   0.242   4.161  15.623 -0.7290  0.9465  2.3793
10074TIP3   OH251636   4.648   6.496  14.205 -0.4029  0.0091 -0.4195
10074TIP3    H151637   4.657   6.402  14.191  0.6023  0.2318 -1.4683
10074TIP3    H251638   4.671   6.509  14.297 -1.3587 -0.8493 -0.0408
10075TIP3   OH251639   6.333   3.652  11.093 -0.0072 -0.6244 -0.4141
10075TIP3    H151640   6.335   3.665  11.188  0.5022  0.5668 -0.5693
10075TIP3    H251641   6.247   3.614  11.076 -0.7694  0.6825  0.3504
10076TIP3   OH251642   2.943   2.986  15.179 -0.7247  0.2561 -0.0972
10076TIP3    H151643   3.030   3.008  15.146 -0.6273  1.8873  1.1457
10076TIP3    H251644   2.902   3.070  15.196 -2.1869 -0.5084  0.2742
10077TIP3   OH251645   3.723   2.694   2.299 -0.0235  0.4029  0.1809
10077TIP3    H151646   3.766   2.629   2.354 -0.1161  1.1648  1.1827
10077TIP3    H251647   3.784   2.767   2.294 -0.1130  0.4403 -0.5534
10078TIP3   OH251648   6.632   0.850   1.835 -0.2535 -0.0614 -0.3259
10078TIP3    H151649   6.708   0.900   1.807 -1.2726  1.6620 -0.1683
10078TIP3    H251650   6.597   0.899   1.910 -0.3806 -1.9196  0.8832
10079TIP3   OH251651   0.564   2.095   1.847 -0.1494 -0.3850 -0.3730
10079TIP3    H151652   0.480   2.138   1.828 -0.6762 -0.9582  0.5488
10079TIP3    H251653   0.541   2.025   1.909  1.0527 -0.3445  0.1426
10080TIP3   OH251654   4.180   1.554  17.231 -0.2211 -0.6554 -0.6639
10080TIP3    H151655   4.211   1.478  17.281 -0.5464  0.2428  0.9856
10080TIP3    H251656   4.087   1.560  17.253 -0.6843 -0.9800 -2.4201
10081TIP3   OH251657   2.696   5.485  11.495  1.0497  0.5814 -0.6461
10081TIP3    H151658   2.792   5.484  11.500  1.1247 -3.4389  0.8973
10081TIP3    H251659   2.668   5.533  11.573  1.7608  1.5027 -0.9357
10082TIP3   OH251660   3.129   5.796   1.566 -0.1589  0.3431  0.5261
10082TIP3    H151661   3.132   5.875   1.619 -1.2764  1.0135 -0.3606
10082TIP3    H251662   3.094   5.729   1.624 -1.5370  1.1093  0.6339
10083TIP3   OH251663   0.978   0.192  12.705 -0.2204  0.3443  0.2371
10083TIP3    H151664   0.927   0.111  12.704 -1.5813  1.1396  1.8404
10083TIP3    H251665   0.997   0.208  12.798  3.7407 -0.3297 -0.2524
10084TIP3   OH251666   0.511   2.996  10.796  0.5141 -0.3396  0.3398
10084TIP3    H151667   0.519   2.900  10.801  1.7218 -0.1812  2.9588
10084TIP3    H251668   0.567   3.021  10.722 -0.5918 -1.6763 -1.0196
10085TIP3   OH251669   1.255   3.210   5.976 -0.1787  0.1871 -0.1259
10085TIP3    H151670   1.297   3.238   6.057 -1.4881 -0.4156  0.7943
10085TIP3    H251671   1.285   3.274   5.910  1.6929  0.1085  0.5740
10086TIP3   OH251672   6.466   6.171  10.641 -0.2314  0.8650 -0.1218
10086TIP3    H151673   6.426   6.127  10.716  0.2348  2.7279  1.3001
10086TIP3    H251674   6.560   6.157  10.651 -0.0382  2.5167  0.6278
10087TIP3   OH251675   1.012   5.215   4.561 -0.1540 -0.5882 -0.6022
10087TIP3    H151676   1.065   5.216   4.481  0.5550  0.3824 -0.1451
10087TIP3    H251677   1.077   5.209   4.632 -0.4379  2.4797  0.0704
10088TIP3   OH251678   4.397   6.212  17.101  0.7474 -0.8558 -0.0820
10088TIP3    H151679   4.387   6.214  17.196 -1.4323 -0.1926 -0.2589
10088TIP3    H251680   4.337   6.143  17.073 -0.8171  0.8273 -1.1154
10089TIP3   OH251681   6.626   5.082  14.547 -0.1652  0.3278  0.3419
10089TIP3    H151682   6.712   5.089  14.506  0.6003 -0.6522  1.6978
10089TIP3    H251683   6.609   4.988  14.551 -1.8897  0.5262 -1.0082
10090TIP3   OH251684   4.216   3.520  16.170 -0.0616  0.2643  0.2525
10090TIP3    H151685   4.279   3.487  16.106  1.6887 -0.9000  2.4378
10090TIP3    H251686   4.186   3.603  16.134  1.8430  0.2944 -1.4411
10091TIP3   OH251687   2.346   2.859  11.735 -0.6404  0.2711  0.4432
10091TIP3    H151688   2.368   2.932  11.678 -1.4301  0.6653  0.6172
10091TIP3    H251689   2.430   2.822  11.762 -0.1842  1.7255  1.1310
10092TIP3   OH251690   2.492   2.471   1.515 -0.0299 -0.4571 -0.2475
10092TIP3    H151691   2.431   2.531   1.472 -0.8604 -1.2512 -0.2140
10092TIP3    H251692   2.577   2.490   1.475  0.0574  1.8346  0.9090
10093TIP3   OH251693   0.484   3.916  10.902 -0.5187  0.0328  0.2878
10093TIP3    H151694   0.452   4.007  10.900 -0.3102  0.1081 -1.0831
10093TIP3    H251695   0.405   3.863  10.892 -0.6659  0.0381  1.3111
10094TIP3   OH251696   2.474   6.250   2.026  0.5650 -0.3978  0.0738
10094TIP3    H151697   2.459   6.160   2.054  0.2923 -0.3494  0.0866
10094TIP3    H251698   2.404   6.268   1.964  0.9527 -0.3830 -0.3679
10095TIP3   OH251699   4.855   4.645   2.650 -0.0372 -0.1064 -0.6087
10095TIP3    H151700   4.929   4.642   2.590  1.1279 -0.6929  0.8079
10095TIP3    H251701   4.881   4.706   2.718 -0.2191 -1.3695  0.6557
10096TIP3   OH251702   0.025   4.345   1.155 -0.6454  0.1976  0.3138
10096TIP3    H151703   0.029   4.393   1.072 -1.6925  0.0769  0.1786
10096TIP3    H251704  -0.039   4.276   1.139  0.1305 -0.6658  0.8076
10097TIP3   OH251705   2.248   3.383   4.867 -0.0341  0.3980  0.2287
10097TIP3    H151706   2.291   3.458   4.909 -0.3865  0.5898  0.2520
10097TIP3    H251707   2.292   3.374   4.783  1.4557 -0.6970  1.0735
10098TIP3   OH251708   0.881   3.354   5.241 -0.1471 -0.6732 -0.2583
10098TIP3    H151709   0.839   3.397   5.167  0.9872  0.1543 -0.4424
10098TIP3    H251710   0.844   3.398   5.318 -1.5928 -1.7738 -0.2683
10099TIP3   OH251711   4.044   5.841   4.677 -0.4010  0.2923 -0.1185
10099TIP3    H151712   3.951   5.857   4.657 -0.5143 -1.2906 -1.0237
10099TIP3    H251713   4.059   5.751   4.648  1.4631  0.5686 -0.0834
10100TIP3   OH251714   0.231   2.176  13.764  0.1084 -0.3185 -0.5152
10100TIP3    H151715   0.270   2.232  13.831  0.7630  0.4006 -1.4772
10100TIP3    H251716   0.180   2.235  13.709  1.1783 -0.5624 -1.8152
10101TIP3   OH251717   3.996   1.586  12.341 -0.1273 -0.1720 -0.6589
10101TIP3    H151718   3.966   1.571  12.431 -0.2192 -0.0140 -0.6621
10101TIP3    H251719   3.918   1.619  12.296  0.4045  1.6787 -0.3079
10102TIP3   OH251720   5.985   3.493   3.787  0.3855  0.1449  0.7063
10102TIP3    H151721   6.046   3.565   3.774  2.0340 -1.2468  0.4698
10102TIP3    H251722   5.904   3.522   3.746  1.3285  1.4442 -0.3000
10103TIP3   OH251723   5.701   2.089   5.692  0.2989  0.3508 -0.0245
10103TIP3    H151724   5.657   2.024   5.637 -0.3636  1.1684 -0.4739
10103TIP3    H251725   5.642   2.102   5.766  0.4401  0.4180  0.0769
10104TIP3   OH251726   4.403   4.113   3.936 -0.0096 -0.3562 -0.1343
10104TIP3    H151727   4.313   4.134   3.961  1.0293  3.5459  1.1030
10104TIP3    H251728   4.445   4.085   4.017  0.8080  1.9266  0.2930
10105TIP3   OH251729   2.461   1.822   4.886 -0.9225 -0.1086  0.2551
10105TIP3    H151730   2.471   1.893   4.949  0.1764  0.4918 -0.5525
10105TIP3    H251731   2.538   1.830   4.829 -2.3499 -0.0348 -1.7536
10106TIP3   OH251732   0.809   4.381  12.767  0.4111  0.0449  0.0462
10106TIP3    H151733   0.754   4.399  12.691  1.5256  1.0400 -0.5552
10106TIP3    H251734   0.798   4.457  12.824 -0.7988 -0.9118  1.1534
10107TIP3   OH251735   2.180   5.633   5.236 -0.2257 -0.1727 -0.2624
10107TIP3    H151736   2.213   5.722   5.241 -0.4644 -0.1506  1.5623
10107TIP3    H251737   2.174   5.614   5.142 -0.1729  1.7166 -0.6726
10108TIP3   OH251738   4.801   4.018   6.092 -0.2780  0.0469  0.3714
10108TIP3    H151739   4.798   4.113   6.091  1.9490  0.1718  0.6038
10108TIP3    H251740   4.892   3.997   6.116 -0.6877 -2.1275  0.2305
10109TIP3   OH251741   2.562   6.768   6.823 -0.0159 -0.0978 -0.6610
10109TIP3    H151742   2.602   6.718   6.752  1.0495 -1.4936  0.8214
10109TIP3    H251743   2.516   6.702   6.875 -1.3442  0.9892 -0.4083
10110TIP3   OH251744   2.682   6.684   3.048  0.0303  0.6892 -0.9168
10110TIP3    H151745   2.636   6.603   3.023  1.0833 -0.4958  0.7708
10110TIP3    H251746   2.691   6.677   3.143  3.0765  1.1835 -1.0961
10111TIP3   OH251747   2.061   1.312   5.209 -0.5531  0.8809 -0.3608
10111TIP3    H151748   2.018   1.349   5.131 -0.2895 -0.6044 -1.2529
10111TIP3    H251749   1.995   1.255   5.248  0.4666 -1.4198 -1.7417
10112TIP3   OH251750   1.086   2.018  11.239 -0.2226 -0.3165  0.3661
10112TIP3    H151751   1.062   1.939  11.288 -0.1696  0.5963  1.9190
10112TIP3    H251752   1.159   2.055  11.288  0.4171  0.1770 -0.9233
10113TIP3   OH251753   0.591   1.584  11.889 -0.3998  0.3565  0.9868
10113TIP3    H151754   0.522   1.530  11.851  0.3344  0.6165 -0.8602
10113TIP3    H251755   0.563   1.674  11.874  0.1582  0.4635  0.5183
10114TIP3   OH251756   6.022   1.519   1.393 -0.2665 -0.5884  0.1326
10114TIP3    H151757   5.944   1.466   1.410 -0.0221 -1.0266 -0.1140
10114TIP3    H251758   6.078   1.464   1.339  0.7428 -0.7257  1.2842
10115TIP3   OH251759   1.339   1.571  14.452  0.2185 -0.3485  0.1413
10115TIP3    H151760   1.257   1.575  14.402 -0.0942  0.4130  0.6955
10115TIP3    H251761   1.326   1.497  14.511 -1.1035  1.2060  1.9303
10116TIP3   OH251762   5.511   5.809  12.135  0.6842  0.1160 -0.6135
10116TIP3    H151763   5.467   5.811  12.220  0.2265 -1.2628 -0.8049
10116TIP3    H251764   5.535   5.717  12.122  1.9242  0.5222 -1.3901
10117TIP3   OH251765   5.785   0.298   4.181 -0.2557  0.9593  0.2811
10117TIP3    H151766   5.846   0.319   4.111 -1.5413  1.1706 -0.8084
10117TIP3    H251767   5.705   0.347   4.160 -0.9269  0.4480  1.4895
10118TIP3   OH251768   5.083   1.309  17.223  0.3671 -0.0008  0.3558
10118TIP3    H151769   5.093   1.246  17.295  0.7428 -2.1216 -1.4338
10118TIP3    H251770   4.992   1.302  17.197  0.1630  0.9667  0.7492
10119TIP3   OH251771   6.191   6.189  11.833  0.0059 -0.0975 -0.4034
10119TIP3    H151772   6.110   6.164  11.877  0.4066 -2.0358 -0.6600
10119TIP3    H251773   6.163   6.241  11.758 -0.7877  1.6981  1.0707
10120TIP3   OH251774   5.425   5.913   1.277  0.9005 -0.5322  0.1827
10120TIP3    H151775   5.437   5.860   1.356  1.4705 -1.2029 -0.3437
10120TIP3    H251776   5.363   5.981   1.303  1.3590 -0.5270  1.3131
10121TIP3   OH251777   3.941   3.699   6.127  0.2126 -0.3239 -0.2355
10121TIP3    H151778   3.852   3.684   6.158  0.1949 -0.1549 -0.2061
10121TIP3    H251779   3.989   3.620   6.152  0.0465 -0.4597 -0.3431
10122TIP3   OH251780   3.810   5.275  13.242 -0.0998  0.2133  0.1636
10122TIP3    H151781   3.720   5.259  13.211  0.5135 -1.4562 -0.8796
10122TIP3    H251782   3.864   5.216  13.189  1.3445 -0.6218  2.4186
10123TIP3   OH251783   1.870   5.531   1.361  0.0368  0.0716  0.1325
10123TIP3    H151784   1.776   5.519   1.349 -0.2860  0.7543  1.6956
10123TIP3    H251785   1.906   5.442   1.361 -0.9629 -0.3861  1.8451
10124TIP3   OH251786   4.765   5.860   2.015  0.0845  0.2834  0.0077
10124TIP3    H151787   4.764   5.875   2.110 -0.4746 -0.3961  0.1204
10124TIP3    H251788   4.675   5.879   1.987 -0.0656 -0.6566 -0.1850
10125TIP3   OH251789   1.125   6.115   1.781 -0.5752 -0.2708  0.1329
10125TIP3    H151790   1.140   6.036   1.832  3.4196 -1.0733 -1.9070
10125TIP3    H251791   1.137   6.187   1.844 -1.5089 -1.2167  1.4389
10126TIP3   OH251792   4.334   6.510  15.769 -0.1849 -0.2703 -0.0385
10126TIP3    H151793   4.291   6.544  15.848 -0.3138  0.9165 -0.6000
10126TIP3    H251794   4.266   6.513  15.702  0.3500  0.2208 -0.5712
10127TIP3   OH251795   2.185   6.103   5.861 -0.0956 -0.2978 -0.5018
10127TIP3    H151796   2.116   6.122   5.925  0.1305 -1.2778  0.0607
10127TIP3    H251797   2.154   6.141   5.779 -1.9424 -1.8577 -0.5761
10128TIP3   OH251798   5.143   0.085   2.176 -0.2641 -0.2473 -0.1685
10128TIP3    H151799   5.145   0.138   2.256  0.8798  1.2951 -1.1476
10128TIP3    H251800   5.225   0.036   2.178  0.0611  0.2598 -0.6607
10129TIP3   OH251801   4.143   5.262   2.303 -0.2264  0.0501  0.3826
10129TIP3    H151802   4.228   5.281   2.263 -0.4365 -0.4138 -0.3041
10129TIP3    H251803   4.164   5.215   2.384  0.1404 -1.9792 -0.8273
10130TIP3   OH251804   4.037   5.820   5.675 -0.2916 -0.1400 -0.1355
10130TIP3    H151805   4.062   5.793   5.763  1.2439  1.3853 -0.0531
10130TIP3    H251806   4.108   5.788   5.619  0.1948  1.3415 -0.3985
10131TIP3   OH251807   1.311   1.693   2.532 -0.5381  0.0968  0.1720
10131TIP3    H151808   1.336   1.783   2.554 -1.1582  0.3654 -0.1887
10131TIP3    H251809   1.255   1.702   2.455  0.7109 -0.7477 -0.8629
10132TIP3   OH251810   1.363   2.623  14.886  0.7327  0.1226  0.3406
10132TIP3    H151811   1.404   2.609  14.971  1.3404  1.8331  0.3600
10132TIP3    H251812   1.432   2.606  14.823  0.8807  0.8723  0.2886
10133TIP3   OH251813   5.377   0.883  11.281 -0.6284 -0.4838 -0.0155
10133TIP3    H151814   5.308   0.887  11.347 -1.9232  1.2934 -1.4066
10133TIP3    H251815   5.335   0.844  11.205  0.0920 -0.0393 -0.6528
10134TIP3   OH251816   5.333   5.830   6.224  0.6717  0.4346  0.7627
10134TIP3    H151817   5.240   5.808   6.219  0.9188 -0.5155  0.0937
10134TIP3    H251818   5.337   5.924   6.207 -0.2805  0.7547  2.1598
10135TIP3   OH251819   2.408   4.700   4.216  0.2221  0.0594 -0.2527
10135TIP3    H151820   2.466   4.770   4.185  1.0539 -1.3954 -2.2062
10135TIP3    H251821   2.320   4.731   4.196  0.4497  1.2516  0.4864
10136TIP3   OH251822   4.537   0.315  13.088 -0.4059  0.3427 -0.4978
10136TIP3    H151823   4.449   0.352  13.093 -1.3805 -1.8818 -0.1950
10136TIP3    H251824   4.574   0.330  13.175 -0.8177  0.4771 -0.3460
10137TIP3   OH251825   2.585   4.025  15.804  0.4544  0.1047  0.0242
10137TIP3    H151826   2.658   4.043  15.745 -0.5761 -0.1585 -1.4030
10137TIP3    H251827   2.533   4.105  15.802 -0.0989 -0.2556 -0.2152
10138TIP3   OH251828   1.949   6.460  12.564 -0.5322 -0.9648  0.4109
10138TIP3    H151829   2.005   6.390  12.597  0.5354  0.0086  0.7359
10138TIP3    H251830   1.945   6.524  12.636 -2.2613 -1.0884  0.4850
10139TIP3   OH251831   4.936   0.208   2.012  0.3164  0.3153  0.3371
10139TIP3    H151832   4.891   0.292   2.022  0.8696  0.6761 -0.1781
10139TIP3    H251833   5.024   0.224   2.044  0.4144 -0.0838  0.2722
10140TIP3   OH251834   3.565   2.691   3.840  0.2113  0.0416 -0.0351
10140TIP3    H151835   3.636   2.628   3.851  0.6487  0.5635  0.2176
10140TIP3    H251836   3.600   2.773   3.876 -0.6381  0.2288  0.4092
10141TIP3   OH251837   2.918   4.439   4.066 -0.1337 -0.2553 -0.4888
10141TIP3    H151838   2.832   4.444   4.107  0.9820  0.3116  1.9931
10141TIP3    H251839   2.924   4.517   4.011 -0.8963  0.1637  0.0129
10142TIP3   OH251840   4.213   2.512   2.897  0.5851  0.4685 -0.4180
10142TIP3    H151841   4.260   2.580   2.946  1.5690  0.9504 -1.9728
10142TIP3    H251842   4.168   2.461   2.965  1.0758  1.7172  0.9022
10143TIP3   OH251843   3.297   5.158  13.441 -0.2271 -0.5286 -0.5374
10143TIP3    H151844   3.232   5.184  13.376  1.7733  0.8839 -2.1140
10143TIP3    H251845   3.304   5.233  13.500 -0.6075 -1.0143  0.1383
10144TIP3   OH251846   1.583   0.030  12.481  0.1090 -0.5431  0.3684
10144TIP3    H151847   1.554  -0.016  12.402 -1.0660  0.6755  0.0446
10144TIP3    H251848   1.562   0.122  12.463  1.0750 -0.0726  1.5643
10145TIP3   OH251849   4.779   0.831  11.498 -0.7553 -0.0869  0.0467
10145TIP3    H151850   4.737   0.746  11.494  0.1403 -0.5322 -0.1799
10145TIP3    H251851   4.817   0.835  11.586 -2.6938  1.0306  0.8967
10146TIP3   OH251852   4.269   3.857  16.937 -0.2813  0.4333  0.1493
10146TIP3    H151853   4.297   3.816  17.019  3.3914  1.6511 -0.3092
10146TIP3    H251854   4.206   3.924  16.963 -0.0629  0.0170  1.8211
10147TIP3   OH251855   2.255   1.036   0.788 -0.3995 -0.0664  0.5509
10147TIP3    H151856   2.177   1.042   0.844 -0.3630 -1.6752  0.8246
10147TIP3    H251857   2.328   1.030   0.849 -0.4803 -3.4941  0.4886
10148TIP3   OH251858   3.275   5.581  10.944 -0.5352  0.7568  0.7844
10148TIP3    H151859   3.349   5.580  10.883 -1.2972 -0.3928 -0.1763
10148TIP3    H251860   3.208   5.632  10.900 -0.8308  0.5515  0.9908
10149TIP3   OH251861   0.204   2.083  15.605  0.0144  0.0370 -0.3207
10149TIP3    H151862   0.225   2.044  15.690 -0.7981 -1.4783 -0.7676
10149TIP3    H251863   0.117   2.050  15.584  0.4560 -0.1759 -2.0290
10150TIP3   OH251864   3.784   4.467   1.030 -0.4588 -0.1208  0.9944
10150TIP3    H151865   3.744   4.521   1.099  1.0189 -0.8543  2.4875
10150TIP3    H251866   3.713   4.409   1.001 -1.9046  2.0869 -0.1929
10151TIP3   OH251867   0.449   5.754   4.143  0.5939 -0.0821 -0.1410
10151TIP3    H151868   0.412   5.672   4.109 -0.0564 -0.3318  1.1165
10151TIP3    H251869   0.444   5.745   4.238  1.8797  0.8150  0.0366
10152TIP3   OH251870   3.595   6.564  15.635  0.1260 -0.5735  0.4296
10152TIP3    H151871   3.579   6.645  15.685  1.2211 -0.4049  0.5463
10152TIP3    H251872   3.689   6.566  15.618 -0.3246 -0.1585 -2.4863
10153TIP3   OH251873   4.070   6.228   0.751  0.0631  0.5370  0.6013
10153TIP3    H151874   4.115   6.172   0.687  0.9261 -0.7442  2.2650
10153TIP3    H251875   4.137   6.247   0.817 -1.5194 -0.5425  2.6015
10154TIP3   OH251876   1.600   1.566   2.068  0.5515 -0.2908  0.0683
10154TIP3    H151877   1.639   1.489   2.026 -0.0963 -1.1760  1.0561
10154TIP3    H251878   1.628   1.560   2.160 -0.7079 -0.1552  0.4736
10155TIP3   OH251879   1.942   1.270  15.125  0.2215  0.0140 -0.0928
10155TIP3    H151880   1.949   1.262  15.030  0.7147 -0.4164 -0.0290
10155TIP3    H251881   2.015   1.217  15.158 -1.0382 -1.3604  0.5751
10156TIP3   OH251882   5.509   2.533  13.748 -0.2224 -0.7745  0.0339
10156TIP3    H151883   5.510   2.566  13.838 -1.4556 -1.9215  0.4834
10156TIP3    H251884   5.521   2.439  13.756 -1.4173 -1.0266 -0.9311
10157TIP3   OH251885   6.113   0.888   1.248 -0.0310 -0.3270 -0.5320
10157TIP3    H151886   6.173   0.960   1.229 -1.5444  1.1594  0.1219
10157TIP3    H251887   6.158   0.836   1.315 -0.3999  2.1399  1.8021
10158TIP3   OH251888   6.633   6.208   0.238  0.2892  0.0136 -0.9180
10158TIP3    H151889   6.557   6.240   0.288 -1.1269 -1.1890 -2.2006
10158TIP3    H251890   6.649   6.277   0.174  0.9723  0.7376 -0.0025
10159TIP3   OH251891   0.797   2.408  13.091 -0.2664 -0.5398 -0.3611
10159TIP3    H151892   0.780   2.433  13.000  1.8489 -0.6198 -0.8344
10159TIP3    H251893   0.812   2.313  13.088 -0.7529 -0.6410  0.1764
10160TIP3   OH251894   3.528   5.418  13.298 -0.4044  0.4095  0.1968
10160TIP3    H151895   3.555   5.329  13.318 -0.4101  0.2170 -0.6085
10160TIP3    H251896   3.473   5.410  13.220 -0.3984  1.1188  0.1072
10161TIP3   OH251897   5.420   2.053   2.313 -0.2188  0.2965 -0.5090
10161TIP3    H151898   5.330   2.051   2.344 -0.9966 -0.8778 -2.6457
10161TIP3    H251899   5.460   1.974   2.348  0.2266  1.1508  0.9924
10162TIP3   OH251900   0.270   2.297  14.430 -0.3886  0.1493  0.0887
10162TIP3    H151901   0.176   2.309  14.445 -0.1347  0.1331  1.9308
10162TIP3    H251902   0.295   2.371  14.374 -1.5322  0.0181 -0.6265
10163TIP3   OH251903   2.298   5.237   1.049  0.1306  0.4423  0.3165
10163TIP3    H151904   2.205   5.230   1.030 -0.1295 -1.1696  1.8685
10163TIP3    H251905   2.314   5.330   1.063 -1.3121  0.6996  0.3272
10164TIP3   OH251906   5.373   4.291   2.090  0.1449 -0.2858 -0.2108
10164TIP3    H151907   5.297   4.341   2.060  1.5682  1.3415 -1.2736
10164TIP3    H251908   5.439   4.304   2.022  1.5619 -1.2559  0.9186
10165TIP3   OH251909   1.502   4.319  13.573 -0.2148 -0.1052 -0.3832
10165TIP3    H151910   1.536   4.363  13.496  0.3651  2.8824  1.4332
10165TIP3    H251911   1.418   4.283  13.545  0.0212  0.8067 -2.4221
10166TIP3   OH251912   0.769   6.186  11.847 -0.0732  0.8272  0.2088
10166TIP3    H151913   0.731   6.264  11.806  0.5626  2.1622  2.0235
10166TIP3    H251914   0.857   6.212  11.871  0.8270 -1.1007 -0.7977
10167TIP3   OH251915   1.997   4.956   1.991 -0.4696 -0.7887 -0.4242
10167TIP3    H151916   2.091   4.957   1.974 -0.3211 -0.4854  0.3927
10167TIP3    H251917   1.959   5.000   1.914  0.2229  0.8810  0.1382
10168TIP3   OH251918   4.086   4.525   3.077  0.1398  1.1831  0.2126
10168TIP3    H151919   4.177   4.538   3.103  0.0434  0.5340  0.8927
10168TIP3    H251920   4.085   4.438   3.038 -0.4957  0.5290  1.6540
10169TIP3   OH251921   3.891   1.650  16.890 -0.3493 -0.1267 -0.2525
10169TIP3    H151922   3.936   1.718  16.841  0.4380  1.9545  3.0139
10169TIP3    H251923   3.849   1.697  16.962 -1.7735 -2.8739  0.8571
10170TIP3   OH251924   0.228   0.042  14.578 -0.2795  0.7474  0.2285
10170TIP3    H151925   0.286   0.021  14.505 -0.4148  0.5168  0.1860
10170TIP3    H251926   0.233  -0.035  14.635 -1.6965  0.0675 -0.5093
10171TIP3   OH251927   2.862   0.622  14.633 -0.5059  0.3315 -0.1406
10171TIP3    H151928   2.918   0.551  14.602 -0.2086  1.1144 -1.4945
10171TIP3    H251929   2.784   0.578  14.667  1.0797 -0.8276  2.2674
10172TIP3   OH251930   5.293   3.809  12.954 -0.8318 -0.2878  0.2083
10172TIP3    H151931   5.312   3.841  13.042 -1.0740  1.7031 -0.4216
10172TIP3    H251932   5.310   3.884  12.896 -1.4840 -1.2848 -1.3580
10173TIP3   OH251933   0.993   3.528  12.969 -0.0373 -0.2294 -0.3422
10173TIP3    H151934   1.000   3.450  13.024  1.1846 -0.3960 -0.7186
10173TIP3    H251935   1.012   3.601  13.027 -1.5668 -0.1494  0.1031
10174TIP3   OH251936   4.568   5.394   1.839 -0.1537 -0.1682 -0.1868
10174TIP3    H151937   4.488   5.428   1.799  0.9759 -0.1621 -2.6092
10174TIP3    H251938   4.625   5.470   1.847  0.7414 -0.6608 -1.4872
10175TIP3   OH251939   3.862   5.414  15.826 -0.3928 -0.0599 -0.5974
10175TIP3    H151940   3.779   5.453  15.798 -1.1506  2.8202  4.4545
10175TIP3    H251941   3.838   5.332  15.868 -0.8828  0.9507  1.1982
10176TIP3   OH251942   1.324   1.724   5.320 -0.0058  0.0108 -0.0628
10176TIP3    H151943   1.301   1.657   5.256  1.8569 -0.1412 -0.6025
10176TIP3    H251944   1.368   1.677   5.391  0.2907  0.5169  0.0966
10177TIP3   OH251945   0.669   0.952   3.553  0.7870  0.2332  0.6756
10177TIP3    H151946   0.739   0.898   3.592 -0.3948 -0.8810  1.3429
10177TIP3    H251947   0.589   0.920   3.594 -0.5044 -0.6533 -2.3018
10178TIP3   OH251948   3.787   4.074   0.333  0.0834 -0.5576 -0.0176
10178TIP3    H151949   3.860   4.122   0.371  1.0526 -0.6971 -1.6090
10178TIP3    H251950   3.714   4.136   0.331  0.7301  0.1970 -0.1772
10179TIP3   OH251951   3.318   5.968  13.099 -0.2022  0.3418  0.2326
10179TIP3    H151952   3.282   5.889  13.140  0.9122 -0.4200 -0.2098
10179TIP3    H251953   3.312   6.035  13.167 -1.1663 -0.1179  0.6172
10180TIP3   OH251954   3.485   3.799   1.734 -0.3623  0.3271 -0.0063
10180TIP3    H151955   3.479   3.814   1.829  0.2584 -1.7950  0.4186
10180TIP3    H251956   3.408   3.843   1.698 -0.8332  0.8152  1.5203
10181TIP3   OH251957   2.704   5.244  11.211  0.3161 -0.3920 -0.2466
10181TIP3    H151958   2.646   5.282  11.145  1.3166 -0.6380 -1.2945
10181TIP3    H251959   2.735   5.319  11.261  1.7188  0.1618 -1.8505
10182TIP3   OH251960   3.589   4.609  15.113 -0.6095  0.2830  0.8040
10182TIP3    H151961   3.498   4.624  15.087 -0.1533  2.1138  0.1543
10182TIP3    H251962   3.619   4.540  15.053 -1.7113 -0.7968  1.4361
10183TIP3   OH251963   1.593   2.925   2.019 -0.1721 -0.3478 -0.2861
10183TIP3    H151964   1.501   2.901   2.019 -0.0881 -0.6824 -0.2297
10183TIP3    H251965   1.635   2.858   1.964  0.1747 -0.7691  0.4774
10184TIP3   OH251966   6.080   2.125   3.193 -0.4903  0.5046  0.4293
10184TIP3    H151967   6.043   2.037   3.192  2.4772 -0.8446  0.6331
10184TIP3    H251968   6.158   2.120   3.139 -0.4548  3.1765  0.0668
10185TIP3   OH251969   5.287   5.788   4.070  0.2021 -0.1707  0.4777
10185TIP3    H151970   5.331   5.873   4.074 -0.4918  0.1762  0.8261
10185TIP3    H251971   5.306   5.747   4.154 -0.4276  0.1295  0.7722
10186TIP3   OH251972   5.739   4.424  12.781  0.8305 -0.2122 -0.7534
10186TIP3    H151973   5.689   4.344  12.794  1.1562 -0.0522  2.1063
10186TIP3    H251974   5.676   4.495  12.791  0.8672 -0.0523 -1.5401
10187TIP3   OH251975   0.663   4.639  11.641  0.0177 -0.5665 -0.1128
10187TIP3    H151976   0.678   4.666  11.550  2.2176  1.4826  0.7449
10187TIP3    H251977   0.572   4.610  11.642 -1.2953  2.8030 -2.2592
10188TIP3   OH251978   0.742   4.598   0.837  0.9373  0.9524 -0.1604
10188TIP3    H151979   0.666   4.649   0.809  0.5349  0.4910  0.0891
10188TIP3    H251980   0.811   4.623   0.775  0.6270  1.4786 -0.3019
10189TIP3   OH251981   2.712   2.142   3.185  0.6415  0.1749 -0.2805
10189TIP3    H151982   2.693   2.170   3.096  0.9607  1.4455  0.0194
10189TIP3    H251983   2.807   2.151   3.193  0.5904  0.2878  0.2465
10190TIP3   OH251984   2.963   3.844   4.384 -0.3015  0.0915 -0.1711
10190TIP3    H151985   3.015   3.795   4.320 -1.1815  0.5754 -1.2903
10190TIP3    H251986   2.985   3.936   4.367 -0.7848  0.2411  0.0135
10191TIP3   OH251987   2.049   0.488  13.074 -0.4112  0.3108  0.5030
10191TIP3    H151988   2.022   0.574  13.045  0.8052  1.0540  1.4531
10191TIP3    H251989   2.006   0.476  13.159 -1.0343 -0.2732  0.1154
10192TIP3   OH251990   4.204   6.164  12.548 -0.4641 -0.0065 -0.6658
10192TIP3    H151991   4.212   6.070  12.563 -1.8082 -0.3101 -1.6713
10192TIP3    H251992   4.110   6.178  12.534 -0.3255  1.5390 -0.2137
10193TIP3   OH251993   1.603   3.570   2.397 -0.1722 -0.4636 -0.4490
10193TIP3    H151994   1.688   3.559   2.440 -0.3411  0.4383  0.1434
10193TIP3    H251995   1.596   3.664   2.383 -2.1474 -0.1991  1.7594
10194TIP3   OH251996   2.815   2.202   6.057  0.4485  0.3465 -0.3113
10194TIP3    H151997   2.764   2.176   6.133  0.9341  0.2296 -0.0232
10194TIP3    H251998   2.906   2.192   6.084  0.8766  4.9687  0.8451
10195TIP3   OH251999   6.506   2.835  14.616 -0.3810 -0.4292 -0.1580
10195TIP3    H152000   6.558   2.755  14.629  0.1777 -0.1149 -0.4097
10195TIP3    H252001   6.429   2.822  14.670  0.5145 -0.4012  1.1765
10196TIP3   OH252002   5.605   0.690   0.213  0.0360  0.2955  0.7645
10196TIP3    H152003   5.576   0.611   0.167 -0.2471 -0.2344  1.8111
10196TIP3    H252004   5.533   0.752   0.202  0.1867  0.3586  0.0823
10197TIP3   OH252005   2.538   3.484   1.264  0.0515 -0.2489  0.1573
10197TIP3    H152006   2.572   3.400   1.231  0.3471  0.2538 -0.8573
10197TIP3    H252007   2.502   3.527   1.186  0.8224  1.0040  0.4742
10198TIP3   OH252008   3.853   1.339   0.598  0.0626 -0.8900  0.3067
10198TIP3    H152009   3.899   1.346   0.682 -0.7460  0.0303  0.6948
10198TIP3    H252010   3.860   1.426   0.560  0.1342 -1.2130 -0.4324
10199TIP3   OH252011   5.344   4.610   2.303 -0.2834 -0.2340 -0.9470
10199TIP3    H152012   5.347   4.651   2.217 -0.9982  1.4043 -0.2459
10199TIP3    H252013   5.419   4.648   2.350  0.5331 -1.6605 -1.0491
10200TIP3   OH252014   5.918   4.626  15.026 -0.2028 -0.2167 -0.3004
10200TIP3    H152015   5.917   4.579  15.109  0.7091 -0.5001 -0.4358
10200TIP3    H252016   6.008   4.618  14.995 -0.1666  1.1071 -0.6231
10201TIP3   OH252017   1.150   0.964   4.793  0.7381  0.3087  0.2603
10201TIP3    H152018   1.152   0.995   4.702 -1.0543  0.2898  0.1752
10201TIP3    H252019   1.063   0.987   4.824  1.2866  0.2051  1.9595
10202TIP3   OH252020   4.751   1.820   1.865  0.1974  0.1830 -0.4313
10202TIP3    H152021   4.736   1.816   1.959  1.5593 -2.9000 -0.2316
10202TIP3    H252022   4.666   1.797   1.826 -0.0484  0.1870  0.1002
10203TIP3   OH252023   0.568   1.200   3.450 -0.1387  0.1195  0.1353
10203TIP3    H152024   0.498   1.160   3.399  0.7194 -0.4128 -0.6680
10203TIP3    H252025   0.613   1.127   3.492  0.1045  0.4191  0.4048
10204TIP3   OH252026   5.829   6.734   1.078 -0.3507  0.3474  0.6409
10204TIP3    H152027   5.744   6.758   1.115 -0.4960  1.4715 -0.3852
10204TIP3    H252028   5.809   6.667   1.013 -0.1359 -1.3218  2.1798
10205TIP3   OH252029   6.773   0.687   0.946 -0.1225  0.2713  0.2085
10205TIP3    H152030   6.772   0.752   0.876  0.7091 -0.7614 -0.7940
10205TIP3    H252031   6.837   0.622   0.918  0.3029 -0.1335  1.9789
10206TIP3   OH252032   2.288   5.102   1.465 -0.2373 -0.0477 -0.2427
10206TIP3    H152033   2.231   5.144   1.529 -2.4428  2.9932 -3.7684
10206TIP3    H252034   2.354   5.168   1.446  1.0295 -1.3161 -0.3972
10207TIP3   OH252035   3.785   4.655   1.246  0.2270  0.2166 -0.0182
10207TIP3    H152036   3.782   4.587   1.313  1.4584  0.2484  0.1030
10207TIP3    H252037   3.694   4.682   1.234 -0.3153 -1.5398 -0.1758
10208TIP3   OH252038   0.744   1.547  13.203  0.0650  0.7125  0.1542
10208TIP3    H152039   0.818   1.494  13.233  1.7275  2.2678 -0.9591
10208TIP3    H252040   0.711   1.500  13.127  0.3794  0.3574  0.2336
10209TIP3   OH252041   2.769   0.886  15.219 -0.0721  0.9311  0.1425
10209TIP3    H152042   2.678   0.910  15.203 -0.3514  0.7546  1.4292
10209TIP3    H252043   2.765   0.808  15.274  0.8564  0.6299 -0.1883
10210TIP3   OH252044   1.237   4.264   2.292 -0.1843 -0.4370  0.1398
10210TIP3    H152045   1.269   4.353   2.273 -0.8885 -0.1814  0.0771
10210TIP3    H252046   1.217   4.228   2.205  0.2298 -0.7097  0.1573
10211TIP3   OH252047   6.553   4.682  12.990  0.3072 -0.0531 -0.2014
10211TIP3    H152048   6.581   4.604  12.942 -2.1038 -1.0808 -0.1156
10211TIP3    H252049   6.483   4.719  12.935  0.0397  0.8839  0.7447
10212TIP3   OH252050   5.110   5.163  10.411  0.3273  0.0766 -0.0765
10212TIP3    H152051   5.043   5.220  10.449 -0.1371 -0.6210  0.1724
10212TIP3    H252052   5.182   5.222  10.387  0.7081  0.5276  2.0208
10213TIP3   OH252053   2.644   2.109   3.893 -0.2118  0.0085 -0.2159
10213TIP3    H152054   2.656   2.051   3.969 -0.3539 -0.0794 -0.2618
10213TIP3    H252055   2.608   2.052   3.825 -0.0481  0.0790 -0.3624
10214TIP3   OH252056   5.992   0.770  15.267 -0.9075  0.3886  0.2831
10214TIP3    H152057   5.998   0.819  15.349 -1.7561  0.8462  0.0888
10214TIP3    H252058   5.898   0.755  15.255 -0.8960  1.1953 -1.1000
10215TIP3   OH252059   6.407   6.270  15.877  0.0490 -0.1878  0.3161
10215TIP3    H152060   6.491   6.232  15.851  0.2010  0.0490  0.4529
10215TIP3    H252061   6.359   6.198  15.917  0.3033 -0.2562  0.5003
10216TIP3   OH252062   4.214   6.367   6.393 -0.1024  0.1506 -0.5269
10216TIP3    H152063   4.181   6.434   6.454 -0.5439 -0.8834  0.4190
10216TIP3    H252064   4.153   6.294   6.403  1.1437 -0.9239 -0.4874
10217TIP3   OH252065   3.058   5.031  15.362 -0.6958  0.1485  0.3904
10217TIP3    H152066   3.080   5.114  15.406 -0.4718  1.0267 -1.2929
10217TIP3    H252067   3.006   4.983  15.427  1.9259  0.1320  2.7011
10218TIP3   OH252068   4.031   5.017  12.685  0.1307 -0.5367 -0.3275
10218TIP3    H152069   3.973   5.056  12.620 -0.2562 -1.0054 -0.2735
10218TIP3    H252070   4.119   5.031  12.650  0.0650  1.0385  0.0617
10219TIP3   OH252071   0.662   5.681  16.726  0.2384 -0.7499  0.1545
10219TIP3    H152072   0.663   5.601  16.673 -0.8651  1.3874 -3.4462
10219TIP3    H252073   0.729   5.736  16.686 -1.9894  1.7244 -0.4207
10220TIP3   OH252074   5.179   4.379  13.090 -0.4907  0.2754  0.4115
10220TIP3    H152075   5.120   4.430  13.035  0.8121  1.3096 -0.1050
10220TIP3    H252076   5.247   4.348  13.030 -0.3441 -0.6356  1.0274
10221TIP3   OH252077   3.587   5.944  16.809  0.2708  0.2670  0.1301
10221TIP3    H152078   3.555   5.910  16.893 -1.1057  0.2761 -0.3655
10221TIP3    H252079   3.649   6.013  16.834 -1.3853  1.4495  1.1805
10222TIP3   OH252080   4.842   1.179   5.901  0.7405 -0.4845 -0.7365
10222TIP3    H152081   4.846   1.260   5.850  0.4606 -0.7181 -1.1326
10222TIP3    H252082   4.749   1.166   5.919  0.8647 -0.1894  0.1937
10223TIP3   OH252083   1.425   2.471   1.995  0.2880 -1.0957  0.3917
10223TIP3    H152084   1.355   2.536   1.986 -0.1264 -1.5337  0.3902
10223TIP3    H252085   1.379   2.388   2.003  0.8289 -1.5478 -0.8667
10224TIP3   OH252086   0.702   3.254  11.240  0.5346  0.8960  0.4740
10224TIP3    H152087   0.780   3.252  11.183 -1.4424  1.7949 -2.5083
10224TIP3    H252088   0.701   3.344  11.274 -0.4991  1.7795 -1.6619
10225TIP3   OH252089   5.787   1.269   1.905 -0.0565 -0.1026  0.9088
10225TIP3    H152090   5.808   1.352   1.863  0.9862  0.0781  1.7387
10225TIP3    H252091   5.846   1.206   1.864 -2.0340 -0.8484 -0.9829
10226TIP3   OH252092   1.836   1.728   1.290 -0.2402  0.4352 -0.0725
10226TIP3    H152093   1.822   1.821   1.274 -1.9705  0.4540  1.2486
10226TIP3    H252094   1.917   1.724   1.340 -1.4200  1.5415  2.0971
10227TIP3   OH252095   0.788   0.124   4.532  0.4832 -0.2774 -0.4687
10227TIP3    H152096   0.708   0.163   4.566 -0.3953 -1.0740 -1.5493
10227TIP3    H252097   0.779   0.129   4.437  1.4766 -0.8510 -0.6086
10228TIP3   OH252098   6.335   5.903  13.598 -0.3622 -0.1542  0.9642
10228TIP3    H152099   6.282   5.951  13.533 -0.4398 -1.4127  0.0755
10228TIP3    H252100   6.322   5.952  13.679 -1.4280  0.6244  0.3529
10229TIP3   OH252101   5.643   6.321   4.237 -0.7520 -0.7198  0.0931
10229TIP3    H152102   5.622   6.393   4.297 -0.1020 -1.8031  1.6797
10229TIP3    H252103   5.561   6.303   4.192 -0.6453  1.8565 -1.3387
10230TIP3   OH252104   3.960   0.487   5.174 -0.4799 -0.1620  0.2205
10230TIP3    H152105   4.007   0.425   5.230 -0.6645 -1.2005 -0.7401
10230TIP3    H252106   3.905   0.536   5.234  2.9170  2.2712  1.6750
10231TIP3   OH252107   4.267   2.601   1.942 -0.5351  0.4265 -0.1562
10231TIP3    H152108   4.233   2.531   1.886 -1.8905  0.8506  0.0971
10231TIP3    H252109   4.218   2.679   1.915 -1.2250  0.6507  1.5805
10232TIP3   OH252110   3.717   2.066  17.197  1.0818  0.2093  0.2615
10232TIP3    H152111   3.622   2.052  17.199  1.0224  0.6141  0.4165
10232TIP3    H252112   3.730   2.150  17.241  1.5909 -0.1982  0.9102
10233TIP3   OH252113   3.636   6.059  11.462  0.3718 -0.4018  0.4335
10233TIP3    H152114   3.601   6.056  11.374 -1.5241 -1.1858  1.1662
10233TIP3    H252115   3.613   5.974  11.500  2.1179 -0.5226  1.3445
10234TIP3   OH252116   5.817   3.595  12.863 -0.3528  0.0290  0.5087
10234TIP3    H152117   5.810   3.610  12.769  1.1786 -0.4515  0.2832
10234TIP3    H252118   5.741   3.542  12.885 -0.5365 -0.1601 -0.5268
10235TIP3   OH252119   0.894   2.560   5.047 -0.3376 -0.2378  0.0198
10235TIP3    H152120   0.834   2.625   5.009 -1.4557 -1.5482 -0.5340
10235TIP3    H252121   0.927   2.511   4.973 -0.2774 -0.9501  0.5117
10236TIP3   OH252122   6.130   6.418  14.688  0.5618  0.0848  0.3206
10236TIP3    H152123   6.090   6.337  14.719  1.1631 -0.5105 -0.4481
10236TIP3    H252124   6.111   6.420  14.594  0.1533  1.0724  0.4095
10237TIP3   OH252125   2.861   3.104  16.665  0.1207  0.1983  0.2225
10237TIP3    H152126   2.869   3.183  16.719 -1.8649 -0.1068  1.0612
10237TIP3    H252127   2.901   3.034  16.717  0.0428  0.2798  0.3903
10238TIP3   OH252128   3.740   3.518   0.318  0.6133 -0.5328 -0.3244
10238TIP3    H152129   3.792   3.440   0.297 -0.6686 -2.1121  1.8948
10238TIP3    H252130   3.782   3.553   0.397 -0.3487 -0.5293  0.1937
10239TIP3   OH252131   0.643   6.207  13.405 -0.3071 -0.3445  0.4756
10239TIP3    H152132   0.718   6.174  13.455  0.1976  2.7987  2.0173
10239TIP3    H252133   0.571   6.149  13.428  0.7342 -1.0186  2.1864
10240TIP3   OH252134   4.091   0.565   1.120  0.2149 -0.0087 -0.7259
10240TIP3    H152135   4.048   0.480   1.120  0.2474 -0.0622 -2.2541
10240TIP3    H252136   4.184   0.545   1.134 -0.0600  0.0182  1.4594
10241TIP3   OH252137   5.043   2.022   4.599  0.4216 -0.1693  0.4035
10241TIP3    H152138   4.960   1.974   4.608  0.6473 -0.5965  0.2428
10241TIP3    H252139   5.110   1.958   4.624  0.9814 -0.9568 -2.7866
10242TIP3   OH252140   2.436   5.615  11.202  0.1987 -0.5932  0.3927
10242TIP3    H152141   2.346   5.598  11.229  0.1803 -0.3614  0.4808
10242TIP3    H252142   2.441   5.580  11.113  0.1185 -0.9101  0.5120
10243TIP3   OH252143   5.989   6.633   3.491 -0.3064 -0.1337 -0.2509
10243TIP3    H152144   6.036   6.702   3.537  1.1547  0.6833 -2.7769
10243TIP3    H252145   5.900   6.636   3.527  0.2866  1.6170  1.1984
10244TIP3   OH252146   3.667   0.268   4.411  0.1050  0.0181  0.0370
10244TIP3    H152147   3.711   0.352   4.423  0.1027  0.1478 -0.7837
10244TIP3    H252148   3.737   0.203   4.414  0.7052  0.3445 -3.0188
10245TIP3   OH252149   3.766   3.889  13.913 -0.1473 -0.3883 -0.0508
10245TIP3    H152150   3.681   3.931  13.900 -0.7482 -0.7665  2.2728
10245TIP3    H252151   3.746   3.795  13.913  0.1802 -0.4643  0.9747
10246TIP3   OH252152   5.929   5.124  13.274 -0.0718 -0.8621  0.1664
10246TIP3    H152153   5.904   5.144  13.364  1.8898  0.1669  0.5235
10246TIP3    H252154   5.862   5.062  13.244 -0.5500 -1.5441  2.4452
10247TIP3   OH252155   1.995   0.712   6.251  0.2230  0.0462  0.1553
10247TIP3    H152156   1.924   0.773   6.228  2.0975  1.4598 -2.4064
10247TIP3    H252157   2.056   0.766   6.301  0.8487 -0.3448 -0.1871
10248TIP3   OH252158   4.602   5.975  10.891 -0.4454  0.0084  0.2790
10248TIP3    H152159   4.523   6.026  10.877  1.6190  3.1759 -1.0183
10248TIP3    H252160   4.650   6.023  10.958 -0.0309 -2.4855  1.9339
10249TIP3   OH252161   5.849   1.047   0.873 -0.5401  0.1744  0.1830
10249TIP3    H152162   5.777   1.087   0.825  0.7675  4.0759  1.0934
10249TIP3    H252163   5.908   1.015   0.805 -1.0199  1.1360 -0.7168
10250TIP3   OH252164   0.629   6.344  12.360 -0.1983 -0.0218 -0.0129
10250TIP3    H152165   0.653   6.436  12.359  0.6664 -0.2322  0.2749
10250TIP3    H252166   0.602   6.325  12.270 -2.9744  1.1233  0.4589
10251TIP3   OH252167   4.915   2.757  14.404  0.1395  0.4100 -0.1978
10251TIP3    H152168   4.882   2.758  14.314 -2.0191  0.3641  0.5323
10251TIP3    H252169   4.961   2.673  14.411 -2.2567 -1.0238 -0.4659
10252TIP3   OH252170   2.217   0.216   4.479  0.4961 -0.6730 -0.9078
10252TIP3    H152171   2.159   0.248   4.548  1.2160  2.1131 -1.4735
10252TIP3    H252172   2.245   0.130   4.509  1.7251  0.8624  2.9212
10253TIP3   OH252173   4.433   4.760   4.651  0.0783  0.5688 -0.2026
10253TIP3    H152174   4.448   4.757   4.745  1.3975  1.3495 -0.3596
10253TIP3    H252175   4.347   4.803   4.642  0.2357  1.0960  0.6306
10254TIP3   OH252176   4.731   4.367  16.215 -0.0021 -0.0029  0.4802
10254TIP3    H152177   4.687   4.288  16.182  0.8084 -0.3651  0.2363
10254TIP3    H252178   4.688   4.385  16.299 -1.0125  0.0061 -0.0369
10255TIP3   OH252179   6.648   0.972   1.563 -0.4157 -0.7468 -0.9965
10255TIP3    H152180   6.574   0.946   1.509 -1.1711 -0.5201 -0.0993
10255TIP3    H252181   6.630   1.063   1.587 -0.8156 -1.2486  0.7540
10256TIP3   OH252182   0.273   1.098  13.089 -0.4726  0.3602 -0.5060
10256TIP3    H152183   0.343   1.036  13.111 -1.2787  0.2235  2.0057
10256TIP3    H252184   0.193   1.046  13.098 -1.0203  1.1442 -0.8413
10257TIP3   OH252185   6.158   5.181   4.527 -0.4004 -0.4257  0.0653
10257TIP3    H152186   6.063   5.165   4.527 -0.8202  1.5629 -1.8480
10257TIP3    H252187   6.178   5.207   4.616 -1.7890 -0.3248  0.3737
10258TIP3   OH252188   2.912   0.276  12.272 -0.1989  0.1736 -0.5247
10258TIP3    H152189   2.921   0.226  12.191 -1.9559 -1.9019  0.4626
10258TIP3    H252190   2.819   0.271  12.293  0.2479  0.3832  1.7621
10259TIP3   OH252191   4.808   2.181   0.494 -0.1713 -0.1577 -0.3962
10259TIP3    H152192   4.760   2.178   0.411 -0.0577  1.3045 -0.5416
10259TIP3    H252193   4.881   2.240   0.478  0.2355 -0.3741  0.5626
10260TIP3   OH252194   2.818   1.666  16.492 -0.1925 -0.2585  0.1464
10260TIP3    H152195   2.912   1.660  16.512 -0.0536 -1.5429 -0.8195
10260TIP3    H252196   2.807   1.619  16.410 -1.3318  1.8423 -1.0065
10261TIP3   OH252197   4.721   2.507  16.640  0.0059 -0.2010  0.1716
10261TIP3    H152198   4.714   2.588  16.690  0.0808  0.5757 -1.0446
10261TIP3    H252199   4.646   2.508  16.581 -0.0494 -1.0723  0.2128
10262TIP3   OH252200   3.189   6.118  16.778 -0.5887  1.1553  0.3863
10262TIP3    H152201   3.237   6.152  16.853  0.0065 -0.3032  0.6939
10262TIP3    H252202   3.097   6.134  16.799 -0.3833  1.4741  1.0557
10263TIP3   OH252203   0.011   0.972  13.063  0.6263 -0.4706 -0.0953
10263TIP3    H152204  -0.053   1.038  13.038  1.1595  1.2458  2.5965
10263TIP3    H252205  -0.042   0.896  13.090 -0.4408  1.0793  2.5352
10264TIP3   OH252206   1.748   2.843  14.082  0.2652  0.1054 -0.0774
10264TIP3    H152207   1.718   2.815  14.168  0.5232  0.9744  0.3056
10264TIP3    H252208   1.817   2.906  14.100  0.2838  0.3429 -0.9280
10265TIP3   OH252209   4.198   2.051  12.457 -0.6187  0.6727  0.1835
10265TIP3    H152210   4.113   2.093  12.470 -0.6662  0.7659 -0.4106
10265TIP3    H252211   4.179   1.972  12.407 -0.7568 -1.0159  2.7370
10266TIP3   OH252212   0.172   3.214  11.470  0.8216 -0.0826 -0.7278
10266TIP3    H152213   0.093   3.243  11.515  0.4602 -0.7221 -0.9423
10266TIP3    H252214   0.206   3.143  11.524  1.3408  0.2851 -0.5558
10267TIP3   OH252215   6.586   3.593  14.804 -0.5089  0.6733 -0.6448
10267TIP3    H152216   6.538   3.512  14.787  1.1728 -1.2141  2.5265
10267TIP3    H252217   6.669   3.583  14.759  0.0841  0.1107  0.5204
10268TIP3   OH252218   4.194   4.457  12.072 -0.1122 -0.5683 -0.0080
10268TIP3    H152219   4.154   4.394  12.012 -1.0493 -1.1932  1.2364
10268TIP3    H252220   4.255   4.405  12.125 -1.3338 -0.5989  1.4349
10269TIP3   OH252221   3.704   6.543   4.077 -0.0351 -0.1175 -0.0467
10269TIP3    H152222   3.745   6.457   4.073 -0.1203 -0.2793  1.5816
10269TIP3    H252223   3.612   6.528   4.059  0.0462 -0.2708 -0.3361
10270TIP3   OH252224   1.736   4.658  12.394  0.1160  0.2325  0.3438
10270TIP3    H152225   1.676   4.627  12.326  0.1453  0.0795  0.3872
10270TIP3    H252226   1.800   4.710  12.347 -0.8667  1.5976  0.4762
10271TIP3   OH252227   0.701   6.386  16.038  0.1105 -0.7690 -0.2727
10271TIP3    H152228   0.726   6.443  15.965 -1.2998 -0.0196 -0.1998
10271TIP3    H252229   0.781   6.379  16.091  0.4872  0.6599 -0.6028
10272TIP3   OH252230   0.139   2.546   1.689 -0.2283  0.1053 -0.0060
10272TIP3    H152231   0.062   2.602   1.702  0.3366  0.8128  0.3683
10272TIP3    H252232   0.155   2.549   1.595  0.7344  1.9003  0.1658
10273TIP3   OH252233   2.973   2.352  16.402  0.1519  0.3952 -0.8221
10273TIP3    H152234   3.001   2.438  16.370  1.0535 -0.1246 -1.4528
10273TIP3    H252235   2.883   2.367  16.432  0.5856  1.7554 -0.0913
10274TIP3   OH252236   1.409   0.127  12.888 -0.1796 -0.0779 -1.1324
10274TIP3    H152237   1.410   0.190  12.817 -0.4607 -1.0744 -2.0385
10274TIP3    H252238   1.409   0.180  12.968  0.8333  1.0482 -1.8593
10275TIP3   OH252239   3.978   2.498  16.460 -0.5593 -0.0819  0.2893
10275TIP3    H152240   4.000   2.452  16.541  1.3303  4.4937  2.7850
10275TIP3    H252241   4.062   2.506  16.414 -1.1856 -0.6297 -0.9671
10276TIP3   OH252242   6.086   3.649   2.423  0.1830  0.0889 -0.2631
10276TIP3    H152243   6.166   3.598   2.408 -0.4922 -0.3657 -2.5628
10276TIP3    H252244   6.050   3.612   2.504  1.5216 -0.7007  0.0082
10277TIP3   OH252245   4.924   4.257   2.359 -0.1384  0.0413  0.1549
10277TIP3    H152246   4.955   4.176   2.318 -0.1402  0.6313 -1.0655
10277TIP3    H252247   4.996   4.319   2.347 -0.1294  0.2315  1.1003
10278TIP3   OH252248   6.007   0.475   3.076 -0.3303  0.2731 -0.0536
10278TIP3    H152249   6.085   0.487   3.130 -1.0254  0.1016  1.0281
10278TIP3    H252250   6.007   0.382   3.054 -0.3466  0.2220  0.1551
10279TIP3   OH252251   3.423   2.078   3.112  0.0622 -0.6382  0.6924
10279TIP3    H152252   3.406   2.041   3.026  2.5944 -0.8355  0.1964
10279TIP3    H252253   3.407   2.172   3.102  2.9655 -0.1998 -0.8838
10280TIP3   OH252254   2.086   4.301   4.097  0.1543 -0.7428 -0.2616
10280TIP3    H152255   2.138   4.380   4.085  0.5745 -0.8318  0.8735
10280TIP3    H252256   2.067   4.271   4.007  0.6836  0.1786 -0.6946
10281TIP3   OH252257   4.107   5.025  10.522 -0.2738  0.6498  0.2927
10281TIP3    H152258   4.065   5.059  10.443 -0.9690 -0.7778  0.0189
10281TIP3    H252259   4.037   4.978  10.567  0.3372  0.7012  1.3218
10282TIP3   OH252260   3.902   5.912  10.538 -0.9717 -0.1834 -0.3829
10282TIP3    H152261   3.932   5.972  10.606 -0.5490 -1.0557  0.2178
10282TIP3    H252262   3.815   5.943  10.514 -0.5664  0.9432 -0.4166
10283TIP3   OH252263   6.211   6.356   5.300 -0.4162 -0.1789  0.1311
10283TIP3    H152264   6.141   6.296   5.275 -1.0293  0.7060 -0.3760
10283TIP3    H252265   6.283   6.300   5.326 -1.1832 -1.1211  0.2919
10284TIP3   OH252266   1.503   1.149   0.488 -0.0658 -0.1504  0.4346
10284TIP3    H152267   1.490   1.191   0.573 -0.3791 -1.0199  0.8291
10284TIP3    H252268   1.596   1.128   0.486  0.0664  0.4363  0.2899
10285TIP3   OH252269   3.003   1.031  15.195  0.1512  0.6292  0.1067
10285TIP3    H152270   2.929   0.970  15.193  1.3127 -0.8679 -2.2547
10285TIP3    H252271   2.974   1.105  15.142 -0.9025  1.8161  2.1898
10286TIP3   OH252272   1.090   1.170  12.049 -0.5148 -0.1578 -0.8884
10286TIP3    H152273   1.072   1.102  12.114  0.2192  0.0388 -0.4772
10286TIP3    H252274   1.092   1.123  11.966  1.8667 -0.9929 -0.4267
10287TIP3   OH252275   3.896   1.333  16.406 -0.3040  0.2118 -0.0006
10287TIP3    H152276   3.894   1.286  16.489 -0.2187 -1.1667 -0.7485
10287TIP3    H252277   3.807   1.366  16.395 -0.0207  1.4900  1.1962
10288TIP3   OH252278   1.893   5.014  16.353  0.1093 -0.7613  0.1927
10288TIP3    H152279   1.968   5.073  16.347 -0.9742  0.6156 -0.3030
10288TIP3    H252280   1.859   5.009  16.263 -1.4561  0.0943  0.7066
10289TIP3   OH252281   1.598   4.290  14.223 -0.7106  0.0635 -0.0699
10289TIP3    H152282   1.529   4.315  14.284 -0.1158  0.9394  0.2603
10289TIP3    H252283   1.633   4.373  14.190  0.0166 -0.3684 -0.4183
10290TIP3   OH252284   4.687   5.695  12.711  0.0500 -0.0178 -0.1348
10290TIP3    H152285   4.757   5.645  12.670  0.4517  0.7336 -0.4012
10290TIP3    H252286   4.730   5.773  12.745 -0.7032  0.6504 -0.6428
10291TIP3   OH252287   3.841   5.931   4.304 -0.1594  0.4636  0.1611
10291TIP3    H152288   3.884   5.858   4.349 -0.9923 -0.8895 -1.1331
10291TIP3    H252289   3.903   6.004   4.313  0.8043 -0.4505  1.3109
10292TIP3   OH252290   5.743   3.972  17.244  0.1405  0.0412 -0.3036
10292TIP3    H152291   5.756   4.062  17.275  1.1790  0.1499 -1.0075
10292TIP3    H252292   5.734   3.921  17.324  1.6715  0.4720  0.1955
10293TIP3   OH252293   0.916   5.485   1.397  0.3391 -0.7847 -0.4280
10293TIP3    H152294   0.909   5.495   1.492  0.2493  1.2591 -0.6137
10293TIP3    H252295   0.833   5.444   1.372  0.0494 -0.6647  0.2979
10294TIP3   OH252296   4.924   4.697  13.968  0.1538  0.2888 -0.2061
10294TIP3    H152297   4.939   4.777  14.018 -0.3200  0.0901  0.2682
10294TIP3    H252298   4.852   4.719  13.909  0.2547  0.3168 -0.3187
10295TIP3   OH252299   4.511   0.893   4.592 -0.2929 -0.1519  0.2377
10295TIP3    H152300   4.475   0.982   4.590 -1.2080 -0.5273 -0.4352
10295TIP3    H252301   4.599   0.903   4.557 -0.4684  0.4559 -0.0503
10296TIP3   OH252302   1.736   6.031  13.561  0.0331  0.3908 -0.0360
10296TIP3    H152303   1.742   5.949  13.512  0.6077 -0.2182  1.0347
10296TIP3    H252304   1.643   6.042  13.578  0.0889 -0.9312  1.2735
10297TIP3   OH252305   0.547   0.020  12.757 -0.1708 -0.0618 -0.4258
10297TIP3    H152306   0.521   0.111  12.762  1.7156  0.5554 -1.1212
10297TIP3    H252307   0.483  -0.021  12.699 -1.8797  0.4493  1.0100
10298TIP3   OH252308   2.379   2.507  15.711 -0.4539 -0.6406  0.1679
10298TIP3    H152309   2.369   2.433  15.652 -0.2677 -0.5211 -0.0170
10298TIP3    H252310   2.375   2.584  15.654 -1.7477 -0.4527  0.4850
10299TIP3   OH252311   1.088   0.732  14.586 -0.3335  0.1890  0.0329
10299TIP3    H152312   1.018   0.738  14.651 -1.4240 -0.2880 -1.0618
10299TIP3    H252313   1.131   0.649  14.605  0.2972  0.7317  1.0451
10300TIP3   OH252314   1.348   1.042   0.304 -0.1711 -0.5161  0.0608
10300TIP3    H152315   1.262   1.074   0.331  0.4878  0.6099  0.9601
10300TIP3    H252316   1.408   1.078   0.370  1.1413 -0.1952 -1.2488
10301TIP3   OH252317   4.643   5.289  12.697 -0.1849  0.1755 -0.3638
10301TIP3    H152318   4.547   5.295  12.692 -0.1559  1.0421 -0.0571
10301TIP3    H252319   4.665   5.341  12.775  0.4670 -0.7447  0.0735
10302TIP3   OH252320   3.830   2.651  13.339 -0.2130  0.0220  0.1664
10302TIP3    H152321   3.764   2.598  13.294 -0.5669  0.4838  0.1447
10302TIP3    H252322   3.905   2.651  13.279  0.0327 -1.0055  0.4582
10303TIP3   OH252323   4.371   1.790   4.650  0.2148 -0.1875  0.4944
10303TIP3    H152324   4.372   1.833   4.735 -0.2464  1.0213 -0.0948
10303TIP3    H252325   4.454   1.743   4.645  0.8114  0.7848  1.0809
10304TIP3   OH252326   2.340   0.186  16.654 -0.2332 -0.3620 -0.0320
10304TIP3    H152327   2.381   0.254  16.708 -0.3230 -1.4656  1.5019
10304TIP3    H252328   2.314   0.119  16.717  0.1907 -2.0032 -1.5324
10305TIP3   OH252329   0.888   4.241   1.034  0.0099 -0.0271 -0.4155
10305TIP3    H152330   0.901   4.150   1.060  3.2295  0.5701  0.4318
10305TIP3    H252331   0.916   4.244   0.942 -0.0451  0.1357 -0.4275
10306TIP3   OH252332   3.144   3.892   2.163  0.3334 -0.4588 -0.0156
10306TIP3    H152333   3.139   3.943   2.244  0.1193 -1.1692  0.4289
10306TIP3    H252334   3.062   3.913   2.117 -0.5940 -1.6918  0.9734
10307TIP3   OH252335   2.616   2.638  15.445 -0.1693 -0.1362  0.4586
10307TIP3    H152336   2.531   2.634  15.490 -0.5809  0.0016 -0.2943
10307TIP3    H252337   2.598   2.689  15.366  0.0963 -1.9714 -0.8301
10308TIP3   OH252338   1.351   3.455  11.627  0.2570 -0.3399  0.1433
10308TIP3    H152339   1.405   3.404  11.567 -0.7735 -1.2935 -0.0148
10308TIP3    H252340   1.277   3.397  11.647 -1.0104  1.1127 -0.1165
10309TIP3   OH252341   2.264   6.069   1.356  0.2911  0.2815  0.4377
10309TIP3    H152342   2.177   6.045   1.388  0.4488 -0.3877  0.3912
10309TIP3    H252343   2.313   6.091   1.435  0.3101 -0.1335  0.5473
10310TIP3   OH252344   6.598   0.246  13.705  0.0518 -0.1202  0.0871
10310TIP3    H152345   6.673   0.283  13.752  0.0002 -0.4857  0.4571
10310TIP3    H252346   6.523   0.295  13.738 -0.1741 -1.2995  1.4391
10311TIP3   OH252347   4.680   6.589   2.242 -0.2003  0.6306  0.7627
10311TIP3    H152348   4.637   6.543   2.171 -1.6492 -0.1516  2.0848
10311TIP3    H252349   4.759   6.626   2.203 -1.9320  1.9859 -1.7643
10312TIP3   OH252350   3.504   0.014   3.537 -0.4016  0.3722 -0.0729
10312TIP3    H152351   3.530  -0.044   3.608 -0.1975 -0.0918 -0.5179
10312TIP3    H252352   3.513  -0.039   3.458 -0.3889  0.9498 -0.4701
10313TIP3   OH252353   0.254   2.588  16.962  0.0980 -0.2081 -0.4267
10313TIP3    H152354   0.211   2.671  16.944 -0.8772 -0.7633 -0.7681
10313TIP3    H252355   0.303   2.568  16.882  0.5424  0.1588 -0.2464
10314TIP3   OH252356   0.142   1.441   3.234 -0.2664 -0.0870  0.3502
10314TIP3    H152357   0.202   1.391   3.179 -0.1190 -0.5813  0.9570
10314TIP3    H252358   0.090   1.492   3.171 -0.1069 -0.6433 -0.2494
10315TIP3   OH252359   5.130   2.569  15.925 -0.4439  0.1335  0.6350
10315TIP3    H152360   5.185   2.586  16.002  0.2167 -0.5542  0.3290
10315TIP3    H252361   5.187   2.585  15.850  0.2616 -3.1809  0.3076
10316TIP3   OH252362   5.544   1.538   3.792  0.0393  0.3782 -0.6275
10316TIP3    H152363   5.497   1.540   3.875  2.6119  1.4417  0.9078
10316TIP3    H252364   5.516   1.617   3.746 -0.9461  0.0930 -0.5382
10317TIP3   OH252365   4.598   6.589  15.109  0.4020 -0.0021 -0.0995
10317TIP3    H152366   4.506   6.593  15.086  0.1567  0.0036  0.8207
10317TIP3    H252367   4.605   6.639  15.191  1.0995 -0.5146  0.1717
10318TIP3   OH252368   1.762   0.693  16.982  0.4121 -0.1286 -0.3868
10318TIP3    H152369   1.782   0.613  17.030  4.1494 -0.0231 -1.4800
10318TIP3    H252370   1.761   0.761  17.049  0.7877 -0.6051  0.1111
10319TIP3   OH252371   4.541   1.512  15.778  0.0853  0.4529 -0.2436
10319TIP3    H152372   4.541   1.480  15.688  3.4536 -0.3074 -0.0801
10319TIP3    H252373   4.488   1.447  15.826 -1.4157  0.6561 -1.5381
10320TIP3   OH252374   5.034   4.783  17.070 -0.1124  0.2286  0.9249
10320TIP3    H152375   5.100   4.714  17.063 -1.0687 -0.5290 -1.8293
10320TIP3    H252376   4.951   4.739  17.050 -0.7580  2.0823 -0.8581
10321TIP3   OH252377   2.517   5.054   1.140  0.2011  0.2548 -0.1846
10321TIP3    H152378   2.504   5.049   1.235  1.6219 -1.4732 -0.0221
10321TIP3    H252379   2.464   5.128   1.112 -1.2816  0.0137  1.7722
10322TIP3   OH252380   0.896   3.161  14.055 -0.7369  0.3957 -0.1530
10322TIP3    H152381   0.943   3.187  13.976 -2.3503 -1.2002 -1.7444
10322TIP3    H252382   0.954   3.097  14.097  0.3840  1.6733  0.3173
10323TIP3   OH252383   3.570   2.854  11.716  0.5847 -0.2879 -0.1951
10323TIP3    H152384   3.546   2.766  11.742  1.1367  0.0608  1.6407
10323TIP3    H252385   3.661   2.846  11.685  0.4296 -0.4559 -0.6116
10324TIP3   OH252386   4.706   5.445  16.689  0.4378 -0.1004 -0.2138
10324TIP3    H152387   4.627   5.416  16.643  1.3977 -1.4973 -1.0887
10324TIP3    H252388   4.676   5.466  16.777 -1.1227  0.7244 -0.8935
10325TIP3   OH252389   0.458   4.979  16.788  0.8374  0.0939 -0.2456
10325TIP3    H152390   0.399   5.038  16.834  0.9265 -0.8354  1.1375
10325TIP3    H252391   0.431   4.891  16.817  2.8692 -0.3628  0.4200
10326TIP3   OH252392   4.089   2.549   2.441  0.0282  0.1121  0.1153
10326TIP3    H152393   4.102   2.468   2.489 -0.8215 -1.0443 -1.4919
10326TIP3    H252394   4.003   2.581   2.471 -0.2864 -0.3591 -0.2588
10327TIP3   OH252395   1.334   3.473  10.896  0.3253 -0.2837 -0.1653
10327TIP3    H152396   1.417   3.519  10.910 -0.0354 -0.3411  2.8763
10327TIP3    H252397   1.357   3.380  10.905 -0.0601 -0.2932  0.8006
10328TIP3   OH252398   0.474   6.625  11.923  0.3411 -0.3417 -0.1183
10328TIP3    H152399   0.443   6.696  11.867 -0.8963 -0.6192  0.1990
10328TIP3    H252400   0.443   6.546  11.881  0.6275 -0.6274  0.2023
10329TIP3   OH252401   4.950   3.644  15.737  0.2872  0.3187  0.4012
10329TIP3    H152402   4.986   3.725  15.702  0.9696 -0.0862  0.1503
10329TIP3    H252403   4.906   3.670  15.818  1.6197  0.7669  1.0190
10330TIP3   OH252404   1.471   6.489   5.285  0.9024 -0.2552 -0.2699
10330TIP3    H152405   1.473   6.523   5.196  0.7691 -0.6188 -0.4109
10330TIP3    H252406   1.556   6.514   5.322 -0.3787  3.1525  0.7184
10331TIP3   OH252407   2.413   2.047  15.430  0.4313  1.1864  0.2795
10331TIP3    H152408   2.420   1.960  15.390 -0.2394  1.7872 -1.2197
10331TIP3    H252409   2.450   2.036  15.518  0.2119 -0.6459  0.1829
10332TIP3   OH252410   0.966   6.306   0.503  0.1672  0.6678 -0.1536
10332TIP3    H152411   0.976   6.297   0.408 -0.5604  0.5385 -0.2238
10332TIP3    H252412   0.884   6.354   0.514  0.1882  0.5787  0.4160
10333TIP3   OH252413   6.722   5.892  10.866  0.3667  0.0598  0.8410
10333TIP3    H152414   6.796   5.940  10.903  1.4001 -0.2893 -0.6898
10333TIP3    H252415   6.761   5.823  10.813 -1.0634 -0.3599  0.2715
10334TIP3   OH252416   1.483   5.148  14.661 -0.2618 -0.1971  0.1793
10334TIP3    H152417   1.397   5.109  14.677 -0.4405  0.5263  1.1386
10334TIP3    H252418   1.477   5.234  14.702  0.8570 -0.0586  0.0707
10335TIP3   OH252419   3.850   2.276  12.718 -0.3283  0.0856 -0.2886
10335TIP3    H152420   3.932   2.314  12.687 -0.2303  0.0836 -0.0372
10335TIP3    H252421   3.862   2.181  12.708 -1.5136  0.1360 -3.3148
10336TIP3   OH252422   5.487   0.653  14.482 -0.5118 -0.3136 -0.4245
10336TIP3    H152423   5.504   0.743  14.509 -0.6567 -0.1988 -0.7050
10336TIP3    H252424   5.476   0.604  14.563  4.3189 -1.1066  0.0586
10337TIP3   OH252425   2.433   0.525  15.920  0.3843  0.1850 -0.3251
10337TIP3    H152426   2.417   0.501  16.011 -2.3852 -0.7893 -0.9821
10337TIP3    H252427   2.513   0.577  15.923  0.5114 -0.0166  2.6155
10338TIP3   OH252428   1.212   2.066  12.026  0.1241  0.2583 -0.4211
10338TIP3    H152429   1.306   2.079  12.039  0.4313  0.5524 -2.6099
10338TIP3    H252430   1.206   2.007  11.951 -1.4519 -0.4180  0.2006
10339TIP3   OH252431   4.948   0.262  12.742 -0.2661  0.0846 -0.2333
10339TIP3    H152432   4.892   0.281  12.817  0.2683 -1.0397  0.4827
10339TIP3    H252433   4.943   0.166  12.732  1.7163 -0.0874  0.0228
10340TIP3   OH252434   0.081   4.559   2.578 -0.4048  0.5238 -0.3361
10340TIP3    H152435  -0.000   4.585   2.536 -0.1255  1.5457 -0.2576
10340TIP3    H252436   0.149   4.575   2.513 -0.2214 -0.0499 -0.2979
10341TIP3   OH252437   6.561   3.470   2.454  0.6286 -0.1664  0.0333
10341TIP3    H152438   6.520   3.387   2.481 -3.0533  0.7659 -1.9855
10341TIP3    H252439   6.625   3.444   2.388  0.8927 -1.5093  0.7665
10342TIP3   OH252440   2.541   4.941   2.199  0.4732 -0.0138 -0.0986
10342TIP3    H152441   2.562   4.916   2.109 -0.0644  0.7202 -0.4373
10342TIP3    H252442   2.559   5.035   2.203 -2.3669  0.6404 -0.3366
10343TIP3   OH252443   4.438   3.360   2.533  0.4780  0.0220 -0.0784
10343TIP3    H152444   4.359   3.391   2.577  1.5456  1.7061  0.7660
10343TIP3    H252445   4.478   3.439   2.496  0.8855 -1.0325 -2.0114
10344TIP3   OH252446   5.356   1.410   0.127  0.1323  0.6797 -1.2646
10344TIP3    H152447   5.337   1.405   0.220 -3.2564 -3.0691 -1.9102
10344TIP3    H252448   5.443   1.370   0.118  1.0756  2.2525  0.2888
10345TIP3   OH252449   6.474   5.438  12.683 -0.1896 -0.1508 -0.1519
10345TIP3    H152450   6.474   5.533  12.666  1.0106 -0.1919 -0.4394
10345TIP3    H252451   6.562   5.419  12.715 -1.1236 -0.7896  2.2778
10346TIP3   OH252452   6.053   4.445   3.136  0.1476 -0.5309  0.4950
10346TIP3    H152453   6.015   4.529   3.159 -1.8151 -1.5064  1.0650
10346TIP3    H252454   6.053   4.395   3.218  0.6363 -1.3138  0.0291
10347TIP3   OH252455   2.326   3.652  16.152 -0.0519 -0.2541 -0.2781
10347TIP3    H152456   2.332   3.686  16.242 -0.7987 -1.0160  0.0769
10347TIP3    H252457   2.355   3.725  16.097  2.9930 -0.5921  0.6828
10348TIP3   OH252458   2.514   3.920  13.973 -0.3846  0.1519  0.1045
10348TIP3    H152459   2.541   3.878  13.892  1.3036 -1.1832  1.2635
10348TIP3    H252460   2.515   4.014  13.953 -3.2391 -0.1826 -2.2653
10349TIP3   OH252461   1.237   1.789  14.872 -0.0726  0.0362 -0.4552
10349TIP3    H152462   1.296   1.821  14.803 -0.2437  0.2488 -0.5046
10349TIP3    H252463   1.170   1.857  14.879  0.0390  0.0944  0.0433
10350TIP3   OH252464   1.579   5.889  16.297 -0.2939  0.2311  0.7566
10350TIP3    H152465   1.509   5.897  16.233 -0.6107 -3.4007  0.4141
10350TIP3    H252466   1.659   5.912  16.250 -0.3556 -3.4648 -1.5395
10351TIP3   OH252467   0.506   1.034   2.325 -0.4834 -0.1317  0.2926
10351TIP3    H152468   0.570   0.968   2.352  1.5638  0.9257 -1.6883
10351TIP3    H252469   0.422   0.997   2.350  0.8918 -0.9235  4.4044
10352TIP3   OH252470   1.982   2.162   3.696  0.1001  0.1333  0.2943
10352TIP3    H152471   2.062   2.203   3.729 -0.1532 -0.8714  2.3042
10352TIP3    H252472   1.926   2.155   3.773 -0.9116 -1.5070 -0.5487
10353TIP3   OH252473   5.966   6.191  12.543 -0.5080 -0.4865  0.3055
10353TIP3    H152474   5.876   6.223  12.538 -0.5122 -0.4964  0.3204
10353TIP3    H252475   5.962   6.119  12.607 -0.3774 -0.1175  0.7297
10354TIP3   OH252476   0.795   3.439   2.973  0.0699  0.0737 -0.8870
10354TIP3    H152477   0.816   3.532   2.973 -0.3152  0.2173  1.7074
10354TIP3    H252478   0.709   3.434   2.931 -0.1315  0.9341 -0.5993
10355TIP3   OH252479   6.718   4.093   0.067 -0.4222  0.0031  0.3473
10355TIP3    H152480   6.700   4.000   0.077 -0.0647 -0.1320 -0.2119
10355TIP3    H252481   6.636   4.131   0.036 -0.7631 -0.0061  1.1891
10356TIP3   OH252482   0.767   3.022  12.455 -0.0033 -0.2995 -0.7834
10356TIP3    H152483   0.831   3.076  12.501 -0.6254 -0.3102  0.1171
10356TIP3    H252484   0.782   3.040  12.363  1.6316 -0.6854 -0.6149
10357TIP3   OH252485   6.234   0.525   0.424  0.1763  0.1486  0.5372
10357TIP3    H152486   6.318   0.540   0.380 -0.0445  0.5167  0.2358
10357TIP3    H252487   6.195   0.452   0.376 -0.2806  0.8617 -0.2019
10358TIP3   OH252488   3.206   2.338  10.949  0.2542  0.0075  0.3486
10358TIP3    H152489   3.194   2.298  10.863 -1.8299  0.7118  0.2402
10358TIP3    H252490   3.289   2.385  10.943 -0.5341  1.2755 -1.8212
10359TIP3   OH252491   4.840   4.032  14.179  0.0166  0.0319  0.4408
10359TIP3    H152492   4.804   4.001  14.096  1.2399 -0.8875  0.2282
10359TIP3    H252493   4.777   4.096  14.210 -0.8508 -0.1819 -0.8193
10360TIP3   OH252494   5.483   5.979  16.189  0.0612 -0.1057  0.8272
10360TIP3    H152495   5.441   6.027  16.118  0.9451 -0.8613 -0.2402
10360TIP3    H252496   5.575   5.973  16.163  0.2731 -0.9479  1.7177
10361TIP3   OH252497   2.794   3.505   3.276  0.0146 -0.1663  0.6428
10361TIP3    H152498   2.792   3.548   3.362  3.2254 -0.3891  0.9594
10361TIP3    H252499   2.874   3.453   3.278  1.0381  1.0164 -3.0468
10362TIP3   OH252500   0.555   4.247  16.820 -0.2981  0.4345  0.2363
10362TIP3    H152501   0.580   4.183  16.754 -0.4172 -0.4526  1.0277
10362TIP3    H252502   0.534   4.326  16.770 -0.6808 -0.2993 -0.8063
10363TIP3   OH252503   0.062   1.393  16.897 -0.0519  0.3792  0.3040
10363TIP3    H152504  -0.017   1.354  16.933  0.0265  0.7100  0.8449
10363TIP3    H252505   0.125   1.391  16.969  0.7459 -0.7455 -0.3861
10364TIP3   OH252506   2.833   4.217  12.999 -0.2310 -0.1979 -0.2598
10364TIP3    H152507   2.888   4.173  12.935 -0.1652 -2.3072  1.1252
10364TIP3    H252508   2.871   4.304  13.009 -0.1169  0.1059 -2.8329
10365TIP3   OH252509   3.921   4.666  11.619 -0.7093  0.2695  0.2495
10365TIP3    H152510   3.900   4.663  11.712  0.1154 -0.2935  0.4261
10365TIP3    H252511   3.984   4.738  11.612 -0.7922  0.3296  0.1159
10366TIP3   OH252512   3.134   5.237  15.590 -0.4177 -0.0016  0.1818
10366TIP3    H152513   3.127   5.287  15.509 -1.1333  0.5242  0.5552
10366TIP3    H252514   3.226   5.211  15.595 -0.1270  0.9113 -0.2349
10367TIP3   OH252515   4.397   1.639  13.342 -0.3028 -0.1765 -0.4987
10367TIP3    H152516   4.389   1.681  13.256 -0.0678 -0.5096 -0.6837
10367TIP3    H252517   4.358   1.552  13.329 -1.8703  0.3944  0.1841
10368TIP3   OH252518   1.193   3.836  11.865 -0.5595  0.1800  0.2704
10368TIP3    H152519   1.127   3.900  11.841 -0.5412  0.2091  0.2977
10368TIP3    H252520   1.254   3.834  11.791 -1.5343 -1.1210 -0.5493
10369TIP3   OH252521   5.186   6.282   5.260 -0.2687  0.3157 -0.0489
10369TIP3    H152522   5.131   6.213   5.222 -1.0329  0.7311  0.2733
10369TIP3    H252523   5.248   6.235   5.315 -1.4241 -0.0747  0.9628
10370TIP3   OH252524   6.344   3.506  13.194 -0.4544  0.1375  0.1242
10370TIP3    H152525   6.343   3.453  13.114 -0.1083 -1.1136  0.9253
10370TIP3    H252526   6.324   3.595  13.164 -0.2066 -0.2829 -1.3633
10371TIP3   OH252527   1.725   2.848   5.728  0.7343 -0.1441 -0.7712
10371TIP3    H152528   1.648   2.869   5.780  2.0142  0.6274  0.9349
10371TIP3    H252529   1.741   2.755   5.745  0.9827  0.0369  0.0549
10372TIP3   OH252530   6.363   2.099  11.311  0.0984 -0.4493 -0.0662
10372TIP3    H152531   6.389   2.024  11.364  0.7306 -1.1280 -1.2725
10372TIP3    H252532   6.322   2.159  11.372  1.2507 -0.9675  1.2814
10373TIP3   OH252533   6.150   0.497  14.786 -0.8427 -0.0561 -0.7936
10373TIP3    H152534   6.212   0.552  14.737  0.5472 -1.0694 -0.2370
10373TIP3    H252535   6.069   0.502  14.735 -0.2924  1.2220 -1.6090
10374TIP3   OH252536   2.392   6.153  16.786  0.7089  0.0492 -0.4995
10374TIP3    H152537   2.420   6.238  16.818 -0.1964  0.1766 -0.0373
10374TIP3    H252538   2.312   6.170  16.736  2.0581 -0.1384 -2.8897
10375TIP3   OH252539   0.299   1.178  15.448 -0.2784  0.0018 -0.7708
10375TIP3    H152540   0.243   1.253  15.467 -1.4162 -0.4923 -2.0347
10375TIP3    H252541   0.333   1.196  15.360 -0.1539 -0.7164 -0.8718
10376TIP3   OH252542   5.533   2.800   1.613  0.4795  0.3120 -0.1333
10376TIP3    H152543   5.589   2.876   1.627  1.4477 -0.1795 -1.2129
10376TIP3    H252544   5.566   2.734   1.674 -0.3712  0.7186  0.8153
10377TIP3   OH252545   5.975   4.235  16.878  0.1362  0.3923 -0.0693
10377TIP3    H152546   5.912   4.181  16.830  0.1805  1.7645 -1.7643
10377TIP3    H252547   6.020   4.285  16.810  2.6183 -0.0466  1.1327
10378TIP3   OH252548   3.564   1.009   2.328 -0.1566 -0.6571  0.8543
10378TIP3    H152549   3.591   0.991   2.418  1.6315 -2.7219  0.0076
10378TIP3    H252550   3.615   1.085   2.302  1.6603 -1.8787  0.6796
10379TIP3   OH252551   5.277   6.225   4.155 -0.5877 -0.7080 -0.1522
10379TIP3    H152552   5.192   6.193   4.125 -0.3970 -1.3299 -0.0528
10379TIP3    H252553   5.262   6.254   4.245 -1.1844  1.2469 -0.8217
10380TIP3   OH252554   0.576   3.495  12.958  0.2669  0.0588  0.3854
10380TIP3    H152555   0.666   3.518  12.934 -0.5385  1.7180 -1.2791
10380TIP3    H252556   0.577   3.399  12.963  1.7789 -0.0733 -1.1973
10381TIP3   OH252557   0.453   4.723  13.600 -0.0342 -0.6222 -0.4485
10381TIP3    H152558   0.497   4.804  13.626 -0.6981 -0.9547  1.8872
10381TIP3    H252559   0.522   4.658  13.596  0.0207 -0.7070  1.2670
10382TIP3   OH252560   3.726   3.262   3.735  0.1497 -0.3776 -0.3166
10382TIP3    H152561   3.634   3.286   3.734 -0.0086 -0.7534  1.4946
10382TIP3    H252562   3.727   3.174   3.773  1.4044  0.7374  2.5394
10383TIP3   OH252563   5.771   6.252  15.344 -0.4834 -0.3886  0.1006
10383TIP3    H152564   5.822   6.181  15.305  0.8398  0.9173 -0.6732
10383TIP3    H252565   5.680   6.226  15.332 -0.0793 -1.1045 -1.8814
10384TIP3   OH252566   6.320   2.165   1.230 -0.6108 -0.6873  0.0549
10384TIP3    H152567   6.351   2.092   1.283  1.3663  0.5478  0.6972
10384TIP3    H252568   6.334   2.243   1.284 -1.5030  0.3223 -1.0862
10385TIP3   OH252569   5.130   0.909  14.310 -0.2374  0.3238 -0.2320
10385TIP3    H152570   5.124   0.823  14.351  1.2094  1.3319  2.3091
10385TIP3    H252571   5.154   0.968  14.381  2.2274  2.2744 -2.4732
10386TIP3   OH252572   2.141   1.966  13.304  0.1832  0.1558 -0.5840
10386TIP3    H152573   2.142   1.873  13.327  0.8221  0.4760  0.7677
10386TIP3    H252574   2.099   1.968  13.218 -0.7002 -1.2810 -0.2349
10387TIP3   OH252575   2.931   3.226  14.813  1.0682 -0.3578  0.1795
10387TIP3    H152576   2.859   3.196  14.757  0.1920  1.7591  0.0832
10387TIP3    H252577   2.888   3.259  14.892  1.7675  1.9190 -0.3170
10388TIP3   OH252578   1.037   2.504   5.523 -0.4092 -0.2094 -0.5142
10388TIP3    H152579   1.018   2.459   5.605  0.2852  2.1698  1.0524
10388TIP3    H252580   0.952   2.536   5.492 -0.3437  1.4374  0.9072
10389TIP3   OH252581   0.541   1.912  14.646 -0.3483 -0.1735 -0.3721
10389TIP3    H152582   0.473   1.957  14.595  0.0654  0.4776 -0.3560
10389TIP3    H252583   0.492   1.865  14.715 -0.7608  0.5110 -0.1926
10390TIP3   OH252584   2.782   2.262  14.637  0.3418 -1.0872 -0.2438
10390TIP3    H152585   2.749   2.298  14.720  0.7574 -2.8673  0.7699
10390TIP3    H252586   2.751   2.323  14.570 -1.1199 -0.2654  1.0912
10391TIP3   OH252587   2.463   4.642   0.699 -0.3267  0.5615 -0.3200
10391TIP3    H152588   2.533   4.585   0.667 -0.1280 -0.1433  1.2778
10391TIP3    H252589   2.484   4.728   0.663 -0.4961 -0.2847 -2.5680
10392TIP3   OH252590   6.319   2.711   4.752  0.2817 -0.4148 -0.4409
10392TIP3    H152591   6.412   2.704   4.775  0.5696 -0.2944 -1.5456
10392TIP3    H252592   6.284   2.776   4.814  0.5558 -1.6239  1.0360
10393TIP3   OH252593   5.136   3.785  13.321 -0.0689 -0.9795  0.3044
10393TIP3    H152594   5.046   3.782  13.353 -0.2827 -2.5399 -0.3719
10393TIP3    H252595   5.138   3.723  13.249  1.3682 -0.3761 -0.2086
10394TIP3   OH252596   5.364   0.321  15.999 -0.2681  0.0720 -0.1267
10394TIP3    H152597   5.349   0.348  15.909  1.2059 -0.8508 -0.6853
10394TIP3    H252598   5.318   0.238  16.008  0.1816 -0.1950 -0.2594
10395TIP3   OH252599   3.438   0.207  14.637 -0.2170  0.0567 -0.1233
10395TIP3    H152600   3.443   0.269  14.711  1.4542  0.7631 -0.7777
10395TIP3    H252601   3.496   0.245  14.571  0.2331 -1.8155 -0.8530
10396TIP3   OH252602   0.791   4.106   4.725  0.0577  0.7006 -0.1673
10396TIP3    H152603   0.864   4.146   4.679  0.1420  0.4013 -0.2959
10396TIP3    H252604   0.763   4.172   4.788  0.2818  0.9081 -0.2853
10397TIP3   OH252605   3.873   6.721   2.790 -0.3886  0.4210 -0.2349
10397TIP3    H152606   3.884   6.690   2.880  2.2414  1.1376 -0.2014
10397TIP3    H252607   3.804   6.666   2.754  0.6887 -2.1018  1.2752
10398TIP3   OH252608   0.062   3.603  16.663 -0.3232 -0.2773 -0.0822
10398TIP3    H152609   0.068   3.652  16.581  3.4731  0.2082  0.3406
10398TIP3    H252610   0.107   3.658  16.727 -1.6945 -1.4306  1.9742
10399TIP3   OH252611   0.285   3.448  15.561  0.1518  0.1998  0.2126
10399TIP3    H152612   0.259   3.424  15.472  0.4686 -1.7832  0.6111
10399TIP3    H252613   0.286   3.365  15.609 -0.3991  1.2687  2.1870
10400TIP3   OH252614   3.482   5.204   3.989  0.3135 -0.0956 -0.5221
10400TIP3    H152615   3.397   5.187   3.946  0.6850 -2.4535 -0.4173
10400TIP3    H252616   3.459   5.250   4.070 -0.5117  3.0785 -2.3668
10401TIP3   OH252617   2.754   4.050   5.693  0.3854 -0.1771  0.5151
10401TIP3    H152618   2.751   3.975   5.634  0.1438  0.3297 -0.1302
10401TIP3    H252619   2.845   4.055   5.722  0.9445  0.6714 -1.2792
10402TIP3   OH252620   6.408   0.139  16.025 -0.2258  0.7320 -0.2953
10402TIP3    H152621   6.379   0.072  16.087 -0.8746  1.4157  0.1534
10402TIP3    H252622   6.452   0.205  16.078 -0.9712  1.4275 -0.5150
10403TIP3   OH252623   2.269   2.276   1.390  0.7561 -0.3485 -0.0489
10403TIP3    H152624   2.364   2.280   1.380  0.7028 -0.5078 -0.6285
10403TIP3    H252625   2.255   2.287   1.484  1.1617  3.1617 -0.2705
10404TIP3   OH252626   3.478   5.689  15.950  0.2619 -0.0991 -0.2517
10404TIP3    H152627   3.405   5.716  16.007 -0.9491  0.8945 -2.1914
10404TIP3    H252628   3.556   5.719  15.996 -0.7866  2.6136 -0.0676
10405TIP3   OH252629   0.804   0.479   3.486  0.1908 -0.4078  0.1295
10405TIP3    H152630   0.833   0.547   3.426  0.2379 -0.3587  0.2073
10405TIP3    H252631   0.769   0.527   3.561 -1.5342 -0.4280 -0.6147
10406TIP3   OH252632   4.656   6.517   1.458  0.1591 -0.0369 -0.1572
10406TIP3    H152633   4.703   6.571   1.520 -1.7531  0.5967  0.8140
10406TIP3    H252634   4.685   6.428   1.476  1.3406  0.3743  0.0399
10407TIP3   OH252635   0.348   0.366   5.826 -0.5142 -0.3688  0.4780
10407TIP3    H152636   0.350   0.372   5.730 -0.9398 -1.1801  0.4133
10407TIP3    H252637   0.378   0.452   5.855 -1.5724  0.3239 -0.3791
10408TIP3   OH252638   3.165   0.532  12.791 -0.0201 -0.5578 -0.4239
10408TIP3    H152639   3.094   0.575  12.744  0.7682 -2.7454 -4.0483
10408TIP3    H252640   3.242   0.587  12.774 -0.0557 -0.4067 -0.1080
10409TIP3   OH252641   0.440   0.435  15.654 -0.0416 -0.0101  0.3229
10409TIP3    H152642   0.360   0.409  15.699 -0.2376  1.9494  1.1845
10409TIP3    H252643   0.426   0.409  15.563 -1.4260 -0.1864  0.5744
10410TIP3   OH252644   4.955   3.931   1.943 -0.0763  0.8170 -0.1497
10410TIP3    H152645   4.980   3.933   2.035  0.5873  1.3633 -0.3298
10410TIP3    H252646   4.995   3.851   1.908  0.9666  1.3764 -0.2967
10411TIP3   OH252647   6.527   2.676   0.313  0.2318  0.4090  0.0876
10411TIP3    H152648   6.457   2.612   0.298 -0.3473  1.4471 -2.0531
10411TIP3    H252649   6.581   2.671   0.234  1.0947  1.4521  0.5846
10412TIP3   OH252650   2.454   3.951  15.191  0.3250 -0.0858  0.1657
10412TIP3    H152651   2.495   3.865  15.200  1.9677  0.4637 -1.3087
10412TIP3    H252652   2.374   3.935  15.142  0.9946 -0.7244 -0.7623
10413TIP3   OH252653   6.104   0.525  15.307 -0.0816 -0.0278 -0.3004
10413TIP3    H152654   6.074   0.616  15.305 -0.3106 -0.0093  1.6479
10413TIP3    H252655   6.197   0.530  15.286 -0.1618  0.6196 -0.5231
10414TIP3   OH252656   6.023   1.006  11.079  0.4272 -0.2145 -0.3936
10414TIP3    H152657   5.985   0.918  11.071 -1.3403  0.5821 -1.1211
10414TIP3    H252658   6.115   0.994  11.055  0.3709 -1.9627  0.0944
10415TIP3   OH252659   4.802   2.344   1.913  0.2439 -0.1048  0.1655
10415TIP3    H152660   4.789   2.415   1.849 -1.1596  0.3042  0.8457
10415TIP3    H252661   4.838   2.388   1.990  0.4808 -0.3380  0.1875
10416TIP3   OH252662   5.995   6.363   3.266  0.5357 -0.0804  0.5853
10416TIP3    H152663   6.012   6.270   3.279  0.8724 -0.2827 -1.1083
10416TIP3    H252664   5.986   6.398   3.355  1.4174 -1.5322  1.2911
10417TIP3   OH252665   5.891   0.998  16.663 -0.1878  0.0770 -0.2158
10417TIP3    H152666   5.851   0.986  16.577 -0.9746 -2.3836  0.4080
10417TIP3    H252667   5.842   1.071  16.702  2.0294  3.1624 -2.7850
10418TIP3   OH252668   2.492   1.708   4.564  0.2514 -0.2735  0.1532
10418TIP3    H152669   2.576   1.694   4.519  0.6797  1.4060  0.3630
10418TIP3    H252670   2.494   1.647   4.638  0.8432 -0.9428 -0.3965
10419TIP3   OH252671   2.020   5.612   1.829 -0.0630  0.1852 -0.0474
10419TIP3    H152672   1.933   5.627   1.793  0.4088  3.3320 -0.1642
10419TIP3    H252673   2.060   5.548   1.770 -2.3676 -1.6085  0.2365
10420TIP3   OH252674   5.631   4.666   4.257 -0.4502 -0.1881  0.3505
10420TIP3    H152675   5.640   4.670   4.162  1.3002 -0.3165  0.4757
10420TIP3    H252676   5.670   4.582   4.282 -0.8666 -0.1463  1.1866
10421TIP3   OH252677   2.454   3.314   2.574 -0.2306  0.3518 -0.0903
10421TIP3    H152678   2.413   3.323   2.659  0.2123 -0.5529  0.2373
10421TIP3    H252679   2.496   3.398   2.557 -3.0125  1.6778 -0.9035
10422TIP3   OH252680   4.929   4.988  14.980  0.5327 -0.2367  0.1579
10422TIP3    H152681   4.941   4.989  15.075 -1.1233 -1.0449  0.3947
10422TIP3    H252682   5.018   4.989  14.945  1.1618  0.4382  1.7048
10423TIP3   OH252683   3.942   3.465   4.041  0.3121  0.6428  0.0181
10423TIP3    H152684   3.935   3.455   4.136  1.0875 -1.1566 -0.0681
10423TIP3    H252685   3.890   3.543   4.021  0.5181  1.3394  1.9575
10424TIP3   OH252686   4.544   4.607  12.255  0.0442  0.1343 -0.0971
10424TIP3    H152687   4.617   4.551  12.282 -1.0630 -1.9186 -1.1137
10424TIP3    H252688   4.502   4.632  12.338 -0.5345 -2.1799  0.3969
10425TIP3   OH252689   1.290   5.803   3.522  0.1878 -0.1532  0.3340
10425TIP3    H152690   1.315   5.892   3.546 -1.0811 -0.3217  2.5102
10425TIP3    H252691   1.336   5.747   3.584  0.8065 -1.0580 -0.8794
10426TIP3   OH252692   3.622   5.699   4.424 -0.0674  0.0981  0.0684
10426TIP3    H152693   3.688   5.641   4.384 -0.7302 -0.8115  0.2605
10426TIP3    H252694   3.653   5.712   4.513  0.1375  0.1190 -0.0042
10427TIP3   OH252695   1.369   5.755  14.769  0.3114  0.2569 -0.3122
10427TIP3    H152696   1.435   5.770  14.836 -0.9941  1.0726  0.8439
10427TIP3    H252697   1.399   5.807  14.694  1.1407  0.3529  0.0781
10428TIP3   OH252698   4.331   4.852   0.024 -0.4836  0.3881  0.4654
10428TIP3    H152699   4.361   4.943   0.027  1.7487  0.0855 -4.1592
10428TIP3    H252700   4.252   4.855  -0.032 -0.8128 -0.4517  0.8655
10429TIP3   OH252701   5.846   3.917   2.765  0.6616 -0.4066  0.3886
10429TIP3    H152702   5.825   3.834   2.808  3.4047 -0.8127  1.1297
10429TIP3    H252703   5.938   3.932   2.785  0.3468  2.7007  0.0283
10430TIP3   OH252704   3.216   2.427   4.858  0.1061 -0.3039  0.1465
10430TIP3    H152705   3.154   2.489   4.896  0.0374 -0.3348  0.0854
10430TIP3    H252706   3.218   2.354   4.921  0.1967 -0.2331  0.2247
10431TIP3   OH252707   2.194   3.115   2.958  0.3098  0.2468  0.0919
10431TIP3    H152708   2.122   3.158   2.911 -0.0928 -0.2215  0.2823
10431TIP3    H252709   2.192   3.154   3.045 -0.7230 -0.8959  0.5997
10432TIP3   OH252710   3.083   3.319  11.966  0.1233  0.1012  0.2985
10432TIP3    H152711   3.021   3.389  11.987 -0.0288  0.5702 -1.5797
10432TIP3    H252712   3.032   3.258  11.912  1.1616  0.2492 -0.8744
10433TIP3   OH252713   4.691   2.609   3.717  0.4174  0.2790 -0.0405
10433TIP3    H152714   4.780   2.635   3.692  1.0475 -1.3133  0.4553
10433TIP3    H252715   4.653   2.574   3.637  0.9849 -0.9766  0.2246
10434TIP3   OH252716   1.096   5.817  14.693 -0.7041 -0.3781  0.3077
10434TIP3    H152717   1.190   5.807  14.684 -0.7520 -0.2872 -0.4030
10434TIP3    H252718   1.080   5.910  14.674 -0.9408 -0.4126  0.3331
10435TIP3   OH252719   4.809   1.792  17.101  0.2865 -0.3900  0.5599
10435TIP3    H152720   4.831   1.853  17.031 -1.1155  0.7293  1.0581
10435TIP3    H252721   4.739   1.835  17.150  1.5422 -0.9081  2.9696
10436TIP3   OH252722   6.015   0.787  14.678  0.3865 -0.0748 -0.1474
10436TIP3    H152723   6.002   0.856  14.744  1.5204 -0.2196  0.2491
10436TIP3    H252724   5.940   0.730  14.688 -2.1769  2.5676 -2.4015
10437TIP3   OH252725   4.921   1.441  12.681 -0.3284 -0.4318  0.4655
10437TIP3    H152726   4.997   1.393  12.649 -2.0063 -1.3690 -2.5922
10437TIP3    H252727   4.950   1.482  12.762  3.5461 -0.3139 -0.7936
10438TIP3   OH252728   4.036   1.831  15.953 -0.4615  0.3988  0.7662
10438TIP3    H152729   4.124   1.793  15.948 -0.4370  0.4409  0.8808
10438TIP3    H252730   4.032   1.871  16.040 -0.3040  1.1086  0.4572
10439TIP3   OH252731   2.933   0.734  16.644 -0.1904 -0.0450  0.9187
10439TIP3    H152732   3.008   0.771  16.691  0.4928  1.0723 -0.9724
10439TIP3    H252733   2.870   0.806  16.641  0.7218  0.7591 -1.8511
10440TIP3   OH252734   4.469   6.537  11.379  0.4255  0.3254  0.4958
10440TIP3    H152735   4.491   6.457  11.332  1.1012  0.4567  0.5808
10440TIP3    H252736   4.433   6.595  11.312 -0.5593 -0.2290  0.5288
10441TIP3   OH252737   0.419   0.891  12.721  0.0413 -0.6151 -0.0657
10441TIP3    H152738   0.474   0.955  12.765 -1.0702 -1.5283  2.9317
10441TIP3    H252739   0.439   0.808  12.766 -1.6733 -1.4907 -0.8211
10442TIP3   OH252740   1.860   0.411   4.081  0.0482 -0.7923  0.1929
10442TIP3    H152741   1.815   0.396   3.998  0.6686 -1.9877  0.0543
10442TIP3    H252742   1.790   0.408   4.147 -0.1622 -2.1529 -0.0667
10443TIP3   OH252743   4.344   5.690  16.121  0.1146  0.2286 -0.2471
10443TIP3    H152744   4.308   5.602  16.114 -0.4603  0.5071 -0.9821
10443TIP3    H252745   4.439   5.678  16.120  0.0932 -0.2693 -2.5473
10444TIP3   OH252746   5.293   3.505  12.375 -0.7110 -0.7260 -0.4780
10444TIP3    H152747   5.316   3.419  12.410  0.2158 -0.1394  0.4216
10444TIP3    H252748   5.373   3.536  12.331  0.6507  1.5680  3.1349
10445TIP3   OH252749   5.534   1.089  16.568 -0.3426  0.0928  0.6571
10445TIP3    H152750   5.561   1.168  16.614  1.8883  0.3756 -0.9939
10445TIP3    H252751   5.573   1.017  16.618 -1.1067  0.0938  1.2885
10446TIP3   OH252752   3.237   1.425   0.227  0.1619  0.2118  0.4486
10446TIP3    H152753   3.151   1.384   0.227 -0.1003  0.6571 -1.9265
10446TIP3    H252754   3.291   1.365   0.279 -1.0242 -1.3114  0.0077
10447TIP3   OH252755   2.714   3.678  12.131  0.0864  0.5741 -0.5496
10447TIP3    H152756   2.766   3.755  12.111 -0.8374  1.3996  0.1393
10447TIP3    H252757   2.624   3.702  12.109 -0.4364  0.2643  1.1060
10448TIP3   OH252758   2.494   6.195   4.005 -0.2816  0.2346  0.1844
10448TIP3    H152759   2.555   6.210   4.077 -0.6787  0.1157  0.5508
10448TIP3    H252760   2.493   6.277   3.957 -0.0399  0.3256  0.3293
10449TIP3   OH252761   6.578   6.183  14.184 -0.0460 -0.7037  0.3426
10449TIP3    H152762   6.565   6.277  14.193 -1.1813 -0.9579  1.9467
10449TIP3    H252763   6.666   6.167  14.217 -0.4384 -0.3507  1.6530
10450TIP3   OH252764   2.899   3.970  14.825 -0.5572  0.4854  0.5746
10450TIP3    H152765   2.976   3.990  14.879 -0.1792 -0.4436  0.4016
10450TIP3    H252766   2.829   3.953  14.889 -0.9842  2.5609  0.7290
10451TIP3   OH252767   5.299   0.911   5.290 -0.0566  0.1600 -0.5856
10451TIP3    H152768   5.309   0.826   5.247 -1.9055  0.5372 -1.8901
10451TIP3    H252769   5.318   0.894   5.382 -1.1341 -1.8645 -0.6787
10452TIP3   OH252770   4.579   4.229  12.527  0.0494 -0.5627 -0.0619
10452TIP3    H152771   4.597   4.138  12.501  0.4085 -0.4743 -0.1180
10452TIP3    H252772   4.651   4.280  12.490  0.1079 -0.3185  0.3870
10453TIP3   OH252773   5.192   0.761  13.484  0.2372  0.2843  0.6004
10453TIP3    H152774   5.274   0.779  13.438 -0.9152  2.4698 -0.7173
10453TIP3    H252775   5.189   0.826  13.554 -0.3555  0.1617  0.6913
10454TIP3   OH252776   2.375   5.026   0.010 -0.5542 -0.4874  0.3673
10454TIP3    H152777   2.399   5.106   0.057 -1.5521 -0.6444  1.1785
10454TIP3    H252778   2.302   4.990   0.060  0.0351 -2.0452  0.1436
10455TIP3   OH252779   5.654   2.614  16.399  0.2098  0.2262 -0.1516
10455TIP3    H152780   5.664   2.519  16.398 -0.2594  0.1741 -0.2424
10455TIP3    H252781   5.731   2.646  16.447 -0.2233 -0.2767  0.9292
10456TIP3   OH252782   6.414   1.395  16.525  0.1619  0.0990 -0.2182
10456TIP3    H152783   6.483   1.333  16.505  0.3024  0.2508 -0.2042
10456TIP3    H252784   6.399   1.442  16.443  1.6928  1.6745  0.3328
10457TIP3   OH252785   0.800   4.686  14.335 -0.2576 -0.4168 -0.0825
10457TIP3    H152786   0.782   4.743  14.410  2.4776 -0.3876  0.6702
10457TIP3    H252787   0.790   4.743  14.259 -3.8817 -0.6465  0.0618
10458TIP3   OH252788   2.802   3.471   0.404 -0.3873 -0.2424 -0.1826
10458TIP3    H152789   2.858   3.399   0.434 -1.1299 -1.1374 -0.8958
10458TIP3    H252790   2.845   3.550   0.437  1.5654 -0.8539 -1.0680
10459TIP3   OH252791   1.168   3.938  13.038  0.3828  0.5216 -0.3142
10459TIP3    H152792   1.251   3.892  13.025  0.8979  1.3248 -0.0090
10459TIP3    H252793   1.118   3.883  13.098  0.4588 -0.2490 -0.9448
10460TIP3   OH252794   5.234   6.336  14.515 -0.2617  0.0035 -0.5774
10460TIP3    H152795   5.140   6.318  14.521 -0.9116  2.9268 -0.7176
10460TIP3    H252796   5.256   6.321  14.423 -0.5401 -0.7952 -0.5202
10461TIP3   OH252797   4.526   1.721   1.718  0.0762  0.0067  0.7083
10461TIP3    H152798   4.569   1.656   1.663  2.3284  0.6708  1.5459
10461TIP3    H252799   4.482   1.779   1.656 -1.2807 -1.7857 -0.0919
10462TIP3   OH252800   1.731   4.540  15.379  0.3327 -0.2941  0.6009
10462TIP3    H152801   1.773   4.606  15.324  2.7119 -0.6110  1.9204
10462TIP3    H252802   1.716   4.584  15.463 -0.2850 -0.7469  0.7418
10463TIP3   OH252803   0.566   0.062   5.140 -0.4517 -0.0159  0.0685
10463TIP3    H152804   0.484   0.033   5.100 -0.0909 -1.0659  0.0563
10463TIP3    H252805   0.576   0.005   5.216 -0.0680  0.5632  0.4548
10464TIP3   OH252806   2.972   1.474   2.869 -0.0484  0.7419 -0.2690
10464TIP3    H152807   2.955   1.563   2.837  0.2538  0.8284 -0.1903
10464TIP3    H252808   3.065   1.461   2.854  0.0110  0.6269  0.2018
10465TIP3   OH252809   0.385   0.512  16.058 -0.3416 -0.1186  0.2891
10465TIP3    H152810   0.328   0.439  16.080 -1.1852  0.6580  0.7565
10465TIP3    H252811   0.471   0.472  16.041 -1.0262 -1.3110 -0.4818
10466TIP3   OH252812   2.663   4.774   4.388 -0.1757 -0.4214  0.1260
10466TIP3    H152813   2.638   4.831   4.315  0.8555 -0.2847 -0.1422
10466TIP3    H252814   2.638   4.686   4.360 -1.7821 -0.1205  0.5431
10467TIP3   OH252815   5.775   1.484   4.666 -0.1809 -0.2483 -0.5480
10467TIP3    H152816   5.852   1.497   4.610  0.1996  0.0750  0.0443
10467TIP3    H252817   5.808   1.493   4.755 -0.5405 -2.0350 -0.1999
10468TIP3   OH252818   4.550   2.986  14.932  0.3053  0.2091  0.0561
10468TIP3    H152819   4.637   3.025  14.920  1.2312 -2.1222 -1.3849
10468TIP3    H252820   4.567   2.899  14.967 -1.7226  1.0461  3.5750
10469TIP3   OH252821   3.464   5.559   4.240  0.6564 -0.2391 -0.1609
10469TIP3    H152822   3.491   5.468   4.247 -0.0551 -0.4310  0.1374
10469TIP3    H252823   3.522   5.606   4.301  0.7044 -0.5584  0.0392
10470TIP3   OH252824   2.782   1.523   0.373 -0.1001 -0.1005 -0.0823
10470TIP3    H152825   2.716   1.471   0.418 -0.4695 -0.6636 -1.2337
10470TIP3    H252826   2.733   1.575   0.309  0.5584 -0.5478 -0.9766
10471TIP3   OH252827   2.941   2.752   4.789 -0.1800 -0.1666  0.1803
10471TIP3    H152828   2.888   2.828   4.812 -0.0133  0.1404 -0.4247
10471TIP3    H252829   3.031   2.777   4.810 -0.1296 -0.2092  0.0205
10472TIP3   OH252830   6.707   5.481  13.025  0.4600  0.2505  0.3089
10472TIP3    H152831   6.692   5.509  13.115  1.3284 -0.0156  0.5489
10472TIP3    H252832   6.746   5.394  13.033  3.6262  1.4913 -0.1506
10473TIP3   OH252833   3.729   4.810   1.574 -0.0074  0.4931  0.6428
10473TIP3    H152834   3.725   4.805   1.478 -1.7977  0.7932  0.6596
10473TIP3    H252835   3.780   4.889   1.592  0.6043  0.2658 -0.0472
10474TIP3   OH252836   6.644   2.522   6.011  0.4558 -0.1096 -0.0959
10474TIP3    H152837   6.569   2.472   6.042  0.5188 -1.4293 -1.9240
10474TIP3    H252838   6.719   2.483   6.055  0.1825  0.7605  1.2000
10475TIP3   OH252839   2.565   3.076  13.881 -0.0881  0.0202 -0.1863
10475TIP3    H152840   2.472   3.054  13.879 -0.4692  1.5199 -0.3780
10475TIP3    H252841   2.592   3.059  13.971 -0.4559 -0.7788 -0.2258
10476TIP3   OH252842   6.135   5.466  14.826  0.2217  0.0636 -0.7492
10476TIP3    H152843   6.138   5.541  14.767 -1.0969  1.1605  0.5254
10476TIP3    H252844   6.186   5.493  14.902 -2.2626  0.6965  0.7927
10477TIP3   OH252845   1.275   6.025   2.198 -0.1385 -0.1926 -0.5210
10477TIP3    H152846   1.218   6.081   2.249 -0.4472 -0.6101 -0.4010
10477TIP3    H252847   1.312   5.964   2.261  2.6514  1.7747 -0.0598
10478TIP3   OH252848   3.759   0.448  16.963 -0.2512 -0.3008 -0.1899
10478TIP3    H152849   3.775   0.354  16.957 -0.6621 -0.3613 -0.3649
10478TIP3    H252850   3.692   0.456  17.031 -2.1525 -0.3670 -1.9799
10479TIP3   OH252851   1.538   2.611   5.001 -0.0987  0.3174 -0.2549
10479TIP3    H152852   1.463   2.637   5.056 -0.3026 -0.9834  0.1000
10479TIP3    H252853   1.603   2.680   5.016 -0.6539  0.6801  0.5812
10480TIP3   OH252854   4.308   1.856  14.047  0.2680  0.1075 -0.4002
10480TIP3    H152855   4.293   1.798  14.122  1.7907  1.9442  1.4546
10480TIP3    H252856   4.221   1.885  14.021 -0.4464 -2.1474 -0.7380
10481TIP3   OH252857   4.118   4.275   1.810  0.0438 -0.0865 -0.0683
10481TIP3    H152858   4.039   4.275   1.756  0.6032  0.1662 -0.9078
10481TIP3    H252859   4.120   4.362   1.850 -0.4762 -0.3425  0.5368
10482TIP3   OH252860   6.347   2.433   4.854  0.2420  0.3591  0.0778
10482TIP3    H152861   6.254   2.414   4.859  0.2279  0.4940  0.3476
10482TIP3    H252862   6.352   2.517   4.808  0.1756  0.7877  0.8319
10483TIP3   OH252863   2.383   2.461   1.959  0.1343  0.0132 -0.6789
10483TIP3    H152864   2.336   2.536   1.994 -0.9760 -1.1173  0.3386
10483TIP3    H252865   2.423   2.419   2.035  1.1067 -0.2155 -1.2855
10484TIP3   OH252866   2.582   3.099   4.732  0.3109 -0.0356  0.1285
10484TIP3    H152867   2.499   3.050   4.735 -0.0406  0.5952  1.2822
10484TIP3    H252868   2.586   3.134   4.643 -0.6822 -0.0600  0.0641
10485TIP3   OH252869   4.589   2.657   1.324  0.0426 -0.0674 -0.0582
10485TIP3    H152870   4.635   2.740   1.307 -1.9049  1.0776  0.0028
10485TIP3    H252871   4.574   2.658   1.419 -0.3556 -0.2902 -0.1191
10486TIP3   OH252872   1.696   2.972   0.755  0.4066  0.3737 -0.3055
10486TIP3    H152873   1.657   2.944   0.838  0.6084  0.8400 -0.0536
10486TIP3    H252874   1.623   2.969   0.693  0.1682  0.3859 -0.0287
10487TIP3   OH252875   6.556   1.578  13.565 -0.0478 -0.0004 -0.3662
10487TIP3    H152876   6.638   1.563  13.612 -1.6504  1.6412  3.3071
10487TIP3    H252877   6.565   1.667  13.530 -0.5435  0.5532  0.8559
10488TIP3   OH252878   0.393   2.239   4.957  0.8567  0.3680 -0.5554
10488TIP3    H152879   0.364   2.296   4.886 -0.1682  2.3565  1.3341
10488TIP3    H252880   0.331   2.257   5.028  1.1511 -2.3780  0.4912
10489TIP3   OH252881   4.977   1.811  12.802  0.6507 -0.1400 -0.2463
10489TIP3    H152882   5.049   1.807  12.739  0.6571 -1.2392 -0.1762
10489TIP3    H252883   4.902   1.841  12.751  0.8156 -0.3838 -0.6348
10490TIP3   OH252884   5.051   0.739   5.151 -0.7217 -0.4257  0.4980
10490TIP3    H152885   5.084   0.726   5.240 -1.0137  0.3310  0.7221
10490TIP3    H252886   5.117   0.794   5.109  0.1684 -1.9672 -0.2363
10491TIP3   OH252887   4.217   5.906   5.206  0.1903 -0.3781  0.3507
10491TIP3    H152888   4.298   5.941   5.168  0.4376 -1.7439 -0.4409
10491TIP3    H252889   4.151   5.920   5.139 -0.5201  1.6879  1.4005
10492TIP3   OH252890   2.440   5.142  14.178 -0.0415 -0.5902  0.1750
10492TIP3    H152891   2.515   5.126  14.236  1.6509 -0.1809 -1.7690
10492TIP3    H252892   2.439   5.237  14.167  0.2921 -0.7250 -1.1875
10493TIP3   OH252893   0.122   0.987  12.801  0.9074  0.5559  0.0268
10493TIP3    H152894   0.202   0.936  12.789  0.3556 -0.6922  1.3583
10493TIP3    H252895   0.123   1.013  12.893  0.8124  2.4179 -0.4449
10494TIP3   OH252896   0.873   0.172  11.138  0.3810  0.3687 -0.8161
10494TIP3    H152897   0.861   0.224  11.218  2.1513  1.4450 -1.1933
10494TIP3    H252898   0.784   0.155  11.107 -0.3974 -0.7004  1.7412
10495TIP3   OH252899   4.388   0.370  13.827 -0.3196  0.3429  0.2682
10495TIP3    H152900   4.480   0.347  13.840 -1.1621 -2.0163  2.9742
10495TIP3    H252901   4.372   0.441  13.888 -1.0643 -1.7238  2.6262
10496TIP3   OH252902   6.487   3.662  14.425  0.5578 -0.1788  0.3292
10496TIP3    H152903   6.507   3.728  14.359  0.2812  0.6286  1.0400
10496TIP3    H252904   6.408   3.619  14.393 -0.0037  0.7126  0.4931
10497TIP3   OH252905   3.761   2.181  11.186  0.3934 -0.2674  0.3298
10497TIP3    H152906   3.682   2.128  11.178  0.0139  0.1330  1.3649
10497TIP3    H252907   3.752   2.247  11.117  0.2560 -0.7586 -0.1285
10498TIP3   OH252908   0.961   4.722   5.376  0.1406 -0.0934 -0.0995
10498TIP3    H152909   0.967   4.631   5.346  2.4422  0.0901 -0.3896
10498TIP3    H252910   0.939   4.772   5.297 -1.4530 -0.3916  0.1238
10499TIP3   OH252911   5.536   6.493   3.255  0.1316 -0.4955  0.3235
10499TIP3    H152912   5.596   6.511   3.182  0.4214 -0.4063  0.5826
10499TIP3    H252913   5.588   6.511   3.333 -0.2945 -0.2268  0.5486
10500TIP3   OH252914   2.476   0.409   2.922 -0.0445  0.1340  0.5256
10500TIP3    H152915   2.534   0.358   2.979  1.1513 -0.2618 -0.9616
10500TIP3    H252916   2.534   0.471   2.878 -0.4368 -1.0714 -1.9191
10501TIP3   OH252917   2.264   0.143  14.576 -0.4055 -0.7096 -0.0866
10501TIP3    H152918   2.190   0.138  14.515  0.0511 -4.6419 -0.5621
10501TIP3    H252919   2.254   0.066  14.633  2.3789 -0.4228  0.9675
10502TIP3   OH252920   3.260   5.972   1.367 -0.4126  0.7698  0.8842
10502TIP3    H152921   3.275   5.940   1.278  1.9895  0.9261  1.1784
10502TIP3    H252922   3.237   5.894   1.417  0.5457  0.2762  0.5786
10503TIP3   OH252923   6.064   1.231   1.834  0.4324  0.3078  0.1797
10503TIP3    H152924   6.108   1.262   1.755  1.2918  1.3792  1.0568
10503TIP3    H252925   6.056   1.137   1.821  3.0732  0.0366 -0.0005
10504TIP3   OH252926   2.370   4.191   0.364  0.3293 -0.1417 -0.8213
10504TIP3    H152927   2.365   4.165   0.272 -0.8075 -3.4289  0.0610
10504TIP3    H252928   2.279   4.194   0.393  0.6738 -4.2352  1.3380
10505TIP3   OH252929   2.248   3.000   2.088  0.6049  0.2659 -0.0342
10505TIP3    H152930   2.337   3.032   2.102  0.8235 -0.9284  1.5507
10505TIP3    H252931   2.226   3.028   1.999  2.7884  0.0631 -0.6807
10506TIP3   OH252932   4.551   2.212   3.092  0.5051  0.1580  0.3638
10506TIP3    H152933   4.594   2.128   3.099 -0.0363 -0.1302  0.3218
10506TIP3    H252934   4.488   2.201   3.020 -1.8470 -0.4394  2.3612
10507TIP3   OH252935   5.598   3.031   1.087 -1.2736  0.1359  0.3295
10507TIP3    H152936   5.516   3.026   1.136 -0.8352 -1.4690  0.9659
10507TIP3    H252937   5.666   3.012   1.151 -0.6810 -2.0095 -0.8407
10508TIP3   OH252938   5.720   1.788   2.102 -0.3397  0.1964 -0.6776
10508TIP3    H152939   5.674   1.736   2.036  0.1439 -0.1025 -0.7797
10508TIP3    H252940   5.735   1.873   2.060 -2.2298  0.8699 -0.0856
10509TIP3   OH252941   1.973   1.119   5.601 -0.4536 -0.1672  0.2178
10509TIP3    H152942   1.886   1.097   5.568 -1.4889  0.6025  2.2704
10509TIP3    H252943   1.993   1.050   5.664  1.4574 -1.5658 -1.7481
10510TIP3   OH252944   1.319   1.136   4.888  0.4447 -0.2755 -0.3148
10510TIP3    H152945   1.259   1.065   4.866  1.5651 -1.1390 -0.6802
10510TIP3    H252946   1.337   1.179   4.804 -1.1576  1.2484  0.0575
10511TIP3   OH252947   2.593   5.302   0.734  0.1030 -0.2218 -0.0247
10511TIP3    H152948   2.672   5.349   0.762 -0.5767  1.2174 -0.4375
10511TIP3    H252949   2.525   5.369   0.731 -1.2691 -1.5222  0.7779
10512TIP3   OH252950   1.221   4.572  12.858  0.6930 -0.1748  0.3553
10512TIP3    H152951   1.219   4.556  12.763 -0.5784 -0.4431  0.4186
10512TIP3    H252952   1.269   4.497  12.894  1.7783  0.2572 -0.1131
10513TIP3   OH252953   3.670   1.403  13.687  0.3814  0.4464  0.0246
10513TIP3    H152954   3.653   1.309  13.693  0.9107  0.2828 -0.8416
10513TIP3    H252955   3.750   1.417  13.738  1.2095  0.1404 -1.1355
10514TIP3   OH252956   4.956   4.537   1.288 -0.6689  0.8070 -0.2803
10514TIP3    H152957   5.028   4.474   1.276 -0.9067  0.1737  1.3777
10514TIP3    H252958   4.883   4.498   1.241 -0.5589  0.2712 -0.0222
10515TIP3   OH252959   4.297   4.111   6.344  0.1063 -0.3092  0.1631
10515TIP3    H152960   4.271   4.194   6.304 -1.1028  0.5555  2.5285
10515TIP3    H252961   4.227   4.050   6.320 -1.1754  0.4769  1.6423
10516TIP3   OH252962   0.061   5.865  14.593  0.2739  0.2349 -0.1365
10516TIP3    H152963   0.051   5.960  14.589  1.0404  0.3376  0.2177
10516TIP3    H252964   0.107   5.849  14.675 -1.0516 -0.5598  0.4858
10517TIP3   OH252965   6.622   1.278   5.468 -0.7760  0.4750  0.3939
10517TIP3    H152966   6.559   1.309   5.403 -0.3171  0.3565 -0.1203
10517TIP3    H252967   6.615   1.183   5.465  1.0846  0.3060 -1.4249
10518TIP3   OH252968   4.604   2.397   2.567 -0.3443  0.2111  0.4235
10518TIP3    H152969   4.670   2.328   2.562 -0.5315 -0.0219  1.0158
10518TIP3    H252970   4.587   2.407   2.661 -0.9207  0.4820  0.2944
10519TIP3   OH252971   5.118   5.710   2.027 -0.4128 -0.1117  0.7629
10519TIP3    H152972   5.161   5.793   2.045  1.1333 -1.0520  1.5467
10519TIP3    H252973   5.057   5.697   2.100 -1.3110  0.7263  0.1838
10520TIP3   OH252974   4.167   3.198  11.486  0.3566  0.1847 -0.7510
10520TIP3    H152975   4.162   3.239  11.400 -0.7122  0.1423 -0.7116
10520TIP3    H252976   4.252   3.226  11.520  0.4260  0.8843 -1.4678
10521TIP3   OH252977   0.331   4.520  11.968 -0.2181  0.4497 -0.0729
10521TIP3    H152978   0.293   4.445  12.013 -0.6267 -0.0976 -1.3005
10521TIP3    H252979   0.351   4.488  11.880  1.1923  1.3052 -0.0932
10522TIP3   OH252980   2.610   4.684   2.684  0.3440 -0.6343 -0.5234
10522TIP3    H152981   2.684   4.728   2.642 -0.3955  0.5685 -0.6161
10522TIP3    H252982   2.620   4.705   2.777  0.9939 -1.8156 -0.3096
10523TIP3   OH252983   4.596   6.051  15.236 -0.5034  0.8072 -0.3591
10523TIP3    H152984   4.504   6.063  15.261 -0.3701  0.4127  0.3436
10523TIP3    H252985   4.600   5.963  15.201  0.1573 -0.3663  2.3951
10524TIP3   OH252986   0.639   4.941  12.533 -0.0518  0.0073 -0.1962
10524TIP3    H152987   0.698   4.916  12.462 -2.2088 -0.7262 -1.8212
10524TIP3    H252988   0.622   4.859  12.580  0.0299  0.1849  0.1529
10525TIP3   OH252989   0.399   3.962   3.875  0.1172  0.1494 -0.6857
10525TIP3    H152990   0.457   3.891   3.847  1.5960  1.0690 -0.0960
10525TIP3    H252991   0.379   4.010   3.795  1.7218  0.9006 -0.6761
10526TIP3   OH252992   1.660   4.958  15.653 -0.9155 -0.2690 -0.1390
10526TIP3    H152993   1.691   4.988  15.567 -1.9374 -1.7125 -1.0400
10526TIP3    H252994   1.586   5.016  15.673 -0.9188 -0.1764 -0.4136
10527TIP3   OH252995   1.068   3.670  17.038 -0.2483 -0.3862  0.0134
10527TIP3    H152996   1.098   3.636  16.954  1.1602 -1.6367  0.9728
10527TIP3    H252997   1.127   3.630  17.103 -1.8670 -0.1863  1.6884
10528TIP3   OH252998   2.324   0.745  11.995 -0.2930  0.5461 -0.2316
10528TIP3    H152999   2.295   0.822  12.043 -0.2987  0.7281 -0.5277
10528TIP3    H253000   2.408   0.722  12.035 -1.1980 -0.4905  1.2032
10529TIP3   OH253001   1.131   4.146   1.335 -0.3268  0.9253 -0.5980
10529TIP3    H153002   1.162   4.097   1.412  0.7978  0.0190 -1.5887
10529TIP3    H253003   1.036   4.139   1.339 -0.2602  0.3403  0.3685
10530TIP3   OH253004   0.286   6.283  16.596 -0.6271 -0.0038 -0.1470
10530TIP3    H153005   0.356   6.277  16.532 -2.2915 -2.1092 -1.9179
10530TIP3    H253006   0.273   6.377  16.609  2.2241  0.4581  0.0386
10531TIP3   OH253007   1.168   3.493  13.968  0.7613 -0.0535  0.2079
10531TIP3    H153008   1.168   3.570  14.024  3.4238 -0.6917  1.2066
10531TIP3    H253009   1.242   3.440  13.997  0.9568 -1.4966 -2.4899
10532TIP3   OH253010   6.165   3.226   5.073  0.2601 -0.4552 -0.2265
10532TIP3    H153011   6.108   3.217   4.996  0.3413 -0.9657 -0.2251
10532TIP3    H253012   6.159   3.319   5.095  1.4166  0.0232 -1.7667
10533TIP3   OH253013   1.977   6.173   6.011  0.0844  0.2763  0.0659
10533TIP3    H153014   1.897   6.226   6.005 -0.1417  0.0391  0.7744
10533TIP3    H253015   1.963   6.120   6.089  0.8120  0.0140  0.0196
10534TIP3   OH253016   5.268   4.274   4.991 -0.4298 -0.2202 -0.0426
10534TIP3    H153017   5.342   4.294   4.933  0.2786 -3.4218 -0.4331
10534TIP3    H253018   5.307   4.270   5.079  0.1821 -2.7658 -0.3458
10535TIP3   OH253019   0.089   5.440  15.988  0.1211  0.0804  0.0784
10535TIP3    H153020   0.006   5.430  16.034 -0.0058  1.9313  0.3027
10535TIP3    H253021   0.117   5.529  16.007  1.7557 -0.2362 -0.6763
10536TIP3   OH253022   0.705   1.963  12.759 -0.6098 -0.0763 -0.3679
10536TIP3    H153023   0.726   1.885  12.811 -3.2155 -0.9172 -0.4380
10536TIP3    H253024   0.744   1.945  12.674 -0.4706 -0.9362 -0.1352
10537TIP3   OH253025   5.192   1.667   4.802  0.1300  0.4427  0.4721
10537TIP3    H153026   5.111   1.623   4.776  0.1062  1.1164 -0.6365
10537TIP3    H253027   5.255   1.645   4.733  1.4739 -1.5608  2.1884
10538TIP3   OH253028   1.438   3.538  13.401  0.0778 -0.2002  0.0350
10538TIP3    H153029   1.479   3.470  13.347  2.8553  0.3505  1.2473
10538TIP3    H253030   1.481   3.619  13.372 -0.3673  0.4677  1.1982
10539TIP3   OH253031   2.440   5.488   5.751 -0.3555 -0.1939 -0.2975
10539TIP3    H153032   2.510   5.516   5.691 -0.3426  1.4977  0.4504
10539TIP3    H253033   2.361   5.489   5.698 -0.2520  0.7226 -0.4572
10540TIP3   OH253034   5.083   1.008  13.230  0.3020  0.2288 -0.6895
10540TIP3    H153035   5.008   1.064  13.210  0.4719  0.6261 -0.2273
10540TIP3    H253036   5.135   1.058  13.292  2.0070  0.8759 -2.5035
10541TIP3   OH253037   4.983   0.846   3.185  0.1370 -0.0594 -0.5189
10541TIP3    H153038   4.942   0.928   3.214 -0.3513 -0.1085 -1.0507
10541TIP3    H253039   5.074   0.870   3.168  0.1403  0.2381 -0.1088
10542TIP3   OH253040   1.693   6.274  13.777 -0.6060 -0.5333  0.2390
10542TIP3    H153041   1.701   6.203  13.713  0.6227 -0.8620  0.7352
10542TIP3    H253042   1.703   6.354  13.725  0.6545 -0.8049  0.0332
10543TIP3   OH253043   2.569   5.554  11.724 -0.3440  0.1400 -0.2223
10543TIP3    H153044   2.475   5.565  11.716 -0.5304 -0.9163  0.3102
10543TIP3    H253045   2.586   5.559  11.818 -0.4236 -3.3523  0.1141
10544TIP3   OH253046   3.069   2.236   0.825  0.0213 -0.2256 -0.4443
10544TIP3    H153047   3.143   2.181   0.848  0.8274  0.6435 -0.8635
10544TIP3    H253048   3.030   2.194   0.748 -0.5203 -1.2043  0.3488
10545TIP3   OH253049   2.055   5.981  13.635  0.0087 -0.0341  0.0478
10545TIP3    H153050   2.022   6.071  13.640  0.7329  0.1609  1.7811
10545TIP3    H253051   2.102   5.968  13.717  1.8572 -1.2459 -1.1423
10546TIP3   OH253052   2.290   5.138   1.736  0.1055  0.0588  0.2459
10546TIP3    H153053   2.267   5.049   1.710  0.4442 -0.4757  1.6946
10546TIP3    H253054   2.216   5.168   1.789  1.1081 -0.3677  1.9651
10547TIP3   OH253055   3.737   2.081   4.047 -0.1663 -0.3471 -0.1023
10547TIP3    H153056   3.825   2.069   4.081 -0.4395  1.0719  1.1990
10547TIP3    H253057   3.698   1.993   4.050  0.7512 -0.7479  0.5951
10548TIP3   OH253058   4.847   6.392  15.975 -0.1735 -0.5126 -0.1038
10548TIP3    H153059   4.773   6.359  15.924 -0.8645  0.7223  0.0535
10548TIP3    H253060   4.925   6.365  15.926 -0.7894 -0.2364 -1.2821
10549TIP3   OH253061   3.788   0.067   4.717  0.0766 -0.6555  0.2345
10549TIP3    H153062   3.869   0.112   4.740  0.4153 -0.5857 -1.0680
10549TIP3    H253063   3.753   0.038   4.802  0.9063  0.2308  0.9084
10550TIP3   OH253064   0.870   5.759   1.348  0.2267  0.1278 -0.5968
10550TIP3    H153065   0.846   5.774   1.257  0.9692  0.8373 -0.6865
10550TIP3    H253066   0.845   5.668   1.365 -1.0395  0.3488 -1.1365
10551TIP3   OH253067   5.703   1.915  16.457 -0.4254 -0.8892  0.7816
10551TIP3    H153068   5.753   1.985  16.499 -1.4583  1.4507 -1.5752
10551TIP3    H253069   5.623   1.908  16.509 -0.1332 -0.6282  1.2741
10552TIP3   OH253070   3.540   5.675  14.431 -0.5652  0.2230  0.5476
10552TIP3    H153071   3.525   5.768  14.414 -2.8900 -0.2842 -0.6587
10552TIP3    H253072   3.491   5.657  14.512 -0.0410  0.0679  0.8324
10553TIP3   OH253073   2.862   0.257  11.268 -0.1306 -0.2353  0.2698
10553TIP3    H153074   2.957   0.259  11.265 -0.0922  1.7473  1.4331
10553TIP3    H253075   2.835   0.349  11.267 -1.9476 -0.6877  1.8708
10554TIP3   OH253076   4.805   5.965  12.568 -0.1886  0.3872 -0.6349
10554TIP3    H153077   4.778   5.923  12.486  1.5738  0.4999 -1.3271
10554TIP3    H253078   4.888   5.923  12.590 -0.1197  1.0983  0.5384
10555TIP3   OH253079   3.795   4.097  14.430 -0.2760  0.4153  0.3304
10555TIP3    H153080   3.781   4.020  14.374  1.0153  0.7716 -0.5217
10555TIP3    H253081   3.837   4.161  14.373  1.5987  0.6077  1.8293
10556TIP3   OH253082   5.300   1.865   4.385  1.1063  0.1091 -0.0878
10556TIP3    H153083   5.286   1.901   4.472  0.3983 -1.9215  0.6871
10556TIP3    H253084   5.341   1.937   4.336  0.0641  1.8293  1.4256
10557TIP3   OH253085   1.580   2.782  16.475  0.9081  0.0106 -0.1136
10557TIP3    H153086   1.647   2.736  16.425  0.7543  0.2046 -0.5051
10557TIP3    H253087   1.621   2.866  16.498  0.8631  0.0571 -0.2016
10558TIP3   OH253088   0.728   6.061  14.469  0.2412  0.2212  0.2209
10558TIP3    H153089   0.765   5.973  14.480 -1.4235 -0.3472  1.6211
10558TIP3    H253090   0.785   6.117  14.522  0.8507 -0.1194 -0.0559
10559TIP3   OH253091   2.993   4.631   1.979  0.2073  0.4122  0.1130
10559TIP3    H153092   3.035   4.715   1.960 -2.2620  1.0588 -3.5899
10559TIP3    H253093   3.024   4.608   2.066  2.8146  3.9941  0.3719
10560TIP3   OH253094   5.055   4.796  13.439  0.0799  0.1771 -0.3761
10560TIP3    H153095   5.125   4.860  13.423  0.1329  0.2075 -0.0264
10560TIP3    H253096   5.101   4.713  13.453  0.1088  0.3784  0.8154
10561TIP3   OH253097   2.316   2.564  10.643  0.2389  0.6373  0.1357
10561TIP3    H153098   2.398   2.614  10.645  0.0365  0.9601  1.2114
10561TIP3    H253099   2.302   2.545  10.550  1.3284  0.9082 -0.1067
10562TIP3   OH253100   6.259   4.762   2.447 -0.3014  0.3322  0.2360
10562TIP3    H153101   6.328   4.759   2.513 -2.1657 -1.6684  2.2855
10562TIP3    H253102   6.289   4.702   2.378  0.1135 -0.3719  1.0076
10563TIP3   OH253103   0.859   3.852   4.686 -0.1392 -1.0190 -0.8201
10563TIP3    H153104   0.841   3.810   4.769  0.3449 -2.0921 -1.2371
10563TIP3    H253105   0.800   3.927   4.683 -0.8379 -1.5252  0.0569
10564TIP3   OH253106   3.661   3.609  11.863  0.0222  0.0117 -0.0167
10564TIP3    H153107   3.738   3.570  11.824  1.0673  2.5992 -0.7283
10564TIP3    H253108   3.644   3.688  11.811 -1.4234  0.9998  1.8060
10565TIP3   OH253109   2.938   4.707  11.506 -0.3847  0.3155 -0.4039
10565TIP3    H153110   2.872   4.751  11.559  0.9040  2.3638 -0.4051
10565TIP3    H253111   2.920   4.736  11.417 -0.3572 -0.2820 -0.6091
10566TIP3   OH253112   2.777   2.087  16.566  0.3400  0.4255 -0.3621
10566TIP3    H153113   2.779   2.177  16.532  0.1506  0.3416 -0.5969
10566TIP3    H253114   2.744   2.035  16.493  1.4403  0.0054 -0.5901
10567TIP3   OH253115   0.959   5.712  15.196  0.3367 -0.2722 -0.0837
10567TIP3    H153116   0.872   5.685  15.225 -0.6430  1.7261 -0.9719
10567TIP3    H253117   0.960   5.697  15.102  0.0072  1.9429 -0.4937
10568TIP3   OH253118   2.189   5.405   5.658 -0.3802 -0.5250  0.5280
10568TIP3    H153119   2.227   5.348   5.591 -1.9777 -0.5115 -0.4540
10568TIP3    H253120   2.103   5.429   5.623 -0.2781  1.4716  1.4888
10569TIP3   OH253121   4.871   3.593  12.330 -0.2316 -0.3859  0.3684
10569TIP3    H153122   4.823   3.510  12.326 -2.5283  0.9060 -1.3567
10569TIP3    H253123   4.806   3.660  12.308  1.8626  1.7494  0.2345
10570TIP3   OH253124   0.934   5.414   2.140  0.3403  0.1779  0.0789
10570TIP3    H153125   0.842   5.432   2.160 -0.1656 -2.1780  0.2342
10570TIP3    H253126   0.937   5.406   2.045  0.8549  2.2296 -0.1293
10571TIP3   OH253127   2.478   4.798   4.589  0.3904 -0.3190 -0.1256
10571TIP3    H153128   2.502   4.868   4.649 -1.0833  0.2170 -0.1291
10571TIP3    H253129   2.532   4.812   4.512 -0.4584  1.3227 -0.4544
10572TIP3   OH253130   1.955   0.821   4.830 -0.6441  0.2909 -0.5798
10572TIP3    H153131   1.957   0.725   4.837  0.1275  0.3780  0.6407
10572TIP3    H253132   1.968   0.852   4.920 -0.0906  1.5548 -1.0732
10573TIP3   OH253133   4.482   2.417  11.719  0.4011 -0.0641 -0.2284
10573TIP3    H153134   4.423   2.362  11.770  2.2109 -0.7511  1.2505
10573TIP3    H253135   4.460   2.507  11.744 -0.4104 -0.2794 -0.1709
10574TIP3   OH253136   2.761   0.388   5.802  0.0874  0.4372  0.1116
10574TIP3    H153137   2.757   0.437   5.885 -4.1017 -1.0512  1.0393
10574TIP3    H253138   2.746   0.297   5.827  3.7536 -0.9437 -1.9560
10575TIP3   OH253139   3.879   6.748   2.024 -0.2740  0.1591  0.7953
10575TIP3    H153140   3.828   6.681   2.069  1.0330 -1.0781  0.5266
10575TIP3    H253141   3.943   6.777   2.089  0.0133  0.1812  0.5032
10576TIP3   OH253142   1.588   2.308  15.003 -0.1817 -0.4671 -0.1448
10576TIP3    H153143   1.661   2.370  14.999 -2.4872  2.4222 -0.4156
10576TIP3    H253144   1.617   2.242  15.066  2.2385  1.1374  0.5879
10577TIP3   OH253145   1.026   0.051   2.195  0.3538  0.3110  0.2298
10577TIP3    H153146   1.059   0.027   2.109  0.2095 -1.7150  0.6727
10577TIP3    H253147   1.042   0.145   2.203  2.7289  0.0726 -0.9876
10578TIP3   OH253148   5.572   0.200   5.735 -0.0240  0.0875 -0.2354
10578TIP3    H153149   5.543   0.287   5.765 -1.1419 -0.3477 -0.0011
10578TIP3    H253150   5.549   0.198   5.642 -2.8205 -1.0298  0.3878
10579TIP3   OH253151   4.417   1.299  14.553  0.5772 -0.5633  0.3901
10579TIP3    H153152   4.364   1.285  14.632 -0.5262  0.2875 -0.1602
10579TIP3    H253153   4.412   1.394  14.538  0.9518 -0.6883 -0.5680
10580TIP3   OH253154   6.591   2.889  16.657 -0.1682 -0.8057 -0.7827
10580TIP3    H153155   6.502   2.865  16.681  0.0657 -0.4180  0.5711
10580TIP3    H253156   6.600   2.980  16.686  1.1080 -1.2863  0.4806
10581TIP3   OH253157   4.781   1.375  14.426 -0.3866 -0.3194 -0.1050
10581TIP3    H153158   4.833   1.352  14.349 -1.4218 -1.2861 -0.5392
10581TIP3    H253159   4.728   1.450  14.398 -1.0707 -0.9336 -0.4909
10582TIP3   OH253160   4.255   3.825  11.316  0.6204  0.4040 -0.0676
10582TIP3    H153161   4.223   3.883  11.247  1.3226  0.8825 -0.0077
10582TIP3    H253162   4.256   3.880  11.395 -0.1273 -0.1211  0.3193
10583TIP3   OH253163   5.746   1.899  12.774  0.4520 -0.2644  0.0166
10583TIP3    H153164   5.807   1.901  12.848  0.0684  2.7456  0.3540
10583TIP3    H253165   5.673   1.845  12.805 -0.0398  1.5206  2.1901
10584TIP3   OH253166   2.340   1.033  17.160 -0.2223  0.5639  0.5123
10584TIP3    H153167   2.362   0.962  17.100 -1.3003 -0.2796  1.0649
10584TIP3    H253168   2.424   1.064  17.194  0.3046  0.0243 -0.2761
10585TIP3   OH253169   5.910   3.848  15.935  0.6026  0.7676  0.3688
10585TIP3    H153170   5.976   3.782  15.953  0.7417  0.8083  0.0108
10585TIP3    H253171   5.841   3.802  15.888  0.6210  0.8415  0.2687
10586TIP3   OH253172   4.522   3.829  13.497  0.0800 -0.1242  0.1192
10586TIP3    H153173   4.505   3.839  13.590  1.5065 -0.5981  0.4651
10586TIP3    H253174   4.558   3.740  13.489 -2.5086 -1.1602 -1.2896
10587TIP3   OH253175   4.179   1.579   4.148 -0.3123 -0.2643 -0.1350
10587TIP3    H153176   4.216   1.543   4.229  0.2978  1.1145  0.2139
10587TIP3    H253177   4.107   1.635   4.176  0.1683  0.5595 -0.5030
10588TIP3   OH253178   2.846   4.403  15.853  0.3059  0.4102 -0.1516
10588TIP3    H153179   2.900   4.440  15.784 -1.7031 -1.1174 -2.7284
10588TIP3    H253180   2.765   4.378  15.809 -0.4307 -2.2615  2.4146
10589TIP3   OH253181   3.977   3.255   0.561  0.1213 -0.5828 -0.0387
10589TIP3    H153182   3.927   3.321   0.610 -0.2762 -1.2162  0.4251
10589TIP3    H253183   3.952   3.269   0.470 -2.0559 -1.7983  0.3054
10590TIP3   OH253184   4.554   4.381   4.117  0.3254 -0.0476  0.0839
10590TIP3    H153185   4.480   4.442   4.123 -0.2999 -0.6935 -0.8613
10590TIP3    H253186   4.560   4.342   4.204 -0.3060  0.1749  0.2312
10591TIP3   OH253187   2.825   3.951   2.606  0.4076 -0.2328  0.2494
10591TIP3    H153188   2.836   3.917   2.694 -0.1217  0.4294  0.5813
10591TIP3    H253189   2.880   4.030   2.604  0.1747 -0.0730  0.0941
10592TIP3   OH253190   0.427   5.004  16.531  0.2324  0.0381  0.0662
10592TIP3    H153191   0.517   5.010  16.499 -0.0745  0.1122 -0.7948
10592TIP3    H253192   0.437   4.984  16.625  1.1403 -0.7900 -0.1823
10593TIP3   OH253193   0.943   1.443  16.317  0.3780  0.0159  0.1475
10593TIP3    H153194   0.851   1.465  16.332  0.1014 -0.6790 -0.4539
10593TIP3    H253195   0.955   1.359  16.361  0.3798 -0.5165 -0.8430
10594TIP3   OH253196   1.529   0.876  12.378  0.2911  0.3135  0.5937
10594TIP3    H153197   1.478   0.798  12.356  1.0719 -0.9174  2.8431
10594TIP3    H253198   1.589   0.887  12.303 -1.4749  0.2822 -0.8983
10595TIP3   OH253199   3.939   6.172   1.094 -0.1066  0.5412 -0.5905
10595TIP3    H153200   3.997   6.218   1.155  0.8083 -1.1921 -0.1027
10595TIP3    H253201   3.894   6.106   1.147 -0.3535 -0.0733 -1.5275
10596TIP3   OH253202   1.686   2.116   3.246  0.0690 -0.0998 -0.6756
10596TIP3    H153203   1.608   2.150   3.290  0.8909 -0.1529  0.8686
10596TIP3    H253204   1.756   2.175   3.272  1.4287 -2.5154  1.6186
10597TIP3   OH253205   5.559   3.696  15.123 -0.1884 -0.4618 -0.5098
10597TIP3    H153206   5.509   3.639  15.181 -0.1434 -0.4827 -0.4920
10597TIP3    H253207   5.597   3.762  15.181  0.3669 -0.8403 -0.4337
10598TIP3   OH253208   0.720   4.026   3.733  0.1114 -0.3196 -0.1672
10598TIP3    H153209   0.705   3.936   3.705  2.8026 -1.0534  0.4628
10598TIP3    H253210   0.748   4.018   3.824  0.3691  1.1654 -0.0945
10599TIP3   OH253211   0.296   1.548  12.681  0.2613 -0.6083  0.1012
10599TIP3    H153212   0.278   1.548  12.587  1.5785 -0.8992 -0.1662
10599TIP3    H253213   0.236   1.483  12.717 -1.2448  0.5011 -0.3177
10600TIP3   OH253214   6.777   1.610  15.135 -0.7816  0.1062  0.4493
10600TIP3    H153215   6.791   1.675  15.067 -2.2904  1.6312  1.5164
10600TIP3    H253216   6.795   1.526  15.092  0.0530  1.1241 -1.2947
10601TIP3   OH253217   2.789   5.815  13.657 -0.0018 -0.0649  0.4512
10601TIP3    H153218   2.709   5.790  13.703 -0.4214 -2.9861 -1.5593
10601TIP3    H253219   2.857   5.760  13.696  0.5683  0.7400  0.6050
10602TIP3   OH253220   1.856   2.409  11.051 -0.1097  0.0875  0.2093
10602TIP3    H153221   1.771   2.366  11.037 -0.8300  1.1810  1.0108
10602TIP3    H253222   1.875   2.451  10.968  1.2760 -2.7679 -1.0694
10603TIP3   OH253223   5.718   6.157  14.041 -0.4903 -0.2403 -0.4832
10603TIP3    H153224   5.766   6.074  14.036  0.3697  0.0592  1.7481
10603TIP3    H253225   5.628   6.131  14.061 -0.2316 -0.6672  0.1727
10604TIP3   OH253226   0.795   1.417   1.191 -0.7389  0.5106  0.3701
10604TIP3    H153227   0.823   1.387   1.277  0.6676  0.6858  0.0034
10604TIP3    H253228   0.850   1.493   1.173 -1.4281  0.8360 -0.4252
10605TIP3   OH253229   3.904   5.938  12.053  0.0995 -0.0948 -0.0230
10605TIP3    H153230   3.954   6.005  12.007  1.6420 -0.9867  0.2755
10605TIP3    H253231   3.923   5.954  12.146 -2.5281  1.3417  0.3533
10606TIP3   OH253232   4.725   4.022   3.769  0.4904 -0.2564 -0.3190
10606TIP3    H153233   4.802   4.066   3.732 -0.4807  2.3245  0.5413
10606TIP3    H253234   4.650   4.066   3.730 -0.6300 -2.4515 -0.8235
10607TIP3   OH253235   6.708   5.518   6.080 -0.0504  0.0293 -0.3753
10607TIP3    H153236   6.749   5.599   6.051  0.5604  0.4948  1.6111
10607TIP3    H253237   6.754   5.449   6.033  0.2996  0.7685 -1.1271
10608TIP3   OH253238   3.162   2.731  11.359  0.3918 -0.7939  0.5304
10608TIP3    H153239   3.072   2.743  11.387 -0.2976 -0.9833 -1.4508
10608TIP3    H253240   3.209   2.804  11.399 -0.6580 -0.5882  1.4447
10609TIP3   OH253241   5.441   2.673  13.541  0.1658 -0.1040  0.1770
10609TIP3    H153242   5.356   2.700  13.576  0.2855  1.8403 -0.9053
10609TIP3    H253243   5.482   2.625  13.612 -2.0414 -1.5970  0.5455
10610TIP3   OH253244   4.491   3.344   1.609  0.4049  0.3430 -0.3919
10610TIP3    H153245   4.516   3.433   1.635 -0.7886  0.5247  0.2119
10610TIP3    H253246   4.457   3.304   1.689 -2.4339  0.5845 -1.3439
10611TIP3   OH253247   1.172   4.713  14.960  0.1761  0.3958 -0.8193
10611TIP3    H153248   1.142   4.623  14.948  0.8878 -0.1490  1.1159
10611TIP3    H253249   1.267   4.709  14.950  0.5082  0.4032  1.6080
10612TIP3   OH253250   1.207   1.545   3.780  0.6179  0.2713  0.7076
10612TIP3    H153251   1.242   1.621   3.826 -0.1424  1.0233  0.0782
10612TIP3    H253252   1.233   1.558   3.689  0.6763 -0.3453  0.6310
10613TIP3   OH253253   3.804   6.360   2.901  0.1370 -0.3100 -0.4778
10613TIP3    H153254   3.714   6.331   2.892 -0.4771  1.2516  0.2237
10613TIP3    H253255   3.826   6.397   2.815 -0.3267  0.3857 -0.3117
10614TIP3   OH253256   5.502   0.408  16.228 -0.1166  0.1721 -0.4204
10614TIP3    H153257   5.447   0.470  16.276  0.0838 -1.6185  2.3440
10614TIP3    H253258   5.442   0.366  16.166 -1.1761  0.4144  0.3995
10615TIP3   OH253259   0.812   1.192   3.271 -0.0798  0.0192  0.3336
10615TIP3    H153260   0.778   1.227   3.189 -1.5729  0.4227  1.0883
10615TIP3    H253261   0.754   1.227   3.338  0.6927 -0.8511  1.4982
10616TIP3   OH253262   0.272   1.677   4.527 -0.2939  0.1625  0.0347
10616TIP3    H153263   0.328   1.616   4.479  0.3571  1.0062 -0.3057
10616TIP3    H253264   0.305   1.675   4.617 -0.0408  0.2678 -0.0539
10617TIP3   OH253265   4.862   2.892   1.357  0.2133  0.3408 -0.1614
10617TIP3    H153266   4.781   2.907   1.308  0.4113 -1.7441 -1.2456
10617TIP3    H253267   4.920   2.964   1.330 -0.8353  1.1647 -0.2986
10618TIP3   OH253268   3.413   5.666  13.405 -0.1270  0.3939  0.3306
10618TIP3    H153269   3.469   5.742  13.388 -1.3026  0.8688 -1.9183
10618TIP3    H253270   3.463   5.592  13.372  0.1017  0.5271  0.3806
10619TIP3   OH253271   2.941   3.498   5.923 -0.3233 -0.1950 -0.0547
10619TIP3    H153272   2.967   3.414   5.883 -0.5423  0.5906 -1.9074
10619TIP3    H253273   2.850   3.486   5.947 -0.1983 -0.6683  0.2005
10620TIP3   OH253274   6.425   4.063  14.779  0.3275  0.2830 -0.3669
10620TIP3    H153275   6.400   3.985  14.729 -0.7456  0.3975 -0.0258
10620TIP3    H253276   6.516   4.047  14.804  0.2024 -0.7355 -0.5304
10621TIP3   OH253277   3.894   1.076   2.353 -0.0062 -0.0674  0.6841
10621TIP3    H153278   3.895   1.142   2.283  0.1485 -0.9083 -0.1417
10621TIP3    H253279   3.984   1.075   2.386  0.4016 -0.9021 -0.3557
10622TIP3   OH253280   2.468   0.655   6.333 -0.6194 -0.1163 -0.0087
10622TIP3    H153281   2.382   0.643   6.372  0.6697 -3.1070  2.3444
10622TIP3    H253282   2.479   0.580   6.275  0.9296 -0.7179  0.9825
10623TIP3   OH253283   5.854   2.950  11.004 -0.0331  0.0076 -0.3766
10623TIP3    H153284   5.763   2.979  10.998  0.0404  1.2561  2.5689
10623TIP3    H253285   5.905   3.024  10.973 -0.0008 -0.3474 -1.1736
10624TIP3   OH253286   6.744   5.920  17.195 -0.1030 -0.5980 -0.4521
10624TIP3    H153287   6.676   5.857  17.171  1.3136 -1.7250 -1.6853
10624TIP3    H253288   6.753   5.975  17.117 -0.6217  0.5311  0.2577
10625TIP3   OH253289   1.190   6.525   6.120  0.3164  0.5183 -0.6566
10625TIP3    H153290   1.200   6.604   6.172 -0.3323 -0.4779  1.0872
10625TIP3    H253291   1.280   6.501   6.096  0.6045  1.2133 -0.3033
10626TIP3   OH253292   6.615   0.083  15.861  0.1513 -0.6412 -0.1177
10626TIP3    H153293   6.610   0.142  15.787  0.8290  1.4471  1.3922
10626TIP3    H253294   6.537   0.102  15.913  0.8935 -0.2849  0.9089
10627TIP3   OH253295   0.248   6.008  14.195  0.1926 -0.1043  0.4220
10627TIP3    H153296   0.326   5.984  14.246 -0.3005 -1.3921  0.6117
10627TIP3    H253297   0.274   5.990  14.104  0.7153  1.2012  0.2906
10628TIP3   OH253298   4.787   6.091   5.361  0.3038  0.0397  0.0965
10628TIP3    H153299   4.831   6.028   5.304  0.3091 -0.1652  0.3271
10628TIP3    H253300   4.851   6.161   5.374  0.2182  0.2039 -0.3432
10629TIP3   OH253301   3.994   1.459   5.670 -0.8419 -0.0667 -0.3910
10629TIP3    H153302   4.062   1.448   5.603 -2.0583 -2.7176 -1.3145
10629TIP3    H253303   4.021   1.400   5.740 -0.3724  1.5771  0.8645
10630TIP3   OH253304   1.312   5.307  15.272 -0.4543  0.1419 -0.0292
10630TIP3    H153305   1.232   5.299  15.325 -0.1688  3.3043  1.1106
10630TIP3    H253306   1.367   5.234  15.300 -1.6820 -0.2189  1.5914
10631TIP3   OH253307   1.847   2.088  17.195 -0.1449 -0.4766 -0.3450
10631TIP3    H153308   1.798   2.075  17.276 -1.9459 -0.3910 -1.3563
10631TIP3    H253309   1.939   2.082  17.220 -0.5449  1.9998  2.1484
10632TIP3   OH253310   5.098   2.954  10.773  0.7687  0.9954  0.3849
10632TIP3    H153311   5.118   2.868  10.736 -2.3816  1.2107 -2.2352
10632TIP3    H253312   5.026   2.937  10.834  0.0711  1.7218 -0.2122
10633TIP3   OH253313   5.079   0.313   4.216  0.1576 -0.0941  0.1139
10633TIP3    H153314   5.047   0.222   4.219  2.3607 -0.9433 -0.0972
10633TIP3    H253315   5.141   0.319   4.289  1.5178  0.6094 -1.0497
10634TIP3   OH253316   0.410   6.774  11.646 -0.3781  0.0594 -0.1798
10634TIP3    H153317   0.371   6.862  11.649  0.5102  0.4507  0.2717
10634TIP3    H253318   0.335   6.715  11.648 -0.9978  0.7449  2.9303
10635TIP3   OH253319   4.608   5.976  14.581  0.1952  0.1805 -0.1915
10635TIP3    H153320   4.581   5.971  14.489  0.5533  2.2273 -0.4545
10635TIP3    H253321   4.527   5.966  14.631 -0.3482  1.2275 -0.8234
10636TIP3   OH253322   6.362   1.980  13.310  0.0758  0.1178  0.3891
10636TIP3    H153323   6.397   1.895  13.337 -0.8421 -0.5535 -0.4786
10636TIP3    H253324   6.299   1.960  13.242 -0.2337  1.5004  0.2317
10637TIP3   OH253325   5.981   4.673  14.055 -0.2402 -0.0251 -0.2235
10637TIP3    H153326   5.985   4.768  14.064  3.6966  0.0597 -0.9291
10637TIP3    H253327   6.002   4.656  13.963  0.0319 -1.5729  0.0833
10638TIP3   OH253328   6.031   2.250   0.443  0.1144 -0.0117 -0.4756
10638TIP3    H153329   6.122   2.240   0.472 -0.5185  0.3813  1.8758
10638TIP3    H253330   5.995   2.317   0.502 -1.2269  1.2130 -2.5588
10639TIP3   OH253331   2.953   2.328  14.164 -0.1320  0.7583 -0.4552
10639TIP3    H153332   2.886   2.368  14.220  1.1220  1.4607  0.5977
10639TIP3    H253333   2.997   2.402  14.123  0.0918  0.3054 -1.0455
10640TIP3   OH253334   6.650   0.525   4.747  0.2910  0.0468  0.1174
10640TIP3    H153335   6.564   0.484   4.755  0.3763 -0.2119 -0.3100
10640TIP3    H253336   6.710   0.461   4.785  0.7108 -1.2161 -2.4676
10641TIP3   OH253337   2.630   0.775   2.006  0.3706  0.7970  0.1593
10641TIP3    H153338   2.711   0.826   2.010  0.3278  0.8800 -0.0142
10641TIP3    H253339   2.658   0.684   2.006  0.4228  0.7950  1.2308
10642TIP3   OH253340   5.059   3.829   5.427  0.5714  0.1557  0.6833
10642TIP3    H153341   5.029   3.907   5.381 -0.7176 -0.1147  1.0247
10642TIP3    H253342   5.033   3.756   5.370  1.3757 -0.0512  0.5736
10643TIP3   OH253343   5.152   4.378  12.386  0.5682  0.2590 -0.9040
10643TIP3    H153344   5.104   4.311  12.434  1.8867 -0.1811 -0.1270
10643TIP3    H253345   5.220   4.329  12.339  3.2101  1.1604  1.6848
10644TIP3   OH253346   3.159   3.149   4.629  0.1839 -0.3427  0.2926
10644TIP3    H153347   3.219   3.088   4.586  2.2020  0.6470  1.5446
10644TIP3    H253348   3.187   3.149   4.721 -1.8464  0.0890  0.9775
10645TIP3   OH253349   3.745   6.756  15.960 -0.3782  0.4919  0.1634
10645TIP3    H153350   3.745   6.839  16.006 -1.9329 -0.0964  1.3220
10645TIP3    H253351   3.666   6.757  15.906  0.7193  0.6193 -1.5366
10646TIP3   OH253352   5.421   6.645  12.165  0.0286 -1.1946 -0.0080
10646TIP3    H153353   5.353   6.624  12.101 -0.1824 -0.2987 -0.0926
10646TIP3    H253354   5.374   6.660  12.247 -0.1918  1.7790 -0.5845
10647TIP3   OH253355   2.715   2.428  12.385  0.2203 -0.1722  0.0524
10647TIP3    H153356   2.629   2.465  12.404  0.1379 -0.4428  0.1972
10647TIP3    H253357   2.746   2.394  12.469 -0.3580 -1.8209 -0.3617
10648TIP3   OH253358   1.464   4.326   3.464  0.2187 -0.4934 -0.1623
10648TIP3    H153359   1.463   4.298   3.372  1.0389 -0.8536 -0.0668
10648TIP3    H253360   1.406   4.263   3.508  3.1427 -3.0691  0.3078
10649TIP3   OH253361   6.613   5.062  14.815  0.7660 -0.1433 -0.4509
10649TIP3    H153362   6.592   4.976  14.779  1.1268 -0.4067 -0.0449
10649TIP3    H253363   6.627   5.117  14.738 -1.6260  0.1405 -0.7570
10650TIP3   OH253364   6.770   3.723   0.063  0.0723 -0.1627  0.2232
10650TIP3    H153365   6.711   3.691   0.131 -0.1407  0.4450  0.3286
10650TIP3    H253366   6.712   3.748  -0.009  0.2688 -0.4414 -0.0357
10651TIP3   OH253367   1.052   3.294   1.842  0.2963  0.1747 -0.0510
10651TIP3    H153368   1.112   3.257   1.778 -1.6377 -1.4064 -1.0602
10651TIP3    H253369   0.981   3.332   1.790 -0.4358  0.4401  1.1012
10652TIP3   OH253370   1.986   4.892  15.792 -0.0585 -0.1715  0.1675
10652TIP3    H153371   1.894   4.894  15.819  0.0591 -1.5233  0.7685
10652TIP3    H253372   2.028   4.836  15.857  1.1702  0.3136 -0.1888
10653TIP3   OH253373   4.434   2.283   3.500 -0.2739  0.3705 -1.3272
10653TIP3    H153374   4.420   2.287   3.405 -3.4649  2.2257 -0.9087
10653TIP3    H253375   4.348   2.261   3.536  0.9341 -0.6280  1.1874
10654TIP3   OH253376   0.635   2.334  14.386  0.4368 -0.1325  0.5184
10654TIP3    H153377   0.678   2.399  14.330 -0.4483 -0.5570 -0.6841
10654TIP3    H253378   0.541   2.351  14.376  0.1922 -1.4349  0.3534
10655TIP3   OH253379   2.876   3.741  14.435 -0.4640 -0.9147 -0.0506
10655TIP3    H153380   2.815   3.679  14.473 -0.2668 -0.9220  0.2543
10655TIP3    H253381   2.820   3.811  14.399 -0.6053 -0.1545  1.5761
10656TIP3   OH253382   5.334   1.581  14.484  0.4369 -0.1317  0.0316
10656TIP3    H153383   5.271   1.600  14.415  0.2681 -1.4908 -0.2233
10656TIP3    H253384   5.282   1.550  14.557  0.7582 -0.8325 -0.0235
10657TIP3   OH253385   1.695   5.038  12.996  0.1286  0.0541  0.2804
10657TIP3    H153386   1.644   5.024  12.916 -1.4857 -0.0870  1.3147
10657TIP3    H253387   1.715   5.132  12.995  1.6885 -0.2382 -1.1654
10658TIP3   OH253388   1.026   5.758   3.470 -0.7592  0.0983 -0.1226
10658TIP3    H153389   0.987   5.842   3.493 -1.2264 -0.5488  1.5831
10658TIP3    H253390   1.112   5.760   3.512 -0.4878 -0.0112 -0.6652
10659TIP3   OH253391   0.812   0.829   4.355 -0.0646  0.1530 -0.1777
10659TIP3    H153392   0.721   0.830   4.387 -0.0185 -2.7730  0.2414
10659TIP3    H253393   0.861   0.783   4.422  0.5717 -3.6142 -2.9364
10660TIP3   OH253394   2.432   0.004   4.677 -0.1697 -0.1677 -0.9577
10660TIP3    H153395   2.394   0.086   4.708 -2.4583 -0.8148 -1.7784
10660TIP3    H253396   2.464  -0.039   4.755  0.1022  1.0435 -0.3803
10661TIP3   OH253397   2.954   4.245  16.580 -0.4130 -0.2460 -0.3858
10661TIP3    H153398   3.027   4.183  16.574 -1.6430 -1.6877 -1.4305
10661TIP3    H253399   2.914   4.226  16.665  0.2980  0.4418  0.1227
10662TIP3   OH253400   2.875   6.132  10.397 -0.3173 -0.3024 -0.0415
10662TIP3    H153401   2.804   6.085  10.441 -1.0390  0.8132  0.0226
10662TIP3    H253402   2.925   6.063  10.353  0.9986 -1.6152  3.2125
10663TIP3   OH253403   3.224   1.395   0.993 -0.6535 -0.2968  0.2112
10663TIP3    H153404   3.244   1.306   0.964  0.6659 -0.6789  2.1415
10663TIP3    H253405   3.282   1.451   0.940  1.0066 -0.8952  1.3353
10664TIP3   OH253406   2.982   4.922  11.988 -0.5835 -0.3399 -0.0276
10664TIP3    H153407   3.053   4.984  12.008 -1.5511  0.7508  0.1865
10664TIP3    H253408   3.023   4.836  11.990  0.6282  0.2308  0.5830
10665TIP3   OH253409   5.897   0.996   1.897 -0.1099  0.3092 -0.1393
10665TIP3    H153410   5.868   1.026   1.983  2.2572  1.5991  0.2895
10665TIP3    H253411   5.965   0.931   1.916 -2.9555 -3.2744 -1.0944
10666TIP3   OH253412   1.467   2.497  12.277 -0.4318 -0.0715  0.1135
10666TIP3    H153413   1.475   2.446  12.197  0.2261  0.2275 -0.0241
10666TIP3    H253414   1.521   2.574  12.261  1.0843 -0.7979  1.4583
10667TIP3   OH253415   5.259   5.572  14.652  0.2166 -0.1101 -0.4783
10667TIP3    H153416   5.252   5.651  14.599 -0.2130 -0.0679 -0.3591
10667TIP3    H253417   5.215   5.505  14.599  0.1032 -0.1478 -0.3355
10668TIP3   OH253418   4.964   2.869  16.614  0.1455 -0.1056  0.1013
10668TIP3    H153419   4.907   2.946  16.610  1.7000  1.0572 -2.1866
10668TIP3    H253420   5.035   2.894  16.671  0.6263  0.1713 -0.6040
10669TIP3   OH253421   5.204   0.276   2.934  0.4407  0.0080  0.3409
10669TIP3    H153422   5.292   0.266   2.971  0.4132 -0.9526  0.1832
10669TIP3    H253423   5.154   0.322   3.001  1.5675  2.4545 -0.3671
10670TIP3   OH253424   4.075   3.039   5.604 -0.2212 -0.0794 -0.2366
10670TIP3    H153425   4.051   3.005   5.517 -1.8603 -0.4906  0.3298
10670TIP3    H253426   4.000   3.094   5.629 -0.8686 -1.7728  1.8364
10671TIP3   OH253427   3.293   1.522   2.414 -1.0801  0.4008  0.6414
10671TIP3    H153428   3.224   1.565   2.464 -0.6403  1.4874  0.3482
10671TIP3    H253429   3.343   1.594   2.376  0.1009 -0.3702  0.6857
10672TIP3   OH253430   0.050   4.611   0.028  0.6347 -0.2798 -0.1213
10672TIP3    H153431   0.125   4.664   0.055  0.8009 -0.6227  0.0969
10672TIP3    H253432   0.075   4.521   0.052  0.8850 -0.6328 -1.6035
10673TIP3   OH253433   5.073   3.298   5.255 -0.1136  0.6054 -0.4328
10673TIP3    H153434   5.034   3.363   5.196 -0.5601  0.9657  0.2503
10673TIP3    H253435   5.052   3.214   5.215  1.5481  0.8824 -2.0070
10674TIP3   OH253436   5.603   4.128   6.359  0.3205 -0.3281  0.3685
10674TIP3    H153437   5.633   4.051   6.407  0.8221 -0.1731  0.3028
10674TIP3    H253438   5.648   4.202   6.400 -0.9952  0.0797  1.1763
10675TIP3   OH253439   0.802   5.530  11.008  0.2118 -0.2088 -0.1128
10675TIP3    H153440   0.820   5.436  11.004  0.0091 -0.2224 -0.7504
10675TIP3    H253441   0.875   5.571  10.961 -0.1640 -0.1093 -0.6177
10676TIP3   OH253442   5.721   1.061   4.681 -0.9774  0.1982  0.8052
10676TIP3    H153443   5.773   0.987   4.650 -2.8717 -1.1046  0.5499
10676TIP3    H253444   5.784   1.133   4.691  0.7416 -1.1406  0.0509
10677TIP3   OH253445   6.481   1.030   3.658  0.1158 -0.2407 -0.5197
10677TIP3    H153446   6.459   0.964   3.724  0.0804 -0.4611 -0.7503
10677TIP3    H253447   6.495   0.980   3.577  0.1859  0.0241 -0.6737
10678TIP3   OH253448   1.001   0.999  14.752 -0.4520  0.1148  0.0419
10678TIP3    H153449   1.002   1.020  14.846  0.2903  0.1543  0.0316
10678TIP3    H253450   1.044   0.913  14.746 -1.8208 -0.5913 -0.1143
10679TIP3   OH253451   1.812   5.829  11.502  0.5475  0.7411  0.2764
10679TIP3    H153452   1.718   5.816  11.491  0.5896  1.0803 -0.5927
10679TIP3    H253453   1.820   5.905  11.560  0.2882  0.9204  0.0731
10680TIP3   OH253454   1.296   4.157  11.351  0.4004 -0.0775  0.0104
10680TIP3    H153455   1.289   4.110  11.434  1.1329  0.6629  0.5118
10680TIP3    H253456   1.319   4.090  11.287  0.8144 -0.5029  0.5960
10681TIP3   OH253457   6.678   2.345   2.094  0.9157  0.5439 -0.4476
10681TIP3    H153458   6.770   2.363   2.116  0.9108 -0.1195  0.1462
10681TIP3    H253459   6.655   2.269   2.147  0.0700  0.5927 -0.7293
10682TIP3   OH253460   1.145   0.520  15.574 -0.2808 -0.3343  0.0534
10682TIP3    H153461   1.087   0.595  15.568 -0.1041 -0.1548  0.5457
10682TIP3    H253462   1.180   0.509  15.486 -0.0009  0.4064  0.0699
10683TIP3   OH253463   4.565   4.680   4.896 -0.1308 -0.2994  0.3242
10683TIP3    H153464   4.623   4.639   4.832 -0.7280 -2.2714  0.9615
10683TIP3    H253465   4.522   4.606   4.939  1.1292  0.8351  3.8731
10684TIP3   OH253466   6.127   0.107   4.553  0.2422  0.0136 -0.0495
10684TIP3    H153467   6.096   0.040   4.492  0.5372  1.4197 -1.8496
10684TIP3    H253468   6.049   0.157   4.575  0.3181  0.1986 -0.1965
10685TIP3   OH253469   2.202   6.226  11.141 -0.1763 -0.0238 -0.6566
10685TIP3    H153470   2.144   6.186  11.076  0.6480 -0.7745 -0.9642
10685TIP3    H253471   2.203   6.319  11.119 -0.2187 -0.2110 -1.4877
10686TIP3   OH253472   0.330   4.421  14.938  0.3228  0.4555 -0.9188
10686TIP3    H153473   0.406   4.364  14.940  1.8150  2.3613  0.3467
10686TIP3    H253474   0.366   4.509  14.926 -1.8417  1.2208 -2.3600
10687TIP3   OH253475   1.231   5.872   5.801  0.0127  0.8337 -0.5340
10687TIP3    H153476   1.196   5.945   5.851 -0.1789 -0.5184  1.4262
10687TIP3    H253477   1.305   5.841   5.852 -0.3573 -0.7875 -0.9109
10688TIP3   OH253478   0.333   2.502  12.734  0.0582 -0.1367 -0.4393
10688TIP3    H153479   0.284   2.551  12.799 -0.3332 -0.1841 -0.6897
10688TIP3    H253480   0.370   2.428  12.782  0.2936  0.1693 -0.1488
10689TIP3   OH253481   6.180   0.435   5.657 -0.4788 -0.7244  0.3752
10689TIP3    H153482   6.134   0.485   5.590 -0.0577 -1.3770 -0.4134
10689TIP3    H253483   6.112   0.411   5.720 -1.8490 -3.9218 -2.0664
10690TIP3   OH253484   5.239   0.942  10.699  0.1744 -0.2539  0.1728
10690TIP3    H153485   5.192   0.936  10.782  2.1875 -0.0225  1.3955
10690TIP3    H253486   5.233   1.035  10.675 -0.6958 -0.3823 -0.1451
10691TIP3   OH253487   4.836   4.183  11.744  0.3442  0.2970  1.2013
10691TIP3    H153488   4.895   4.143  11.680  0.5668  2.1836  0.1458
10691TIP3    H253489   4.890   4.250  11.786 -0.7880  1.4971  0.8081
10692TIP3   OH253490   5.903   6.213  16.405  1.1589  0.3085 -0.0048
10692TIP3    H153491   5.943   6.248  16.484  0.5548  0.6427  0.1627
10692TIP3    H253492   5.900   6.288  16.345  4.1350 -0.5411 -1.4140
10693TIP3   OH253493   0.015   5.017   4.575 -0.1001  0.6712 -0.0853
10693TIP3    H153494  -0.060   4.977   4.531  0.2548  2.4717 -2.4787
10693TIP3    H253495   0.086   5.012   4.512  0.9256  1.8540  0.9184
10694TIP3   OH253496   2.509   4.648  17.190 -0.2919 -0.0848 -0.1610
10694TIP3    H153497   2.528   4.574  17.248  1.3482  0.9107  0.6330
10694TIP3    H253498   2.593   4.691  17.177 -1.1403  1.4252 -0.9429
10695TIP3   OH253499   5.885   0.840  16.137  0.4180 -0.0183  0.0920
10695TIP3    H153500   5.944   0.806  16.205  2.3312  0.2646 -1.3325
10695TIP3    H253501   5.942   0.892  16.080 -0.9531 -0.8452 -2.1586
10696TIP3   OH253502   1.543   0.373  16.911  0.3565 -0.1913 -0.0686
10696TIP3    H153503   1.465   0.332  16.950  0.1161 -0.3664 -0.7099
10696TIP3    H253504   1.536   0.465  16.935  1.3618 -0.6248  2.1399
10697TIP3   OH253505   5.109   3.320  15.168 -0.1640  0.0973 -0.1515
10697TIP3    H153506   5.080   3.350  15.082  3.1644  0.0135 -1.4349
10697TIP3    H253507   5.030   3.322  15.222 -1.8318  2.9298 -2.4200
10698TIP3   OH253508   6.482   0.297  16.599  0.0838 -0.3769 -0.1576
10698TIP3    H153509   6.514   0.214  16.634 -1.3223 -0.4956  0.9177
10698TIP3    H253510   6.413   0.274  16.538 -1.4054  0.0119  1.3186
10699TIP3   OH253511   2.598   1.465  13.810  0.4275 -0.9577  0.5021
10699TIP3    H153512   2.668   1.446  13.873  2.0240  0.4060 -0.7509
10699TIP3    H253513   2.615   1.555  13.782  1.1377 -2.0984 -3.4110
10700TIP3   OH253514   6.346   0.616   6.197  0.3631 -0.2090  0.2328
10700TIP3    H153515   6.394   0.667   6.261 -0.8247 -1.4301  2.1972
10700TIP3    H253516   6.254   0.627   6.221  0.0235 -2.5644  0.2534
10701TIP3   OH253517   3.917   6.647   3.039  0.1275 -0.4683 -0.3264
10701TIP3    H153518   3.863   6.606   3.107  0.5508 -0.3713  0.0805
10701TIP3    H253519   4.005   6.614   3.056  0.0955 -1.1288 -1.3798
10702TIP3   OH253520   5.070   6.440  16.983 -0.6854  0.4582 -0.0469
10702TIP3    H153521   5.153   6.398  16.959  0.8120  1.4496  2.7938
10702TIP3    H253522   5.021   6.371  17.028 -1.2969 -0.0281 -1.4063
10703TIP3   OH253523   4.759   2.931  13.662  0.3194  0.1206 -0.4353
10703TIP3    H153524   4.759   2.838  13.686 -0.0802  0.8236  2.6159
10703TIP3    H253525   4.836   2.941  13.606  0.5093 -1.9852 -0.6454
10704TIP3   OH253526   4.844   5.637  12.213 -0.2692  0.4994 -0.0283
10704TIP3    H153527   4.886   5.576  12.274 -0.3993  1.8790  1.5026
10704TIP3    H253528   4.916   5.676  12.164  0.1025  1.2250  1.0427
10705TIP3   OH253529   4.459   4.777   1.711  0.3971  0.5811 -0.1108
10705TIP3    H153530   4.436   4.778   1.804 -0.2937  1.5075 -0.2817
10705TIP3    H253531   4.549   4.744   1.709 -0.1504 -1.0962  0.7408
10706TIP3   OH253532   3.823   3.991   1.773 -0.2733  0.3501  0.3575
10706TIP3    H153533   3.761   4.063   1.770 -0.0878  0.5012 -3.0481
10706TIP3    H253534   3.769   3.912   1.776 -0.5210  0.5480  1.3902
10707TIP3   OH253535   1.183   1.759  12.769  0.2541 -0.0289  0.3474
10707TIP3    H153536   1.226   1.674  12.781 -0.7189 -0.3486  1.7528
10707TIP3    H253537   1.098   1.738  12.731 -0.2913  0.2398  1.3948
10708TIP3   OH253538   3.403   1.317   5.902  0.4236 -0.2809 -0.2372
10708TIP3    H153539   3.367   1.336   5.989  1.2760  0.2208  0.0135
10708TIP3    H253540   3.498   1.327   5.912  0.5870 -0.9251 -1.0534
10709TIP3   OH253541   0.222   6.202  12.965 -0.2229  0.3510  0.3242
10709TIP3    H153542   0.252   6.181  13.054  0.2293  0.6133  0.2384
10709TIP3    H253543   0.240   6.123  12.915 -1.6174 -0.2493  0.7237
10710TIP3   OH253544   5.004   4.681   0.135  0.4968 -0.3665  0.1346
10710TIP3    H153545   4.950   4.677   0.056  1.9378 -0.3594 -0.8954
10710TIP3    H253546   4.965   4.616   0.194 -0.2966 -0.7409 -0.7717
10711TIP3   OH253547   3.478   2.180   4.189  0.2495 -0.3419  0.4493
10711TIP3    H153548   3.490   2.261   4.139  1.1504  0.6570  2.2218
10711TIP3    H253549   3.550   2.123   4.160 -0.0578 -0.3252 -0.3885
10712TIP3   OH253550   0.760   2.087   3.644  0.0047  0.9840 -0.1833
10712TIP3    H153551   0.750   2.119   3.554  2.0367 -0.9491 -1.1852
10712TIP3    H253552   0.702   2.011   3.649 -1.3647  2.0391  0.7337
10713TIP3   OH253553   2.254   6.485  13.490 -0.1264  0.5890  0.2934
10713TIP3    H153554   2.225   6.502  13.400 -0.0856  0.5222  0.2676
10713TIP3    H253555   2.246   6.391  13.500  2.0540  0.2860 -0.4015
10714TIP3   OH253556   4.240   3.405  12.387 -0.6161 -0.0422 -0.1146
10714TIP3    H153557   4.252   3.498  12.371 -2.1206 -0.0042 -1.2499
10714TIP3    H253558   4.211   3.370  12.302  0.1396 -1.5843  0.2289
10715TIP3   OH253559   5.534   1.501   4.764 -0.1177 -0.1762 -0.4164
10715TIP3    H153560   5.621   1.497   4.724  0.3523 -0.9661  0.6305
10715TIP3    H253561   5.547   1.470   4.853 -1.7161 -1.5930 -0.6322
10716TIP3   OH253562   0.011   0.131  16.743  0.5355 -0.1641 -0.3205
10716TIP3    H153563  -0.012   0.219  16.773 -1.3597 -0.5827 -0.4351
10716TIP3    H253564  -0.021   0.073  16.811 -0.2865 -0.8827 -1.2792
10717TIP3   OH253565   2.779   6.364  12.535  0.3874 -0.2742 -0.8187
10717TIP3    H153566   2.843   6.306  12.493 -0.6910 -0.4009 -2.4049
10717TIP3    H253567   2.823   6.450  12.536  1.0663 -0.6114 -0.6928
10718TIP3   OH253568   4.053   4.995   0.049  0.0811 -0.8313 -0.2556
10718TIP3    H153569   4.104   5.073   0.027  0.4933 -1.2953 -1.0174
10718TIP3    H253570   3.967   5.028   0.074 -0.0906 -0.1753 -1.5859
10719TIP3   OH253571   6.514   3.472   5.051  0.0592 -0.4535 -0.5428
10719TIP3    H153572   6.513   3.559   5.011  2.6559 -1.0606 -2.2217
10719TIP3    H253573   6.504   3.489   5.145  0.8626  1.7202 -0.7735
10720TIP3   OH253574   2.506   1.718  15.884  0.0572  0.3409 -0.7184
10720TIP3    H153575   2.437   1.721  15.950  0.6333  1.1690 -0.1484
10720TIP3    H253576   2.580   1.676  15.927  0.0612 -0.1651 -1.2008
10721TIP3   OH253577   6.719   5.419   5.574  0.3363 -0.1000  0.4892
10721TIP3    H153578   6.706   5.495   5.518 -0.3619 -1.2132 -0.9196
10721TIP3    H253579   6.784   5.448   5.639  0.8278  1.3751 -0.5995
10722TIP3   OH253580   1.673   6.312   2.628 -0.4996  0.4406  0.5498
10722TIP3    H153581   1.631   6.249   2.686 -0.2899  1.5007  1.8963
10722TIP3    H253582   1.700   6.384   2.685  1.1296  0.8176 -0.6147
10723TIP3   OH253583   2.289   0.345  13.012 -0.2674 -0.1273 -0.3078
10723TIP3    H153584   2.243   0.401  13.075  0.3805 -0.2760  0.3124
10723TIP3    H253585   2.354   0.403  12.973  0.3123 -0.4008  0.2360
10724TIP3   OH253586   3.765   4.649   4.428 -0.1956 -0.5492  0.1787
10724TIP3    H153587   3.808   4.646   4.514 -0.2370  1.2107  0.2998
10724TIP3    H253588   3.797   4.571   4.383  0.2003 -1.2563  1.6125
10725TIP3   OH253589   0.150   5.890   2.566  0.6783  0.2121  0.0700
10725TIP3    H153590   0.112   5.867   2.651  1.9143 -0.1613  0.5525
10725TIP3    H253591   0.137   5.985   2.558  0.3643  0.2133  0.5818
10726TIP3   OH253592   0.727   4.703  13.842  0.2707 -0.5515 -0.3215
10726TIP3    H153593   0.691   4.710  13.753 -1.0263  0.4673  0.2470
10726TIP3    H253594   0.821   4.714  13.831 -0.0190  1.0427 -1.4321
10727TIP3   OH253595   2.764   1.528   1.439 -0.1901 -0.0830  0.1244
10727TIP3    H153596   2.739   1.477   1.362 -1.7515  1.2072 -0.2748
10727TIP3    H253597   2.683   1.569   1.468  0.6747  0.7253  1.5300
10728TIP3   OH253598   1.934   5.723  14.284  0.0123  0.4068  0.5045
10728TIP3    H153599   1.863   5.781  14.257 -1.1905 -1.4128 -0.4134
10728TIP3    H253600   2.002   5.736  14.218 -0.2492  0.7280  0.2963
10729TIP3   OH253601   3.109   0.911   3.034 -0.0713  0.4281 -0.1626
10729TIP3    H153602   3.100   0.852   3.109  0.6047 -0.5488 -0.8257
10729TIP3    H253603   3.152   0.989   3.069 -1.3437  0.7235  0.8171
10730TIP3   OH253604   3.835   3.207  12.904  0.4476  0.1336  0.2883
10730TIP3    H153605   3.828   3.131  12.846  0.6702 -1.2774  2.0258
10730TIP3    H253606   3.745   3.229  12.927  0.4341 -0.6947  1.0915
10731TIP3   OH253607   0.657   1.885   3.812 -0.0131 -0.2320 -0.6849
10731TIP3    H153608   0.597   1.839   3.754 -0.6118  1.4047 -1.4359
10731TIP3    H253609   0.603   1.914   3.885  0.3917 -0.8743 -0.1267
10732TIP3   OH253610   3.601   3.923   1.415 -0.3887  0.7040 -0.1649
10732TIP3    H153611   3.658   3.984   1.463  0.4240  0.6221 -0.9933
10732TIP3    H253612   3.515   3.934   1.455  0.5012 -0.3266  2.2198
10733TIP3   OH253613   4.742   3.074   2.429  0.1182  0.2946 -0.4198
10733TIP3    H153614   4.788   2.992   2.447 -0.3922 -0.1533 -1.1184
10733TIP3    H253615   4.812   3.138   2.417  0.5251  0.6201  2.8974
10734TIP3   OH253616   1.297   6.208   7.020 -0.2130 -0.8117 -0.4889
10734TIP3    H153617   1.254   6.292   7.002 -0.4122 -0.9429 -0.6381
10734TIP3    H253618   1.387   6.220   6.992 -0.3078 -0.7337 -0.7621
10735TIP3   OH253619   0.816   0.959   0.133 -0.4991  0.0992  0.7670
10735TIP3    H153620   0.807   0.930   0.043 -1.0136  0.4796  0.6904
10735TIP3    H253621   0.839   1.051   0.127  2.0413 -0.4496  0.9918
10736TIP3   OH253622   5.874   6.506  11.976 -0.3163 -0.6012 -0.7058
10736TIP3    H153623   5.905   6.579  12.028 -0.9369 -0.0101 -1.1456
10736TIP3    H253624   5.780   6.500  11.996 -0.0667 -2.0543  0.2519
10737TIP3   OH253625   5.318   6.380   2.004 -0.3527 -0.1116  0.3375
10737TIP3    H153626   5.353   6.462   1.969 -0.7013  0.6455  1.6618
10737TIP3    H253627   5.391   6.344   2.055 -0.5922  0.0379  0.7949
10738TIP3   OH253628   1.119   0.515  11.596  1.0300  1.0080 -0.2875
10738TIP3    H153629   1.099   0.607  11.581 -2.4888  0.1571 -2.0946
10738TIP3    H253630   1.093   0.499  11.687 -2.0805  1.1816 -1.0066
10739TIP3   OH253631   5.303   4.732  14.423  0.0363  0.3034 -0.0064
10739TIP3    H153632   5.384   4.781  14.440  0.1990 -0.7971  2.9705
10739TIP3    H253633   5.306   4.658  14.484 -1.1789 -2.3324 -2.8702
10740TIP3   OH253634   3.182   2.233   1.384  0.6166 -0.6615 -0.3152
10740TIP3    H153635   3.094   2.200   1.365  0.8147 -0.0670 -2.5329
10740TIP3    H253636   3.227   2.159   1.425 -0.7301 -1.1567  0.3236
10741TIP3   OH253637   5.572   2.789   4.301 -0.6137  0.9501  0.0907
10741TIP3    H153638   5.627   2.752   4.370 -2.5794 -1.0114  0.7467
10741TIP3    H253639   5.557   2.880   4.327  1.3929  1.2332  0.4082
10742TIP3   OH253640   6.362   0.019  12.394  0.2070  0.0848 -0.3873
10742TIP3    H153641   6.367  -0.003  12.302  0.5003  1.2667 -0.6691
10742TIP3    H253642   6.305   0.097  12.397  0.0583 -0.0458  0.4395
10743TIP3   OH253643   5.720   1.726   4.281 -0.0719 -0.5539 -0.4262
10743TIP3    H153644   5.704   1.815   4.250 -0.5770 -0.4814  0.0183
10743TIP3    H253645   5.635   1.697   4.314  0.6571 -0.1617  2.0416
10744TIP3   OH253646   3.675   5.600  15.169 -0.8716 -0.5781 -0.0136
10744TIP3    H153647   3.594   5.562  15.201  0.1871 -1.1858  2.1166
10744TIP3    H253648   3.734   5.599  15.244  1.2226 -0.4185 -1.5465
10745TIP3   OH253649   3.977   1.992  11.168 -0.5913 -0.8003 -0.4494
10745TIP3    H153650   3.909   2.051  11.200 -0.9705 -0.8572 -1.1540
10745TIP3    H253651   4.004   2.029  11.084 -0.2802 -1.1939 -0.5259
10746TIP3   OH253652   0.094   1.222  14.591  0.1511  0.3243 -0.6230
10746TIP3    H153653   0.008   1.189  14.619 -0.1705  2.0635  0.5834
10746TIP3    H253654   0.080   1.254  14.502 -1.5992  4.2033  0.8431
10747TIP3   OH253655   4.366   2.366  13.198  0.2071 -0.1104  0.5996
10747TIP3    H153656   4.366   2.407  13.284 -0.9057  3.2633 -0.8715
10747TIP3    H253657   4.274   2.348  13.179  0.4244 -0.7310  0.0613
10748TIP3   OH253658   5.945   4.062  16.510 -0.1522 -0.1368  0.4034
10748TIP3    H153659   6.003   3.986  16.512 -3.1245 -2.6082  0.7314
10748TIP3    H253660   5.881   4.046  16.579 -1.2469  2.4422  0.1194
10749TIP3   OH253661   0.758   3.654  12.753 -0.3543  0.2708  0.1584
10749TIP3    H153662   0.808   3.723  12.797  0.5062 -0.5925  0.5771
10749TIP3    H253663   0.822   3.585  12.735 -1.0633 -0.1600 -0.8327
10750TIP3   OH253664   5.724   4.218   4.358  0.0841 -0.4047  0.0445
10750TIP3    H153665   5.795   4.190   4.300  0.5106 -1.5338  1.0768
10750TIP3    H253666   5.678   4.286   4.308  1.6466  0.0749 -0.8038
10751TIP3   OH253667   4.002   0.629  11.840 -0.4324 -0.0187  0.0831
10751TIP3    H153668   4.013   0.716  11.878  1.8926 -1.0212  1.9636
10751TIP3    H253669   3.971   0.575  11.912  3.3441 -1.8098  0.6227
10752TIP3   OH253670   0.546   0.027  16.974  0.3260  0.2200 -0.5318
10752TIP3    H153671   0.454   0.015  16.949  0.4175  0.0918 -0.8069
10752TIP3    H253672   0.545   0.024  17.070  0.1007 -0.2333 -0.5427
10753TIP3   OH253673   4.574   0.693  12.091 -0.2415 -0.4293 -0.4941
10753TIP3    H153674   4.551   0.611  12.049 -0.8285 -0.4181 -0.2130
10753TIP3    H253675   4.587   0.670  12.183  0.8186 -0.4181 -0.6298
10754TIP3   OH253676   4.972   3.797  10.433  0.5021 -0.3473  0.6154
10754TIP3    H153677   4.898   3.796  10.373  0.7100 -1.6504  0.3561
10754TIP3    H253678   4.938   3.837  10.513 -0.3690 -0.5554  0.3557
10755TIP3   OH253679   6.180   3.595   4.899 -0.0939  0.2448  0.4689
10755TIP3    H153680   6.132   3.551   4.970 -2.1427  1.8314  0.2023
10755TIP3    H253681   6.231   3.527   4.858 -0.8674 -1.2558  1.8641
10756TIP3   OH253682   1.081   3.292  12.180  0.1247  0.1937 -0.6182
10756TIP3    H153683   1.167   3.251  12.168 -0.5002 -1.3264 -0.1674
10756TIP3    H253684   1.036   3.277  12.097 -0.1878 -0.2374 -0.3715
10757TIP3   OH253685   0.206   1.136   6.447 -0.2464  0.0369  0.1615
10757TIP3    H153686   0.182   1.229   6.449  0.2852  0.2141 -0.8350
10757TIP3    H253687   0.128   1.092   6.412 -0.0852  0.2628 -0.4876
10758TIP3   OH253688   0.757   4.217   4.114 -0.1278  0.3222 -0.3992
10758TIP3    H153689   0.816   4.237   4.041 -0.8439 -1.4025 -1.5358
10758TIP3    H253690   0.674   4.195   4.072 -1.3466  1.8204  1.1209
10759TIP3   OH253691   6.044   2.684  11.638 -0.2258  0.1030 -0.0272
10759TIP3    H153692   6.037   2.610  11.578  0.9352  1.2122 -1.6457
10759TIP3    H253693   6.040   2.761  11.580 -0.7000  1.2828  1.5101
10760TIP3   OH253694   6.164   1.266  10.822  0.4136  0.0813  0.7791
10760TIP3    H153695   6.223   1.219  10.763 -0.1459 -0.0967  0.3531
10760TIP3    H253696   6.082   1.275  10.772  0.5521  1.6325  0.7909
10761TIP3   OH253697   5.649   2.095   2.098  0.2193  0.1825 -0.2259
10761TIP3    H153698   5.597   2.044   2.035 -0.8256  1.7761 -0.7089
10761TIP3    H253699   5.614   2.070   2.184 -1.4932  1.2899 -0.5425
10762TIP3   OH253700   5.559   3.016  14.822 -0.2166 -0.1648  0.0102
10762TIP3    H153701   5.542   2.972  14.905 -1.5086 -0.4097 -0.3576
10762TIP3    H253702   5.632   2.967  14.783 -0.7375 -1.1356  0.2251
10763TIP3   OH253703   5.428   2.987   1.291 -0.2164  0.5954 -0.1151
10763TIP3    H153704   5.333   2.989   1.307 -0.1763  2.7858  0.0964
10763TIP3    H253705   5.463   3.055   1.348  1.3288  0.7637 -1.2189
10764TIP3   OH253706   6.372   6.488   5.093  0.2652  0.4652  0.2481
10764TIP3    H153707   6.318   6.451   5.163  1.3874 -0.5228  0.6307
10764TIP3    H253708   6.376   6.418   5.027 -1.2492  1.5832 -1.1177
10765TIP3   OH253709   0.233   2.974  13.277 -0.0223  0.1953 -0.3637
10765TIP3    H153710   0.202   3.036  13.343  1.4568  0.3897  0.1885
10765TIP3    H253711   0.327   2.988  13.274  0.2049 -1.2956 -1.0116
10766TIP3   OH253712   2.234   3.334  16.612  0.0461 -0.4435  0.3876
10766TIP3    H153713   2.198   3.390  16.544 -0.3394 -2.1207 -0.8329
10766TIP3    H253714   2.328   3.336  16.598  0.2710  1.5449  1.7089
10767TIP3   OH253715   5.548   5.797  12.964  0.1987  0.3142  0.7476
10767TIP3    H153716   5.514   5.770  12.878  1.0833 -1.7309  0.9791
10767TIP3    H253717   5.472   5.828  13.012 -0.5566  0.0547 -0.2526
10768TIP3   OH253718   4.668   6.490  10.797  0.3431  0.1975 -0.5255
10768TIP3    H153719   4.737   6.456  10.855  0.1971  0.9428  0.0953
10768TIP3    H253720   4.671   6.432  10.721  1.3339 -0.0770 -0.2973
10769TIP3   OH253721   6.711   0.988   2.560 -0.3907 -0.0938 -0.6343
10769TIP3    H153722   6.710   0.935   2.640 -0.1207  1.4999  0.4743
10769TIP3    H253723   6.704   0.924   2.489 -3.5442 -1.4209  0.6917
10770TIP3   OH253724   6.132   0.740   2.470 -0.5994  0.8863  0.1106
10770TIP3    H153725   6.094   0.809   2.416 -1.8581  1.8161  2.0657
10770TIP3    H253726   6.154   0.783   2.552 -0.0781 -0.7477  0.8839
10771TIP3   OH253727   0.568   0.796  14.108  0.2950 -0.0390 -0.2495
10771TIP3    H153728   0.500   0.800  14.041  0.8276  0.5614 -0.7602
10771TIP3    H253729   0.577   0.702  14.127 -2.4176 -0.0443  1.6619
10772TIP3   OH253730   3.907   2.790   1.762 -0.6289  0.5902 -0.5968
10772TIP3    H153731   4.001   2.805   1.771 -1.1059  2.9488  1.3445
10772TIP3    H253732   3.881   2.848   1.690 -0.7702  0.7029 -0.4536
10773TIP3   OH253733   0.075   3.687  16.389  0.4927  0.2634 -0.3245
10773TIP3    H153734   0.165   3.674  16.361  1.1616  2.3279  0.6059
10773TIP3    H253735   0.037   3.745  16.323 -0.4069 -1.1459 -1.0856
10774TIP3   OH253736   3.683   2.945  14.627 -0.5392  0.2432 -0.0898
10774TIP3    H153737   3.756   2.999  14.656 -0.7474  0.8792 -0.6970
10774TIP3    H253738   3.640   2.998  14.560 -1.1883 -0.3802 -0.1800
10775TIP3   OH253739   3.041   0.884  16.957  0.2810 -0.2262 -0.1981
10775TIP3    H153740   3.034   0.949  16.887  1.8037  0.2294  0.0508
10775TIP3    H253741   3.128   0.846  16.946 -0.2577 -1.6347  0.1930
10776TIP3   OH253742   4.215   2.995   5.837  0.6439  0.4800  1.0792
10776TIP3    H153743   4.260   2.912   5.818  1.6314  1.4672 -1.1709
10776TIP3    H253744   4.172   3.018   5.755  0.5273  2.3023  1.6230
10777TIP3   OH253745   1.600   1.099  16.328  0.0870 -0.3225  0.2908
10777TIP3    H153746   1.539   1.079  16.400  2.7244 -0.3130  2.6976
10777TIP3    H253747   1.610   1.194  16.331 -0.2438 -0.2556 -0.5340
10778TIP3   OH253748   1.898   2.015  14.168 -0.2232  0.1512  0.4676
10778TIP3    H153749   1.907   1.945  14.232 -0.4052  0.8220  1.2523
10778TIP3    H253750   1.976   2.008  14.112 -0.9100 -1.5051 -0.3300
10779TIP3   OH253751   1.742   0.687  15.042  0.1364 -0.0926 -0.6381
10779TIP3    H153752   1.725   0.601  15.083 -0.8313  0.0348 -0.7517
10779TIP3    H253753   1.778   0.666  14.956 -1.3429 -0.4140 -1.1968
10780TIP3   OH253754   2.620   1.915  12.920 -0.0440  0.3038  0.1893
10780TIP3    H153755   2.588   1.921  13.009 -0.6769  0.2160 -0.0266
10780TIP3    H253756   2.711   1.944  12.925  0.7283 -2.0607  1.3009
10781TIP3   OH253757   0.204   4.216   4.883  0.4318 -0.6928 -0.4292
10781TIP3    H153758   0.115   4.247   4.898 -0.1696 -2.8564  1.0277
10781TIP3    H253759   0.197   4.157   4.807  0.3458 -1.7540  0.3761
10782TIP3   OH253760   5.224   3.219   1.480  0.3812  0.5673 -0.1052
10782TIP3    H153761   5.248   3.188   1.568 -0.4975  1.0121  0.3090
10782TIP3    H253762   5.262   3.155   1.421 -1.5386 -1.4989  0.7144
10783TIP3   OH253763   2.209   5.151  12.878 -0.1248 -0.1263 -0.1681
10783TIP3    H153764   2.154   5.081  12.912 -0.0768 -0.1384 -0.1152
10783TIP3    H253765   2.184   5.228  12.928  1.5243 -0.6084  1.5039
10784TIP3   OH253766   6.224   3.487  16.769 -0.0672 -0.0152  0.2017
10784TIP3    H153767   6.179   3.495  16.853 -0.0150 -0.4623  0.2783
10784TIP3    H253768   6.312   3.521  16.786  0.3531 -1.2767  0.6828
10785TIP3   OH253769   5.952   1.751  10.607 -0.0279  0.8339 -0.0166
10785TIP3    H153770   5.921   1.754  10.698 -0.0064  1.1053 -0.0172
10785TIP3    H253771   5.940   1.659  10.581  0.7631  0.5628  0.5307
10786TIP3   OH253772   4.893   3.048   4.077  0.5105  0.2893  0.3617
10786TIP3    H153773   4.797   3.054   4.071  0.6487  1.1293 -2.5953
10786TIP3    H253774   4.919   3.126   4.126 -0.2612  1.0179 -0.3486
10787TIP3   OH253775   3.527   3.544   2.473 -0.1140 -0.0091 -1.0593
10787TIP3    H153776   3.471   3.622   2.472 -0.0526  0.1311  1.1645
10787TIP3    H253777   3.478   3.479   2.422 -0.2387  1.3787 -2.8323
10788TIP3   OH253778   2.491   4.847  12.151  0.2753 -0.4405  0.6965
10788TIP3    H153779   2.447   4.843  12.236  0.2271  2.2061  0.8842
10788TIP3    H253780   2.433   4.902  12.097  1.2913 -0.4002 -0.3950
10789TIP3   OH253781   4.210   5.702   5.518  0.2146 -0.1355  0.3598
10789TIP3    H153782   4.173   5.710   5.430 -3.6300 -0.1842  1.7436
10789TIP3    H253783   4.219   5.608   5.531  0.6953 -0.1326  0.0589
10790TIP3   OH253784   0.861   0.396  14.833  0.2093  0.0060  0.2165
10790TIP3    H153785   0.792   0.351  14.882  1.6126 -0.8095  1.5323
10790TIP3    H253786   0.894   0.330  14.772  1.1847 -0.2765  1.0276
10791TIP3   OH253787   5.033   4.148  12.474  0.4091 -0.1325 -0.7753
10791TIP3    H153788   4.969   4.139  12.544 -3.6854  0.5775 -4.0161
10791TIP3    H253789   5.097   4.079  12.490 -0.4953 -0.2880  3.2672
10792TIP3   OH253790   1.459   3.795   3.025 -0.1110 -0.8370 -0.0241
10792TIP3    H153791   1.550   3.823   3.014 -0.3719  0.2854  0.5230
10792TIP3    H253792   1.433   3.762   2.939 -0.0238  1.3825 -0.9619
10793TIP3   OH253793   4.188   0.653   3.920  0.2312  0.6041  0.0317
10793TIP3    H153794   4.254   0.585   3.924  0.4566  0.7413 -1.0158
10793TIP3    H253795   4.170   0.675   4.011  0.4792 -0.5341  0.3633
10794TIP3   OH253796   2.599   0.897   5.099  0.1366  0.0038  0.3447
10794TIP3    H153797   2.591   0.972   5.041  0.4746 -0.5313 -0.4054
10794TIP3    H253798   2.520   0.899   5.153 -0.3923  0.2478 -0.4323
10795TIP3   OH253799   3.673   1.118   0.361 -0.0516 -0.0619 -0.2427
10795TIP3    H153800   3.722   1.094   0.283 -0.4764  2.6747 -1.4922
10795TIP3    H253801   3.734   1.107   0.433  2.1234  2.1188 -1.6128
10796TIP3   OH253802   2.685   0.587   0.205  0.3316  0.3822 -0.3616
10796TIP3    H153803   2.726   0.674   0.210 -1.2656  1.2402 -1.2613
10796TIP3    H253804   2.606   0.594   0.258 -0.6313  0.0114 -1.6680
10797TIP3   OH253805   3.556   5.905  10.940 -0.2369 -0.0213 -0.4427
10797TIP3    H153806   3.478   5.859  10.910  0.1836 -0.3387 -1.0937
10797TIP3    H253807   3.622   5.836  10.949  0.7491  0.5536 -2.5905
10798TIP3   OH253808   5.951   1.769   3.501 -0.1962 -0.5958 -0.1842
10798TIP3    H153809   5.861   1.786   3.529 -0.2157 -0.5450 -0.2787
10798TIP3    H253810   5.958   1.810   3.415 -0.0190 -0.4164 -0.0827
10799TIP3   OH253811   6.428   1.435   1.521  0.4961  0.4665  0.5938
10799TIP3    H153812   6.468   1.516   1.554  3.6767 -1.0433  0.8152
10799TIP3    H253813   6.431   1.444   1.426  1.2959  0.4158  0.6110
10800TIP3   OH253814   2.375   1.481   5.515 -0.6858  0.3727 -0.0872
10800TIP3    H153815   2.311   1.531   5.464 -0.8400 -0.3356 -0.5965
10800TIP3    H253816   2.331   1.399   5.535  0.3313 -0.4470 -1.1022
10801TIP3   OH253817   5.356   3.912  12.196 -0.2472 -0.0265  0.2701
10801TIP3    H153818   5.399   3.974  12.137  0.2011 -0.2133  0.3986
10801TIP3    H253819   5.279   3.882  12.148 -0.1135  0.1389 -0.0462
10802TIP3   OH253820   1.428   0.351  13.086  0.6339 -0.0038  0.2284
10802TIP3    H153821   1.421   0.438  13.049  0.4537  0.8256  2.1000
10802TIP3    H253822   1.339   0.330  13.117  1.1160  0.1203  1.7864
10803TIP3   OH253823   5.705   2.353   6.353 -0.0367 -0.0987  0.0528
10803TIP3    H153824   5.627   2.307   6.385  0.1300 -0.3891  0.0505
10803TIP3    H253825   5.771   2.284   6.344  0.2488  0.1595  0.1445
10804TIP3   OH253826   1.188   1.244   2.178 -0.4968  0.1058  0.1440
10804TIP3    H153827   1.252   1.313   2.196 -1.2449  0.9829 -0.4832
10804TIP3    H253828   1.240   1.166   2.161  0.3822  0.6824  0.1632
10805TIP3   OH253829   6.763   0.099   0.126 -0.0520  0.2197  0.5794
10805TIP3    H153830   6.731   0.095   0.216  1.8014 -0.1996  1.2606
10805TIP3    H253831   6.858   0.091   0.134  0.0777 -0.9763 -1.4814
10806TIP3   OH253832   3.571   1.181   3.577 -0.2880  0.0274 -0.0933
10806TIP3    H153833   3.638   1.114   3.563  1.1178  1.3164  0.2373
10806TIP3    H253834   3.557   1.220   3.491 -0.9124 -0.4646 -0.2314
10807TIP3   OH253835   3.508   6.650  14.904  0.0646  0.3872  0.3460
10807TIP3    H153836   3.492   6.672  14.812 -0.6530 -0.9194  0.1294
10807TIP3    H253837   3.541   6.731  14.943 -1.6516  1.5949 -0.5754
10808TIP3   OH253838   1.126   0.615  11.098 -0.1246  0.5983  0.4120
10808TIP3    H153839   1.185   0.591  11.170 -1.6211 -2.2800  0.8517
10808TIP3    H253840   1.038   0.606  11.136 -0.9197  1.7695 -1.0483
10809TIP3   OH253841   3.541   3.098   3.071 -0.2498  0.1509 -0.3405
10809TIP3    H153842   3.537   3.161   3.143 -1.3101 -1.3339  0.9870
10809TIP3    H253843   3.509   3.016   3.109  0.2539 -0.9948 -2.2175
10810TIP3   OH253844   2.879   5.720   2.777  0.3287  0.6835 -0.4725
10810TIP3    H153845   2.837   5.635   2.791 -0.4553  1.0889 -0.3380
10810TIP3    H253846   2.806   5.782   2.769  0.8996  1.4139 -0.1181
10811TIP3   OH253847   0.108   3.140   6.460 -0.0824  0.5929  0.1513
10811TIP3    H153848   0.173   3.085   6.417  1.1298  1.7126  0.4825
10811TIP3    H253849   0.139   3.229   6.447 -0.8507  1.0861  1.4577
10812TIP3   OH253850   1.212   5.080   0.878  0.0015  1.0365  1.0739
10812TIP3    H153851   1.272   5.007   0.892 -0.6187 -0.0194 -1.2414
10812TIP3    H253852   1.153   5.078   0.953 -0.0380 -0.8934  1.0273
10813TIP3   OH253853   5.934   5.996   5.537 -0.5126 -0.2687 -0.0520
10813TIP3    H153854   5.945   6.089   5.560 -0.0971 -0.3839  0.2151
10813TIP3    H253855   6.011   5.953   5.572 -0.8979 -0.7865  0.1726
10814TIP3   OH253856   4.428   0.211   0.873 -0.0204  0.4145 -0.9595
10814TIP3    H153857   4.332   0.204   0.865 -0.0954 -0.0184  0.1747
10814TIP3    H253858   4.456   0.125   0.904  0.9623 -0.0313 -2.9389
10815TIP3   OH253859   6.489   6.348  12.386  0.1733  0.4502 -0.4184
10815TIP3    H153860   6.398   6.365  12.363  0.5275  1.6743 -0.9860
10815TIP3    H253861   6.496   6.373  12.479 -0.5218 -1.5974  0.2504
10816TIP3   OH253862   1.451   1.425  17.209  0.0654  0.5737  0.8888
10816TIP3    H153863   1.399   1.347  17.232 -1.1019  0.7084 -1.0229
10816TIP3    H253864   1.513   1.393  17.143  0.5347  0.9942  1.1244
10817TIP3   OH253865   1.510   1.123   1.966 -0.0729 -0.1090  0.0823
10817TIP3    H153866   1.443   1.094   2.028 -0.2210  2.3666  1.2016
10817TIP3    H253867   1.483   1.212   1.942  1.3380 -0.0929 -1.6320
10818TIP3   OH253868   0.120   2.510  13.291  0.5914  0.4047  0.0731
10818TIP3    H153869   0.030   2.480  13.306  0.3113  0.5346 -1.1962
10818TIP3    H253870   0.121   2.600  13.323  0.8087 -0.1816  1.8133
10819TIP3   OH253871   3.242   4.908   0.980  0.1049 -0.1080 -0.0953
10819TIP3    H153872   3.153   4.942   0.980  0.4660  0.8722  0.3626
10819TIP3    H253873   3.232   4.815   1.003 -0.8990 -0.3664 -1.3952
10820TIP3   OH253874   4.915   0.779  11.739  0.3634  0.0186 -0.3431
10820TIP3    H153875   4.996   0.748  11.781  0.2041 -0.0814 -0.1063
10820TIP3    H253876   4.869   0.826  11.808 -0.5547 -1.3255  0.0040
10821TIP3   OH253877   1.517   4.143  16.537  0.3233  0.1195 -1.1179
10821TIP3    H153878   1.441   4.107  16.490 -0.2558  0.5617 -0.5373
10821TIP3    H253879   1.496   4.129  16.629  1.7133 -1.2981 -0.9619
10822TIP3   OH253880   0.157   1.356   4.197 -0.0266 -0.5199  0.2960
10822TIP3    H153881   0.130   1.430   4.142  0.5186 -1.4635 -1.3127
10822TIP3    H253882   0.089   1.350   4.264  0.5082  2.1360  1.1944
10823TIP3   OH253883   2.249   5.052  16.274  0.5415  0.2926 -0.2861
10823TIP3    H153884   2.330   5.039  16.323  0.9242  0.9884 -0.7195
10823TIP3    H253885   2.202   5.121  16.321 -0.0811 -0.5105  0.2953
10824TIP3   OH253886   4.322   4.548   4.132  0.1695  0.0412  0.3744
10824TIP3    H153887   4.255   4.554   4.064  0.1962  2.4897  0.4736
10824TIP3    H253888   4.384   4.618   4.110  1.5186 -0.7472  1.5285
10825TIP3   OH253889   4.310   5.376  13.447  0.2900  0.0794 -0.2398
10825TIP3    H153890   4.263   5.435  13.387  0.3238 -0.2108 -0.5544
10825TIP3    H253891   4.292   5.412  13.534  0.7065  0.8422 -0.4614
10826TIP3   OH253892   1.310   4.545  14.573  0.0120 -0.1927 -0.0997
10826TIP3    H153893   1.298   4.638  14.555  0.3112  0.6143  3.2896
10826TIP3    H253894   1.221   4.510  14.579 -0.1546  0.2783  0.2829
10827TIP3   OH253895   5.346   3.103  16.015 -0.0136 -0.0108 -0.6976
10827TIP3    H153896   5.277   3.166  15.995  0.6983  0.7654 -0.7449
10827TIP3    H253897   5.343   3.093  16.110 -0.6404 -0.5158 -0.7620
10828TIP3   OH253898   0.660   1.110   6.140  0.2071 -0.6889  0.2314
10828TIP3    H153899   0.646   1.127   6.233  0.8755 -0.5567  0.3095
10828TIP3    H253900   0.749   1.075   6.135 -0.4726 -2.4706 -0.1371
10829TIP3   OH253901   0.937   5.763   4.783  0.1705 -0.1525 -0.2312
10829TIP3    H153902   0.948   5.846   4.736 -0.3141  1.3694  2.1465
10829TIP3    H253903   0.860   5.723   4.742 -1.7050  2.2391  0.6760
10830TIP3   OH253904   1.333   0.589   2.068  0.6569  0.1565 -0.1094
10830TIP3    H153905   1.255   0.622   2.113  1.6021 -0.5863  2.1998
10830TIP3    H253906   1.351   0.505   2.110  2.1774 -0.1215 -1.2426
10831TIP3   OH253907   1.829   0.777  16.073 -0.0812  0.1950  0.3188
10831TIP3    H153908   1.897   0.832  16.035 -1.5271  0.0829 -2.6996
10831TIP3    H253909   1.759   0.838  16.096 -0.2635 -0.0336  0.3714
10832TIP3   OH253910   6.652   2.948  10.693 -0.0641  0.4039 -0.0810
10832TIP3    H153911   6.568   2.992  10.703 -0.1826  0.3577 -0.8621
10832TIP3    H253912   6.717   3.018  10.701 -0.1982  0.5238 -0.0384
10833TIP3   OH253913   6.295   6.016  15.912 -0.0280  0.0591 -0.4619
10833TIP3    H153914   6.308   5.922  15.901 -0.2103 -0.0120 -0.0897
10833TIP3    H253915   6.200   6.027  15.912 -0.0037  0.2814 -0.8090
10834TIP3   OH253916   2.880   0.988   5.593  0.2563 -0.2581 -0.3312
10834TIP3    H153917   2.858   1.076   5.624 -0.0585  0.4794 -2.4496
10834TIP3    H253918   2.803   0.962   5.542  0.2589 -1.8734  0.4455
10835TIP3   OH253919   2.046   0.509   1.370  0.0670  0.1007 -0.1999
10835TIP3    H153920   1.967   0.552   1.404  1.2258  1.6521  0.6710
10835TIP3    H253921   2.079   0.569   1.303  0.2232 -0.8148 -0.9712
10836TIP3   OH253922   3.748   3.668   1.337  0.2404 -0.1728  0.6189
10836TIP3    H153923   3.821   3.694   1.282  0.9722 -0.8118  1.2549
10836TIP3    H253924   3.706   3.750   1.363 -1.2769  0.1115 -2.3163
10837TIP3   OH253925   3.971   0.538  12.760  0.1018  0.3219 -0.6076
10837TIP3    H153926   3.891   0.523  12.810 -0.8859  0.6185 -2.0493
10837TIP3    H253927   3.989   0.632  12.770  0.2509  0.2658 -0.3304
10838TIP3   OH253928   1.467   0.609  14.215 -0.3252  0.2646  0.5040
10838TIP3    H153929   1.526   0.641  14.282  2.7316 -0.5047 -1.6188
10838TIP3    H253930   1.427   0.688  14.178 -0.4990  0.8205  1.8350
10839TIP3   OH253931   5.328   3.678   3.558  0.0536 -0.1452  0.3584
10839TIP3    H153932   5.284   3.630   3.487 -0.9777 -1.4883  1.8259
10839TIP3    H253933   5.256   3.709   3.613  0.8589 -0.0798  1.3927
10840TIP3   OH253934   3.697   5.557  12.122  0.1442  0.0125 -0.0383
10840TIP3    H153935   3.723   5.510  12.042 -3.1253 -0.2488 -1.0910
10840TIP3    H253936   3.667   5.489  12.181  0.6537  0.3687  0.6355
10841TIP3   OH253937   6.212   5.204  16.240  0.3630 -0.1043  0.0860
10841TIP3    H153938   6.141   5.201  16.304  0.6810 -1.2516  0.4046
10841TIP3    H253939   6.200   5.288  16.195 -1.2266 -0.3069  0.0870
10842TIP3   OH253940   2.511   5.321  13.371 -0.4216  0.1975 -0.4458
10842TIP3    H153941   2.427   5.362  13.390 -0.2449  0.9861 -1.3312
10842TIP3    H253942   2.569   5.353  13.440 -0.6764  0.1686 -0.2144
10843TIP3   OH253943   0.209   1.044  16.423 -0.7156  0.1522  0.2626
10843TIP3    H153944   0.244   0.993  16.495 -0.7338  1.4133  1.2067
10843TIP3    H253945   0.116   1.025  16.423 -0.5290 -0.8121 -0.2488
10844TIP3   OH253946   3.897   6.055  16.743  0.3433 -0.2729 -0.4079
10844TIP3    H153947   3.915   5.961  16.743 -2.1350 -0.8166 -1.8216
10844TIP3    H253948   3.844   6.070  16.665 -2.1432  1.6778  1.4785
10845TIP3   OH253949   0.220   5.395  13.443  0.1777 -0.3195 -0.2861
10845TIP3    H153950   0.237   5.395  13.538 -0.7109  0.8439 -0.0991
10845TIP3    H253951   0.262   5.474  13.411 -0.5052 -0.0918 -0.6578
10846TIP3   OH253952   3.059   5.960  16.337  0.3542 -0.3748  0.2094
10846TIP3    H153953   3.054   5.941  16.431 -0.4581 -1.1376  0.0281
10846TIP3    H253954   2.969   5.978  16.312  0.8853  2.7533  0.1150
10847TIP3   OH253955   0.161   0.882  11.630  0.5228  0.8082  0.0704
10847TIP3    H153956   0.229   0.901  11.566  0.6112 -0.0577 -0.1009
10847TIP3    H253957   0.094   0.835  11.581  0.7177 -0.1114  0.6610
10848TIP3   OH253958   3.549   0.841  11.282 -0.6719 -0.1207  0.1507
10848TIP3    H153959   3.621   0.845  11.218  0.3151 -0.3328  1.2050
10848TIP3    H253960   3.591   0.812  11.363 -2.3343 -2.5406  0.2622
10849TIP3   OH253961   5.198   2.540  11.954 -0.1320  0.2621  0.4826
10849TIP3    H153962   5.293   2.539  11.948 -0.1948  0.9224 -0.9705
10849TIP3    H253963   5.168   2.508  11.869 -1.2007  2.9206 -0.2494
10850TIP3   OH253964   2.535   2.024   5.792  0.3221 -0.5171  0.0465
10850TIP3    H153965   2.485   1.985   5.721 -2.3067  1.2343  0.7686
10850TIP3    H253966   2.559   1.951   5.848 -1.0623 -1.5173 -0.6110
10851TIP3   OH253967   4.667   2.155   0.743  0.0422  0.0812 -0.1121
10851TIP3    H153968   4.690   2.174   0.652 -3.5058 -0.7161 -1.3548
10851TIP3    H253969   4.594   2.214   0.762 -0.5821 -1.1548  1.5242
10852TIP3   OH253970   5.974   5.979   3.902 -0.0673 -0.2493  1.1423
10852TIP3    H153971   6.059   6.002   3.940 -0.1016  0.4473  0.8089
10852TIP3    H253972   5.944   6.059   3.859 -0.3776 -0.8005  0.2941
10853TIP3   OH253973   0.018   3.606   5.610 -0.0077  0.0632  0.0605
10853TIP3    H153974   0.011   3.696   5.576  0.0849  0.2311  0.4721
10853TIP3    H253975   0.011   3.550   5.533  0.2746  0.4410 -0.2432
10854TIP3   OH253976   5.258   4.565   3.941  0.1090  0.6705 -0.1293
10854TIP3    H153977   5.186   4.507   3.965 -0.2382  1.7331  1.5972
10854TIP3    H253978   5.305   4.579   4.023  2.0440  0.3728 -1.1267
10855TIP3   OH253979   5.136   0.935   1.129  0.6700  0.0665  0.2024
10855TIP3    H153980   5.069   0.888   1.178  1.0966 -3.8132 -2.5253
10855TIP3    H253981   5.098   0.949   1.042  2.2113  0.8260 -0.3961
10856TIP3   OH253982   5.736   1.509  14.983 -0.2328  0.5626  0.2637
10856TIP3    H153983   5.654   1.475  15.018  0.5916 -0.1608  1.5686
10856TIP3    H253984   5.712   1.546  14.898 -1.9620  0.6769  0.7572
10857TIP3   OH253985   3.394   3.176  12.180 -0.5203 -0.3627  0.2138
10857TIP3    H153986   3.458   3.126  12.130  1.5062 -0.5815  2.7779
10857TIP3    H253987   3.378   3.255  12.128  1.2125 -0.6943 -0.9057
10858TIP3   OH253988   1.614   2.223  14.392 -0.0041 -0.2650  0.1470
10858TIP3    H153989   1.638   2.313  14.413 -2.5009  0.0982  1.9213
10858TIP3    H253990   1.640   2.212  14.301  1.8280  1.6909  0.3635
10859TIP3   OH253991   3.391   5.623  16.257 -0.4398  0.6168 -0.5254
10859TIP3    H153992   3.441   5.703  16.236  0.2504  0.6197  0.9618
10859TIP3    H253993   3.366   5.635  16.348  1.5162 -1.7631  0.4364
10860TIP3   OH253994   2.378   5.063   0.724  0.4071 -0.3259  0.2787
10860TIP3    H153995   2.410   5.041   0.811  1.8018  1.3824  0.2480
10860TIP3    H253996   2.434   5.135   0.695 -1.9706  1.2309 -0.7700
10861TIP3   OH253997   1.918   2.023  11.317  0.7206  0.0601  0.2015
10861TIP3    H153998   1.908   1.930  11.299 -0.8827  0.1629  0.4015
10861TIP3    H253999   2.009   2.033  11.343  1.7582 -0.9579 -2.6268
10862TIP3   OH254000   5.213   6.041  14.349 -0.1461  0.1842 -0.5352
10862TIP3    H154001   5.164   6.108  14.303  0.9709  3.3811  2.4822
10862TIP3    H254002   5.281   6.089  14.396  0.6810 -3.0586  1.9602
10863TIP3   OH254003   5.518   6.289   0.978 -0.3900 -0.0517 -0.5212
10863TIP3    H154004   5.533   6.228   0.907  0.8020 -0.2758 -0.0899
10863TIP3    H254005   5.423   6.286   0.993 -0.3098 -2.1965 -0.1570
10864TIP3   OH254006   1.982   1.292  15.648 -0.1866  0.5345  0.1295
10864TIP3    H154007   1.922   1.218  15.642  0.6799 -0.1554 -0.2203
10864TIP3    H254008   2.062   1.262  15.605  0.0298  1.8391 -0.4290
10865TIP3   OH254009   6.627   2.096  17.119  0.5699 -0.1612  0.1456
10865TIP3    H154010   6.715   2.085  17.156  0.7556  0.8113  0.0153
10865TIP3    H254011   6.598   2.007  17.100  1.5488 -0.4916  0.1337
10866TIP3   OH254012   0.108   2.558   2.739  0.4278  0.5748 -0.9347
10866TIP3    H154013   0.195   2.518   2.749  0.7779  1.2807 -1.1119
10866TIP3    H254014   0.068   2.511   2.666  1.1546  1.0911 -1.6743
10867TIP3   OH254015   0.189   0.304   3.506  0.2368  0.0516  0.4256
10867TIP3    H154016   0.285   0.305   3.513  0.5115 -1.2539 -2.0882
10867TIP3    H254017   0.167   0.383   3.458  0.2770 -0.6322 -0.7472
10868TIP3   OH254018   3.014   3.100  14.139 -0.0458 -0.1132  0.4184
10868TIP3    H154019   2.961   3.153  14.198 -2.3641 -1.9157  0.1086
10868TIP3    H254020   3.020   3.014  14.182  1.1449 -0.4459 -0.3755
10869TIP3   OH254021   6.097   0.599   4.891 -0.6498 -0.3116  0.2540
10869TIP3    H154022   6.150   0.526   4.924  0.3971 -0.1019 -0.8701
10869TIP3    H254023   6.130   0.675   4.939  0.5509 -0.0799 -0.8904
10870TIP3   OH254024   4.082   2.530   1.669  0.6931  0.1334 -0.0308
10870TIP3    H154025   4.011   2.466   1.660  0.5538 -0.0817  2.1672
10870TIP3    H254026   4.058   2.601   1.609 -2.2498  0.7935  1.7641
10871TIP3   OH254027   2.803   1.907   2.978  0.3374  0.0073  0.2793
10871TIP3    H154028   2.882   1.854   2.971 -0.4023 -1.2522  1.0473
10871TIP3    H254029   2.834   1.997   2.973  1.9149 -0.4330  1.3508
10872TIP3   OH254030   2.276   5.290  16.130  0.2981  0.0109 -0.3388
10872TIP3    H154031   2.339   5.287  16.058  0.7259 -0.1513  0.0337
10872TIP3    H254032   2.240   5.202  16.134  0.3227  0.0013 -0.3206
10873TIP3   OH254033   0.186   1.577   1.212  0.4890  0.3947 -0.6383
10873TIP3    H154034   0.112   1.530   1.250 -0.7452  0.3218 -2.9496
10873TIP3    H254035   0.151   1.617   1.132  2.5084  1.9006 -0.8628
10874TIP3   OH254036   1.190   1.275   3.784  0.2704 -0.1739  0.2189
10874TIP3    H154037   1.166   1.357   3.741  0.6590 -0.9643 -1.5750
10874TIP3    H254038   1.123   1.263   3.852 -0.8873  0.6785 -0.7365
10875TIP3   OH254039   1.928   3.253  15.633 -0.0991 -0.1494 -0.3250
10875TIP3    H154040   1.868   3.204  15.689 -0.8129  1.3722  0.2958
10875TIP3    H254041   1.891   3.244  15.545 -1.9826  1.6909  0.1849
10876TIP3   OH254042   5.243   0.793   2.185 -0.0408 -0.0478  0.0888
10876TIP3    H154043   5.300   0.721   2.158 -0.9239  0.2040 -2.8245
10876TIP3    H254044   5.293   0.841   2.251  0.9850 -2.7006  1.3792
10877TIP3   OH254045   6.177   1.967  12.155  0.3022  0.4060  0.0246
10877TIP3    H154046   6.143   2.046  12.115 -1.9952 -0.6008 -0.1820
10877TIP3    H254047   6.111   1.942  12.219  0.6440 -1.6753 -0.3512
10878TIP3   OH254048   0.838   6.140   3.367 -0.2025  0.3054 -0.0766
10878TIP3    H154049   0.841   6.170   3.276  1.0754  0.1073 -0.1175
10878TIP3    H254050   0.927   6.150   3.399  0.0304 -2.2111  0.2984
10879TIP3   OH254051   2.569   5.138  14.514  0.0247  0.1893  0.0564
10879TIP3    H154052   2.621   5.200  14.565  0.9996 -1.3759  1.0433
10879TIP3    H254053   2.479   5.168  14.524 -0.1897 -1.2151  4.6132
10880TIP3   OH254054   0.942   6.220  16.980  0.1414 -0.2936 -0.8406
10880TIP3    H154055   0.975   6.148  17.034 -1.1314  0.1026  0.5301
10880TIP3    H254056   1.015   6.281  16.973  0.1580 -0.0412  1.0434
10881TIP3   OH254057   0.810   6.017  14.859  0.2150 -0.4743  0.3492
10881TIP3    H154058   0.808   5.963  14.779 -0.6381 -0.7740  0.5642
10881TIP3    H254059   0.724   6.058  14.863  0.2025 -0.5583  1.1795
10882TIP3   OH254060   5.364   1.660   3.538  0.0346 -0.3146  0.0391
10882TIP3    H154061   5.292   1.632   3.595 -0.3738  0.2276 -0.1938
10882TIP3    H254062   5.420   1.713   3.595  0.0092 -0.3627  0.1097
10883TIP3   OH254063   0.854   4.505  16.566  0.4838 -0.1626 -0.3740
10883TIP3    H154064   0.865   4.423  16.614  0.2791 -0.5995 -1.0568
10883TIP3    H254065   0.791   4.485  16.497 -1.5295  1.2253  0.9347
10884TIP3   OH254066   0.704   5.490  15.259 -0.5108  0.3496 -0.1043
10884TIP3    H154067   0.665   5.573  15.287  0.5975  0.7833  0.2503
10884TIP3    H254068   0.763   5.467  15.331  2.0331  1.2200 -1.7391
10885TIP3   OH254069   6.762   6.370   0.429  0.0202 -0.0354  0.2949
10885TIP3    H154070   6.764   6.361   0.524 -0.5601  0.6875  0.3797
10885TIP3    H254071   6.789   6.284   0.396 -0.8035 -0.6161  1.1036
10886TIP3   OH254072   2.397   2.127   5.290 -0.4390  0.4402 -0.4311
10886TIP3    H154073   2.391   2.172   5.374  1.1812 -0.4123  0.1795
10886TIP3    H254074   2.385   2.034   5.312  1.8885  0.0001 -0.8353
10887TIP3   OH254075   0.433   1.067  16.177  0.1520  0.5224  0.1206
10887TIP3    H154076   0.426   0.974  16.153  0.4498  0.5502 -0.0809
10887TIP3    H254077   0.398   1.072  16.266 -1.0803  0.4309 -0.3465
10888TIP3   OH254078   6.616   1.642   3.288 -0.4472 -0.2454 -0.3888
10888TIP3    H154079   6.637   1.621   3.379 -0.3237  1.0267 -0.0983
10888TIP3    H254080   6.526   1.611   3.277  0.4376 -2.9528 -0.7146
10889TIP3   OH254081   0.553   3.802  14.544  0.3492  0.1816 -0.0496
10889TIP3    H154082   0.549   3.708  14.559 -0.7987  0.4548  1.5441
10889TIP3    H254083   0.549   3.811  14.448 -0.0837 -1.3544 -0.2031
10890TIP3   OH254084   6.560   0.785  13.988 -0.1693 -0.0550 -0.5587
10890TIP3    H154085   6.543   0.760  14.079  1.3045  2.1601  0.4116
10890TIP3    H254086   6.650   0.758  13.972  0.5616  2.0819 -0.3419
10891TIP3   OH254087   4.769   2.575   4.458  0.2217  0.7462 -0.3785
10891TIP3    H154088   4.758   2.607   4.369  1.1599 -3.4147 -2.2485
10891TIP3    H254089   4.686   2.533   4.479  0.7747 -0.3611 -0.3261
10892TIP3   OH254090   3.775   4.972  12.801 -0.5905 -0.0644  0.8127
10892TIP3    H154091   3.861   5.006  12.780 -1.1146  1.8660  1.5086
10892TIP3    H254092   3.777   4.880  12.775  0.9992  0.4402 -1.0316
10893TIP3   OH254093   5.605   4.059  16.322 -0.2498 -0.2492 -0.1731
10893TIP3    H154094   5.627   3.968  16.301 -1.2752 -0.6514  0.4321
10893TIP3    H254095   5.511   4.059  16.337 -0.0723  0.6271  1.2043
10894TIP3   OH254096   0.778   2.200  11.206  0.3678 -0.2571 -0.0939
10894TIP3    H154097   0.721   2.216  11.131  1.4654  0.1719 -0.8692
10894TIP3    H254098   0.827   2.282  11.217  1.2305 -0.7904  0.1808
10895TIP3   OH254099   2.892   5.615  13.198 -0.6512  0.0002 -0.1580
10895TIP3    H154100   2.838   5.675  13.147 -1.5519 -1.8700 -1.5065
10895TIP3    H254101   2.871   5.636  13.289 -0.1800  2.3398 -0.5207
10896TIP3   OH254102   2.630   2.283   5.269  0.7693  0.0152  0.2387
10896TIP3    H154103   2.594   2.368   5.242  1.7699  1.2078  2.4416
10896TIP3    H254104   2.555   2.224   5.266 -0.2424  1.2688 -0.1327
10897TIP3   OH254105   4.048   0.359  15.076  0.3629 -0.8659  0.0088
10897TIP3    H154106   4.103   0.365  15.154  1.1165 -0.2944 -0.5529
10897TIP3    H254107   4.005   0.273  15.083 -0.5746 -0.2988  1.6879
10898TIP3   OH254108   1.506   1.684  15.554  0.1755 -0.2099  0.4563
10898TIP3    H154109   1.600   1.672  15.547 -0.0885 -2.4944  0.1279
10898TIP3    H254110   1.482   1.734  15.476  1.1024  0.4455  0.5760
10899TIP3   OH254111   0.684   0.472  11.123  0.2175 -0.0089 -0.3366
10899TIP3    H154112   0.646   0.559  11.135  1.5165  0.7140 -1.2567
10899TIP3    H254113   0.673   0.429  11.208 -1.8727  0.4353 -0.3207
10900TIP3   OH254114   3.028   5.710   6.564 -0.4021  0.5161 -0.0338
10900TIP3    H154115   3.026   5.735   6.472  1.2008  0.3959 -0.1245
10900TIP3    H254116   2.965   5.638   6.570  1.8970 -1.8492 -1.8300
10901TIP3   OH254117   5.669   0.967   5.003  0.1102 -0.4132  0.4911
10901TIP3    H154118   5.704   1.030   4.939  0.1029 -0.3649  0.5343
10901TIP3    H254119   5.618   1.021   5.063 -0.8740 -0.5899 -0.1522
10902TIP3   OH254120   1.560   1.495  15.211  0.1734  0.0464 -0.4997
10902TIP3    H154121   1.613   1.478  15.133 -0.0988  0.4170 -0.7671
10902TIP3    H254122   1.623   1.502  15.283  0.5288  0.9463 -0.8898
10903TIP3   OH254123   2.418   2.517  13.301 -0.1501 -0.1783 -0.1455
10903TIP3    H154124   2.346   2.562  13.259  0.1451  0.7851  0.3592
10903TIP3    H254125   2.386   2.496  13.389 -0.0151 -0.2714 -0.1167
10904TIP3   OH254126   3.291   5.501  11.999 -0.1577  0.6628  0.1774
10904TIP3    H154127   3.322   5.446  12.070 -1.7671 -2.4849 -1.3601
10904TIP3    H254128   3.365   5.506  11.938  0.1565  0.5679  0.5543
10905TIP3   OH254129   3.858   3.289   5.245  0.1916  0.1707  0.3762
10905TIP3    H154130   3.877   3.196   5.248 -1.2950 -0.1397  1.8688
10905TIP3    H254131   3.771   3.297   5.284 -0.3854  2.0208 -1.1093
10906TIP3   OH254132   5.879   3.953   4.690 -0.2966 -0.5590  0.3287
10906TIP3    H154133   5.810   3.919   4.747 -1.0099 -0.8781 -0.6872
10906TIP3    H254134   5.867   4.048   4.691 -0.9441 -0.6312 -0.0645
10907TIP3   OH254135   2.668   0.202  14.171 -0.0602  0.6703  0.2216
10907TIP3    H154136   2.578   0.232  14.183 -0.6143 -0.3461 -1.0934
10907TIP3    H254137   2.682   0.138  14.241 -2.0429 -2.6604 -2.1391
10908TIP3   OH254138   6.595   6.002   1.483  0.4954 -0.9945 -0.4153
10908TIP3    H154139   6.632   6.017   1.396 -0.4743  0.7351 -0.5727
10908TIP3    H254140   6.534   5.930   1.471 -0.3165 -0.1679 -1.4075
10909TIP3   OH254141   3.769   5.845   5.614  0.0710  0.2236  0.3167
10909TIP3    H154142   3.862   5.853   5.636  0.5801 -1.9489 -0.8189
10909TIP3    H254143   3.729   5.806   5.692  0.0196  1.4793  0.9364
10910TIP3   OH254144   3.826   3.408   2.150 -0.1159  0.4416 -0.3891
10910TIP3    H154145   3.837   3.421   2.244 -0.8849 -0.3670 -0.1676
10910TIP3    H254146   3.732   3.391   2.139 -0.1896  1.4031 -1.4232
10911TIP3   OH254147   0.502   1.172   1.074 -0.1896 -0.3331 -0.0012
10911TIP3    H154148   0.514   1.078   1.085  1.6650 -0.3782 -1.9626
10911TIP3    H254149   0.408   1.185   1.088 -0.6470 -2.6015 -0.5575
10912TIP3   OH254150   5.823   1.721  10.859  0.4603  0.4524 -0.5327
10912TIP3    H154151   5.832   1.628  10.836 -4.8126 -0.9740  1.7511
10912TIP3    H254152   5.829   1.722  10.955 -1.0115  2.2037 -0.4135
10913TIP3   OH254153   4.686   6.257  16.325 -0.6832 -0.0216  0.1641
10913TIP3    H154154   4.682   6.325  16.258  0.7373 -1.3073 -1.3127
10913TIP3    H254155   4.764   6.206  16.303 -0.9476 -1.3320  2.0040
10914TIP3   OH254156   0.598   2.947   0.312  0.2856 -0.6214 -0.2356
10914TIP3    H154157   0.624   2.935   0.220 -0.4651 -0.6901 -0.4417
10914TIP3    H254158   0.538   2.874   0.329 -0.9350  0.3592 -0.2037
10915TIP3   OH254159   3.031   4.495  15.675  0.3521 -0.5290 -0.3326
10915TIP3    H154160   3.120   4.475  15.705  0.3108  0.2952  0.4117
10915TIP3    H254161   3.024   4.454  15.589  2.0642  0.8557 -1.1945
10916TIP3   OH254162   0.611   4.735   1.201 -0.1399 -0.0414  0.4517
10916TIP3    H154163   0.610   4.800   1.272 -0.0806  0.1023  0.3200
10916TIP3    H254164   0.546   4.767   1.139  0.7276  0.5123 -0.1791
10917TIP3   OH254165   6.380   6.286   2.413 -0.5561 -0.1321  0.2463
10917TIP3    H154166   6.310   6.307   2.474  0.2546  0.7446  0.8954
10917TIP3    H254167   6.427   6.368   2.401 -0.1437 -0.5072 -0.8498
10918TIP3   OH254168   1.398   2.601  11.617  0.2149 -0.1909 -0.6155
10918TIP3    H154169   1.306   2.623  11.602 -0.7942 -3.2418  0.2854
10918TIP3    H254170   1.439   2.607  11.531 -1.1906 -0.2273 -1.3094
10919TIP3   OH254171   4.542   6.327   4.234  0.5842 -0.4358  0.2643
10919TIP3    H154172   4.587   6.367   4.159 -1.0672 -0.5623 -0.8628
10919TIP3    H254173   4.480   6.266   4.194 -1.8273  0.9787  1.5996
10920TIP3   OH254174   2.139   1.518   5.367  0.4048  0.3262  0.5228
10920TIP3    H154175   2.085   1.501   5.444 -0.6308  1.2650  0.0358
10920TIP3    H254176   2.105   1.458   5.300  0.5439  0.3058  0.4711
10921TIP3   OH254177   4.579   2.575   6.325  0.3675  0.8830  0.5833
10921TIP3    H154178   4.578   2.661   6.365  0.5382  0.4624  1.5307
10921TIP3    H254179   4.623   2.519   6.390  0.0164  0.0323  0.1092
10922TIP3   OH254180   6.629   5.772   2.299 -0.4630  0.3542 -0.0795
10922TIP3    H154181   6.611   5.693   2.249  1.3053 -1.0792  1.3946
10922TIP3    H254182   6.673   5.830   2.238 -1.8517  0.2852 -1.2005
10923TIP3   OH254183   5.515   3.033   0.502 -0.4868  0.1066 -0.2474
10923TIP3    H154184   5.572   3.101   0.466 -0.3245  0.0286 -0.1334
10923TIP3    H254185   5.541   2.953   0.456 -2.1619  0.5012 -2.0410
10924TIP3   OH254186   4.580   3.436   0.246 -0.0828  0.3196 -0.3134
10924TIP3    H154187   4.524   3.382   0.189 -0.6883  1.0535 -0.4205
10924TIP3    H254188   4.652   3.377   0.270 -1.0526 -0.7547  0.0849
10925TIP3   OH254189   4.906   4.598  12.589 -0.2669  0.0230  0.3216
10925TIP3    H154190   4.988   4.572  12.631 -0.3350  0.9288  1.0478
10925TIP3    H254191   4.838   4.577  12.653 -0.5286 -0.0265  0.0286
10926TIP3   OH254192   2.633   1.719  12.505  0.3341 -0.2576  0.3431
10926TIP3    H154193   2.592   1.797  12.467  1.1533  0.7027  1.3837
10926TIP3    H254194   2.685   1.682  12.433  2.0913  1.6912  0.5252
10927TIP3   OH254195   4.856   6.688   4.396 -0.3823 -0.3126  0.0515
10927TIP3    H154196   4.817   6.601   4.394  1.4809 -1.1865 -1.0841
10927TIP3    H254197   4.814   6.735   4.324 -1.1432 -0.3758  0.4505
10928TIP3   OH254198   1.533   0.884   3.663  0.6739 -0.1061  0.3065
10928TIP3    H154199   1.443   0.874   3.635 -0.1759 -2.3429  3.2621
10928TIP3    H254200   1.558   0.972   3.636 -2.5522  0.7653 -0.1814
10929TIP3   OH254201   4.592   2.882   3.524  0.1247  0.6540 -0.5925
10929TIP3    H154202   4.580   2.871   3.618 -0.3396  0.2019 -0.7034
10929TIP3    H254203   4.629   2.799   3.494 -1.9070 -0.1124 -1.1713
10930TIP3   OH254204   6.628   1.935   5.644  0.3626  0.4653 -0.2815
10930TIP3    H154205   6.646   1.854   5.596  0.3618  0.1300  0.2750
10930TIP3    H254206   6.544   1.965   5.610  1.1897  1.1984 -1.7672
10931TIP3   OH254207   4.558   5.319   3.830 -0.1449 -0.3197  0.5988
10931TIP3    H154208   4.483   5.278   3.873 -0.3527 -0.7487 -0.1495
10931TIP3    H254209   4.520   5.371   3.760  0.3109 -1.9977 -0.9766
10932TIP3   OH254210   1.527   6.291   2.299 -0.2992  0.6242 -0.2255
10932TIP3    H154211   1.459   6.298   2.366  0.2926  1.2057  0.3222
10932TIP3    H254212   1.530   6.197   2.278 -0.3473  0.4070  0.7067
10933TIP3   OH254213   3.563   1.959  15.834  0.6473 -0.2517  0.2100
10933TIP3    H154214   3.536   2.016  15.762 -1.5104 -2.6225 -1.0300
10933TIP3    H254215   3.584   2.019  15.906 -1.5163  2.1283 -0.9774
10934TIP3   OH254216   2.163   1.657  17.045 -0.1019  0.2159 -0.3399
10934TIP3    H154217   2.169   1.562  17.040 -0.8690 -0.0537  2.2491
10934TIP3    H254218   2.069   1.676  17.045  0.0129  0.8588  0.3380
10935TIP3   OH254219   1.098   2.994  10.959 -0.5197  0.1626  0.1957
10935TIP3    H154220   1.100   2.898  10.961 -1.0279  0.0961 -1.4150
10935TIP3    H254221   1.182   3.019  10.921 -0.2981  0.3761  0.8113
10936TIP3   OH254222   1.211   1.598  11.866 -0.3185 -0.0971 -0.2431
10936TIP3    H154223   1.267   1.521  11.861  0.6739  0.6283 -0.6398
10936TIP3    H254224   1.134   1.569  11.915  1.0252 -0.7589  1.5693
10937TIP3   OH254225   4.458   4.990  15.875  0.0440 -0.0725 -0.6664
10937TIP3    H154226   4.438   4.929  15.946 -1.2492  0.9315 -0.1411
10937TIP3    H254227   4.512   5.058  15.916 -2.1194  1.4370 -0.1570
10938TIP3   OH254228   6.544   6.543  16.390 -0.4998  0.1708 -0.4927
10938TIP3    H154229   6.512   6.455  16.410  1.0470 -0.5086 -0.8832
10938TIP3    H254230   6.529   6.593  16.471 -2.0254 -0.2377 -0.4954
10939TIP3   OH254231   1.590   0.657   1.569 -0.0524  0.2878  0.0945
10939TIP3    H154232   1.568   0.697   1.653 -1.3031  0.7181 -0.4213
10939TIP3    H254233   1.639   0.578   1.593  2.2251  1.8903  1.1372
10940TIP3   OH254234   6.140   5.633   4.607  0.3759  0.3416  0.5859
10940TIP3    H154235   6.170   5.648   4.696  0.7356  1.0954  0.3454
10940TIP3    H254236   6.046   5.616   4.617  0.5400 -0.2955  1.1660
10941TIP3   OH254237   5.694   1.297   0.469 -0.3182 -0.2803  0.1658
10941TIP3    H154238   5.764   1.297   0.534  0.2351  1.7636 -0.3798
10941TIP3    H254239   5.692   1.386   0.435 -1.4212 -0.9803 -1.7533
10942TIP3   OH254240   4.049   1.629   2.298 -0.0341  0.2059  0.0857
10942TIP3    H154241   4.092   1.711   2.322  0.3427  0.1468 -0.3809
10942TIP3    H254242   4.105   1.590   2.232  0.7278 -1.3027  1.5392
10943TIP3   OH254243   1.546   0.845   5.386 -0.2384 -0.0188 -0.0423
10943TIP3    H154244   1.493   0.802   5.453  0.1375 -1.5415 -0.6677
10943TIP3    H254245   1.511   0.934   5.380  0.2715  0.4777  2.7691
10944TIP3   OH254246   0.382   4.197   4.313  0.2273 -0.1289 -0.1010
10944TIP3    H154247   0.440   4.124   4.336  0.6003  0.3552  0.5429
10944TIP3    H254248   0.400   4.214   4.221  2.0320  0.7969  0.3776
10945TIP3   OH254249   2.408   1.848  11.775 -0.3837 -0.2080 -0.0277
10945TIP3    H154250   2.331   1.879  11.822 -0.9934 -0.1889 -1.0050
10945TIP3    H254251   2.389   1.867  11.683  1.0425  0.3184 -0.2288
10946TIP3   OH254252   1.194   4.216  12.071  0.1451  0.3842 -1.0909
10946TIP3    H154253   1.285   4.246  12.074  0.3230 -0.1958 -0.2354
10946TIP3    H254254   1.176   4.185  12.160 -1.1695  1.2890 -1.0034
10947TIP3   OH254255   3.335   0.343  11.528  0.0089 -0.2822  0.5954
10947TIP3    H154256   3.359   0.436  11.529  1.3295 -0.5937  1.5805
10947TIP3    H254257   3.410   0.300  11.485 -0.2087 -0.9738  0.8999
10948TIP3   OH254258   5.869   2.013   0.474  0.3442 -0.4686  0.2357
10948TIP3    H154259   5.928   2.083   0.447 -0.0803 -0.1803  0.0655
10948TIP3    H254260   5.890   1.998   0.566 -2.0868  2.4303  1.4144
10949TIP3   OH254261   5.095   0.678   5.426 -0.3070 -0.4448 -0.1866
10949TIP3    H154262   5.002   0.685   5.447 -0.6280 -1.1570 -1.3189
10949TIP3    H254263   5.138   0.735   5.490 -1.6844  1.5347 -0.9388
10950TIP3   OH254264   2.806   3.363  15.014  0.0014 -0.1482  0.1774
10950TIP3    H154265   2.849   3.395  15.093 -0.1577 -1.6264  0.8923
10950TIP3    H254266   2.714   3.355  15.038 -0.1544 -0.0220 -0.3603
10951TIP3   OH254267   1.977   2.137   1.002 -0.1052  0.5394 -0.6627
10951TIP3    H154268   2.057   2.095   0.971 -0.6951 -0.5949 -0.7043
10951TIP3    H254269   1.922   2.147   0.924  0.1714  1.7531 -0.7176
10952TIP3   OH254270   6.081   5.012   0.656  0.8126  0.5709 -0.6308
10952TIP3    H154271   6.027   5.091   0.655  3.5605  2.7341  2.0390
10952TIP3    H254272   6.043   4.958   0.726  0.9303  1.1526 -0.1130
10953TIP3   OH254273   0.289   0.948   1.913  0.5239 -0.1923  0.4001
10953TIP3    H154274   0.363   0.958   1.972  0.3188 -1.2476  0.8575
10953TIP3    H254275   0.214   0.979   1.963  0.5667  0.3453  0.1389
10954TIP3   OH254276   4.459   1.481  15.053 -0.1426  0.3593 -0.3013
10954TIP3    H154277   4.458   1.575  15.032 -0.5115  0.4711  0.1913
10954TIP3    H254278   4.552   1.461  15.065 -0.1002  0.7945  0.1397
10955TIP3   OH254279   1.807   5.964   4.906  0.3831  0.2745  0.5340
10955TIP3    H154280   1.863   5.972   4.983 -0.1969 -1.4523  1.1869
10955TIP3    H254281   1.720   5.990   4.936 -0.3578 -2.6585  1.2020
10956TIP3   OH254282   3.062   0.074   0.262 -0.3254  0.4804  0.4263
10956TIP3    H154283   3.091  -0.015   0.242 -0.6927  0.6559 -1.0499
10956TIP3    H254284   2.966   0.069   0.259 -0.3474  1.1523 -0.9438
10957TIP3   OH254285   1.835   1.145   1.096 -0.3512 -0.0951 -0.2371
10957TIP3    H154286   1.820   1.230   1.138 -2.1211 -0.7599  0.5728
10957TIP3    H254287   1.851   1.085   1.169 -1.4608 -0.8875 -0.6098
10958TIP3   OH254288   5.232   4.672  11.231  0.0359 -0.1833 -0.3728
10958TIP3    H154289   5.157   4.693  11.287  0.1496  1.1419 -0.6861
10958TIP3    H254290   5.197   4.608  11.169 -1.3337  1.6014 -1.5381
10959TIP3   OH254291   2.647   1.418   5.044 -0.2858 -0.7179  0.5080
10959TIP3    H154292   2.629   1.471   4.966 -0.2048 -0.2354  0.8112
10959TIP3    H254293   2.578   1.443   5.106  1.5180  1.4330  1.8246
10960TIP3   OH254294   0.913   0.476   0.184 -0.1480 -0.2571  0.3437
10960TIP3    H154295   0.832   0.443   0.222 -2.5479  1.8193 -2.5198
10960TIP3    H254296   0.946   0.403   0.131  0.2417 -1.2802  1.9073
10961TIP3   OH254297   0.376   5.569   5.502 -0.2743  0.0158  0.7868
10961TIP3    H154298   0.312   5.529   5.443 -1.2060  3.3097 -0.6592
10961TIP3    H254299   0.346   5.546   5.590 -2.2987 -0.1680  0.0953
10962TIP3   OH254300   4.176   0.425  11.779  0.0025  0.3965  0.1521
10962TIP3    H154301   4.142   0.352  11.830  0.9528 -0.1277  0.0573
10962TIP3    H254302   4.111   0.494  11.790 -0.9291 -0.4702  0.2074
10963TIP3   OH254303   4.780   5.714  15.447  0.3506  0.3591 -0.3956
10963TIP3    H154304   4.795   5.761  15.529 -0.0702 -0.9765  0.4907
10963TIP3    H254305   4.803   5.623  15.467  2.2057  0.3106 -2.3615
10964TIP3   OH254306   1.802   2.586   0.793 -0.0262 -0.0485  0.5156
10964TIP3    H154307   1.821   2.639   0.715  2.2393  1.1512  1.7863
10964TIP3    H254308   1.850   2.505   0.778  0.8169  0.3780  0.8490
10965TIP3   OH254309   5.031   2.286  11.092  0.0843 -0.0992 -0.2776
10965TIP3    H154310   5.068   2.352  11.033  0.9220 -0.1248  0.1984
10965TIP3    H254311   5.024   2.331  11.177  1.9292 -0.9625  0.3927
10966TIP3   OH254312   3.645   2.060  15.091  0.1348  0.2983  0.0932
10966TIP3    H154313   3.569   2.115  15.110  0.4127  0.1625  1.6926
10966TIP3    H254314   3.612   1.971  15.094  0.5159  0.1758  1.8427
10967TIP3   OH254315   4.179   2.308   5.219 -0.1025  0.5591  0.4169
10967TIP3    H154316   4.271   2.327   5.199 -0.1404  0.0533 -0.2465
10967TIP3    H254317   4.172   2.324   5.313  1.1775 -1.4223  0.9168
10968TIP3   OH254318   0.329   4.969   6.535  0.1890  0.4558 -0.2915
10968TIP3    H154319   0.290   5.010   6.458 -3.3746 -1.5394  0.1956
10968TIP3    H254320   0.281   5.005   6.609  1.6141  0.2883  0.7593
10969TIP3   OH254321   3.869   1.160   0.978 -0.3648 -0.8733  0.3377
10969TIP3    H154322   3.856   1.069   0.952 -0.1902 -0.5886 -0.7766
10969TIP3    H254323   3.928   1.155   1.053 -0.9666 -1.7209  0.7787
10970TIP3   OH254324   4.954   2.378   3.339 -0.7005  0.3985 -0.0022
10970TIP3    H154325   4.898   2.308   3.305  0.3211 -0.4271 -0.0279
10970TIP3    H254326   4.978   2.349   3.427  0.4320  0.2694 -0.3358
10971TIP3   OH254327   3.456   5.509   1.116  0.6712 -0.7457 -0.1230
10971TIP3    H154328   3.488   5.435   1.064  0.2500 -0.8895 -0.1807
10971TIP3    H254329   3.391   5.470   1.174  1.7564 -0.7642  1.1470
10972TIP3   OH254330   5.631   2.355   3.360  0.1441 -0.5663  0.2731
10972TIP3    H154331   5.627   2.417   3.432 -0.3331  0.4120 -0.5599
10972TIP3    H254332   5.552   2.301   3.370 -0.8457  0.7055 -0.4883
10973TIP3   OH254333   5.730   2.949   2.433  0.9815 -0.1066  0.1051
10973TIP3    H154334   5.671   3.007   2.480  0.9159 -0.3718  0.3570
10973TIP3    H254335   5.752   2.881   2.497 -0.3552 -1.3608 -0.7261
10974TIP3   OH254336   1.113   0.809   3.437 -0.1758  0.0630  0.5517
10974TIP3    H154337   1.087   0.894   3.404  0.1041 -0.2974 -0.6301
10974TIP3    H254338   1.188   0.827   3.494 -0.2245  0.6189  0.4410
10975TIP3   OH254339   6.204   2.568   3.496 -0.2889  0.2901  0.1087
10975TIP3    H154340   6.194   2.486   3.447  0.6361  0.4902 -0.4310
10975TIP3    H254341   6.297   2.571   3.520 -0.6080  0.4538  1.4404
10976TIP3   OH254342   5.572   1.346   1.140 -0.2992 -0.1580  0.0731
10976TIP3    H154343   5.633   1.275   1.161  0.4099  0.7202  1.1451
10976TIP3    H254344   5.584   1.360   1.046  0.1774 -0.8822  0.0103
10977TIP3   OH254345   2.749   5.279   5.522 -0.3039 -0.2668 -0.4225
10977TIP3    H154346   2.762   5.213   5.590 -1.9081 -1.1167 -0.8966
10977TIP3    H254347   2.715   5.230   5.447 -0.3122  0.9192 -1.2163
10978TIP3   OH254348   6.569   1.282   0.789 -0.8084  0.5867 -0.3073
10978TIP3    H154349   6.557   1.368   0.750  0.7948  0.1002 -2.0148
10978TIP3    H254350   6.629   1.296   0.862 -0.3081  0.8750 -0.7725
10979TIP3   OH254351   0.816   4.264  13.526  0.7673 -0.3855  0.2933
10979TIP3    H154352   0.744   4.201  13.531  0.4056 -0.1238 -1.0895
10979TIP3    H254353   0.889   4.222  13.572  0.8355 -2.2537 -1.4193
10980TIP3   OH254354   4.120   5.712   5.904  0.6541  0.1911  0.1350
10980TIP3    H154355   4.078   5.635   5.942  1.4367 -0.3548 -0.0967
10980TIP3    H254356   4.192   5.732   5.964 -1.1220  2.4160  1.7439
10981TIP3   OH254357   5.805   1.948  11.973  0.2073  0.2086 -0.1520
10981TIP3    H154358   5.726   1.907  11.939 -0.4824 -0.5098  2.1196
10981TIP3    H254359   5.852   1.878  12.018  2.5813  0.4515 -2.0550
10982TIP3   OH254360   0.066   0.665  10.770  0.2869 -0.5958  0.5029
10982TIP3    H154361  -0.022   0.694  10.748  0.0890 -0.8760  0.9036
10982TIP3    H254362   0.068   0.666  10.866  1.4289  1.4957  0.5141
10983TIP3   OH254363   3.371   4.925   0.736 -0.5172 -0.1389  0.5840
10983TIP3    H154364   3.336   4.936   0.824  0.7348  1.5838  0.9215
10983TIP3    H254365   3.296   4.896   0.684 -1.1725 -1.6314  2.2702
10984TIP3   OH254366   2.194   3.589  12.457  0.2521  1.0722 -0.7637
10984TIP3    H154367   2.290   3.589  12.456  0.3856 -0.9838  1.5614
10984TIP3    H254368   2.169   3.517  12.400  0.1544  0.9627 -0.5858
10985TIP3   OH254369   0.760   1.966  17.211 -0.2676 -0.9764 -0.5828
10985TIP3    H154370   0.687   1.974  17.150 -0.9392 -0.8901  0.2235
10985TIP3    H254371   0.739   2.025  17.282  0.3106 -1.3840 -0.0601
10986TIP3   OH254372   4.645   5.247  11.396 -0.3025  0.1839  0.1844
10986TIP3    H154373   4.595   5.166  11.402 -0.5601  0.3244 -0.0798
10986TIP3    H254374   4.692   5.240  11.313  0.8454 -0.3642  0.8542
10987TIP3   OH254375   1.044   0.321   3.406  0.2530 -0.1576  0.4622
10987TIP3    H154376   0.959   0.361   3.427  0.0090  0.8355 -2.0269
10987TIP3    H254377   1.100   0.343   3.480 -1.3952 -0.0145  1.7263
10988TIP3   OH254378   2.821   0.813   4.701 -0.3599  0.0944  0.3305
10988TIP3    H154379   2.898   0.777   4.657  0.3452  1.6801  0.1772
10988TIP3    H254380   2.808   0.757   4.777 -1.3533 -2.4741 -1.5949
10989TIP3   OH254381   0.919   3.429   1.647  0.1162  0.0152 -0.1125
10989TIP3    H154382   0.890   3.345   1.611  3.1919 -1.1209 -0.1772
10989TIP3    H254383   0.852   3.491   1.618 -2.3994 -2.3890  0.1276
10990TIP3   OH254384   1.134   1.236   3.048 -0.0534  0.0180 -0.4885
10990TIP3    H154385   1.175   1.272   2.969  0.8188 -0.2426 -0.1731
10990TIP3    H254386   1.054   1.288   3.059  0.0133  0.3215 -1.3143
10991TIP3   OH254387   5.141   2.494   5.347 -0.5414 -0.0411  0.0566
10991TIP3    H154388   5.173   2.493   5.257 -1.4887 -0.6642 -0.2904
10991TIP3    H254389   5.197   2.431   5.393  0.0172  0.3617 -0.0627
10992TIP3   OH254390   1.792   4.562  16.748 -0.2953  0.5402 -0.1151
10992TIP3    H154391   1.733   4.636  16.739  1.2969  1.7263 -1.2958
10992TIP3    H254392   1.829   4.549  16.660  0.9695 -0.3381  0.5071
10993TIP3   OH254393   0.780   3.572  14.419 -0.5014 -0.0352 -0.2413
10993TIP3    H154394   0.740   3.654  14.390  0.0225  0.3069 -0.0161
10993TIP3    H254395   0.784   3.518  14.340 -2.8476 -0.7031  0.0411
10994TIP3   OH254396   3.561   6.498   3.035 -0.1073  0.7933  0.1670
10994TIP3    H154397   3.569   6.574   2.977  1.8045  0.2370 -0.3805
10994TIP3    H254398   3.559   6.423   2.975  1.5779  0.2227  0.7791
10995TIP3   OH254399   4.208   5.152  17.003 -0.4504 -0.1288  0.3079
10995TIP3    H154400   4.143   5.162  16.934  1.0208 -1.4312 -1.3777
10995TIP3    H254401   4.220   5.057  17.011  0.3323  0.0525  1.4525
10996TIP3   OH254402   2.802   3.351  15.578  0.3401 -0.6637 -0.0660
10996TIP3    H154403   2.731   3.366  15.642  0.6967 -1.9800  0.6632
10996TIP3    H254404   2.766   3.287  15.517 -0.2315  1.0495 -1.6294
10997TIP3   OH254405   1.068   1.478  14.547  0.6997 -0.0583 -0.3098
10997TIP3    H154406   1.075   1.492  14.642 -0.1487  0.0286 -0.2591
10997TIP3    H254407   1.072   1.383  14.537 -0.5075 -0.1511 -0.0671
10998TIP3   OH254408   4.131   5.051  14.864  0.1307 -0.7921 -0.2071
10998TIP3    H154409   4.138   5.130  14.918 -0.5476 -1.1032  0.3616
10998TIP3    H254410   4.206   4.997  14.890  0.1745 -0.6544 -0.0443
10999TIP3   OH254411   4.718   3.225   5.122  0.0616  0.9680 -0.2752
10999TIP3    H154412   4.736   3.218   5.215  0.4219 -1.5475 -0.4724
10999TIP3    H254413   4.622   3.225   5.115  0.0226 -0.0971  0.0667
11000TIP3   OH254414   0.225   2.070  14.683  0.1381  0.5142 -0.2763
11000TIP3    H154415   0.260   2.158  14.699  0.8657  0.5281 -1.7858
11000TIP3    H254416   0.248   2.052  14.592  0.2849 -1.3829  0.1088
11001TIP3   OH254417   2.692   0.594  14.208  0.4334 -0.0350 -0.0757
11001TIP3    H154418   2.670   0.614  14.299  0.0932  0.2797 -0.2245
11001TIP3    H254419   2.638   0.518  14.186 -0.4716  0.6946 -0.4195
11002TIP3   OH254420   5.881   3.707  12.590 -0.9363  0.3684 -0.0585
11002TIP3    H154421   5.786   3.713  12.592 -0.8908  0.9340  0.8089
11002TIP3    H254422   5.910   3.785  12.541 -0.9284 -0.0459 -0.7302
11003TIP3   OH254423   1.040   4.310   0.460 -0.1630  0.0215 -0.8486
11003TIP3    H154424   1.096   4.243   0.500  0.7380  0.8795 -0.6195
11003TIP3    H254425   1.018   4.275   0.374 -1.0919 -1.3026 -0.0911
11004TIP3   OH254426   1.645   3.865   3.312 -0.3733 -0.1282  0.0231
11004TIP3    H154427   1.588   3.789   3.297  0.6530 -0.9825  0.3036
11004TIP3    H254428   1.640   3.881   3.406 -0.2028 -0.1642  0.0388
11005TIP3   OH254429   1.495   6.731  15.307  0.0284  0.3649  0.2244
11005TIP3    H154430   1.543   6.649  15.313  0.5377  0.3857 -2.3666
11005TIP3    H254431   1.562   6.799  15.314 -0.2992  0.5921  1.5693
11006TIP3   OH254432   0.097   3.879   3.901  0.3726  0.3858  0.0263
11006TIP3    H154433   0.171   3.850   3.955  0.0276  1.8990  1.3688
11006TIP3    H254434   0.126   3.962   3.863  0.4194 -0.4135 -1.7930
11007TIP3   OH254435   3.879   1.894   2.518  0.1959 -0.2103  0.3764
11007TIP3    H154436   3.816   1.822   2.522 -0.6837  0.4214 -1.0801
11007TIP3    H254437   3.955   1.862   2.567 -0.1758 -2.1146 -0.1831
11008TIP3   OH254438   1.050   2.475   1.330 -0.0885 -0.4236 -0.0431
11008TIP3    H154439   1.017   2.494   1.418 -0.7756  3.7139 -0.9826
11008TIP3    H254440   1.145   2.485   1.338 -0.3206  2.7457 -0.1704
11009TIP3   OH254441   1.579   1.509  12.303  0.1190  0.2638  0.5722
11009TIP3    H154442   1.637   1.568  12.255 -0.6777  0.4499 -0.1993
11009TIP3    H254443   1.622   1.496  12.388  2.9630 -2.1054 -1.0018
11010TIP3   OH254444   1.021   1.764   5.361 -0.0024 -0.4957 -0.0173
11010TIP3    H154445   1.057   1.710   5.432 -0.6374 -2.5619 -1.1673
11010TIP3    H254446   0.942   1.718   5.334  0.3574  0.0592 -2.2277
11011TIP3   OH254447   4.453   1.547   5.845 -0.2933  0.8930  0.6382
11011TIP3    H154448   4.388   1.611   5.874 -0.0715  1.2627  0.3308
11011TIP3    H254449   4.537   1.591   5.858 -0.1275  0.5721  0.6512
11012TIP3   OH254450   2.885   1.756   1.349  0.0501  0.3992  0.3903
11012TIP3    H154451   2.843   1.683   1.393 -2.6600  0.5157 -1.6937
11012TIP3    H254452   2.825   1.830   1.361  0.6149  1.1426 -1.0213
11013TIP3   OH254453   2.165   4.920   1.219 -0.0393  0.1123 -0.2893
11013TIP3    H154454   2.120   5.004   1.221  2.0237  1.2880  0.1889
11013TIP3    H254455   2.257   4.943   1.206  0.7304 -1.9954  0.8974
11014TIP3   OH254456   0.213   5.945   2.112 -0.0860 -0.2511 -0.0012
11014TIP3    H154457   0.165   5.892   2.049  0.3379  1.6276 -2.0321
11014TIP3    H254458   0.252   6.015   2.060  0.7065  1.1381  2.2992
11015TIP3   OH254459   4.048   2.365  12.332 -0.2301  0.5076 -0.1369
11015TIP3    H154460   4.027   2.435  12.393  0.4463  0.7032 -0.1243
11015TIP3    H254461   3.988   2.293  12.356  0.2307  0.4740  0.9445
11016TIP3   OH254462   1.310   0.014  16.761 -0.2012  0.3291 -0.1757
11016TIP3    H154463   1.256  -0.057  16.794 -0.5767  1.0076  0.6982
11016TIP3    H254464   1.261   0.094  16.781  1.2648  0.9976  0.9923
11017TIP3   OH254465   5.657   3.017  13.481 -0.5246  0.1901 -0.3678
11017TIP3    H154466   5.589   3.062  13.531 -0.5232  0.3761 -0.5343
11017TIP3    H254467   5.644   3.047  13.391  0.7833  1.4677 -0.1595
11018TIP3   OH254468   3.693   3.910  16.597 -0.4564 -0.2551 -0.0984
11018TIP3    H154469   3.651   3.826  16.618 -0.0858 -0.1135  1.2702
11018TIP3    H254470   3.695   3.957  16.680  1.1196  0.3092 -0.4337
11019TIP3   OH254471   5.380   0.190  13.661 -0.3221  0.7560  0.4615
11019TIP3    H154472   5.297   0.184  13.615  0.4228 -0.2456 -0.8418
11019TIP3    H254473   5.388   0.282  13.686 -2.5572  0.5718  2.1400
11020TIP3   OH254474   2.463   0.466  16.571 -0.5726  0.1382  0.4826
11020TIP3    H154475   2.453   0.445  16.478 -0.8257 -0.4689  0.6372
11020TIP3    H254476   2.448   0.560  16.577  1.2046  0.5080 -0.3326
11021TIP3   OH254477   3.204   1.923  14.597  0.6907 -0.5242  0.4367
11021TIP3    H154478   3.171   2.011  14.613  1.6225 -0.2983  1.1990
11021TIP3    H254479   3.211   1.917  14.501  2.8512  1.1124  0.4287
11022TIP3   OH254480   2.213   5.994  10.278  0.2060 -0.0009  0.1777
11022TIP3    H154481   2.155   5.926  10.244  0.3086 -0.6724  1.2896
11022TIP3    H254482   2.286   5.945  10.316  0.8311  0.7869  0.0088
11023TIP3   OH254483   2.528   4.512  13.007 -0.1512 -0.7262  0.0500
11023TIP3    H154484   2.452   4.454  12.999  0.2036 -1.2655  0.4777
11023TIP3    H254485   2.491   4.600  13.010 -0.5666 -0.6378 -3.5848
11024TIP3   OH254486   1.225   3.982   0.132 -0.3480 -0.1224 -0.0074
11024TIP3    H154487   1.166   4.057   0.123 -1.4922 -0.6916  2.1263
11024TIP3    H254488   1.304   4.017   0.173  0.5581  0.4765 -2.0960
11025TIP3   OH254489   2.327   2.686  16.443  0.1632  0.1393 -0.3237
11025TIP3    H154490   2.298   2.734  16.520 -0.9314 -0.5232 -0.3133
11025TIP3    H254491   2.251   2.637  16.414  1.2078 -1.4845 -0.4373
11026TIP3   OH254492   2.426   5.757   0.082  0.5719 -0.2780  0.2080
11026TIP3    H154493   2.391   5.701   0.152 -0.9547 -1.4511 -1.3762
11026TIP3    H254494   2.383   5.724   0.003  0.3972  2.5353 -0.9600
11027TIP3   OH254495   0.571   3.918   1.933  0.0851 -0.0585 -0.1472
11027TIP3    H154496   0.595   3.998   1.887  0.5322 -0.6827 -1.0372
11027TIP3    H254497   0.638   3.854   1.906  0.0214 -0.6031  0.9191
11028TIP3   OH254498   0.252   2.584   0.728 -0.1158 -0.6129  0.0825
11028TIP3    H154499   0.278   2.523   0.659 -1.5566  0.2878 -1.2984
11028TIP3    H254500   0.163   2.559   0.751  0.2096 -0.6698  1.4175
11029TIP3   OH254501   6.220   4.549   0.520  0.3724 -0.4053  0.3716
11029TIP3    H154502   6.282   4.581   0.454 -0.7282  1.5174  0.1902
11029TIP3    H254503   6.274   4.523   0.594  1.4624  0.3845 -0.1220
11030TIP3   OH254504   4.537   3.746  11.291 -0.3707 -0.0295 -0.1536
11030TIP3    H154505   4.454   3.793  11.301 -0.6615 -0.1403 -1.7297
11030TIP3    H254506   4.546   3.695  11.371 -2.5108 -1.0318 -0.4804
11031TIP3   OH254507   0.617   0.809   0.699  0.6079 -0.3262  0.0620
11031TIP3    H154508   0.524   0.810   0.675  0.6466 -1.3792 -0.1746
11031TIP3    H254509   0.626   0.882   0.760  0.0293  0.9933 -1.3412
11032TIP3   OH254510   5.986   6.102  15.236  0.0095 -0.1927  0.3892
11032TIP3    H154511   6.013   6.186  15.198  0.4904  0.2610  1.6624
11032TIP3    H254512   6.037   6.036  15.189 -0.6547  0.1860 -0.8875
11033TIP3   OH254513   4.783   1.759   0.395  0.8135 -0.0378 -0.0985
11033TIP3    H154514   4.737   1.820   0.453  2.0029  0.9853 -0.1814
11033TIP3    H254515   4.723   1.747   0.321 -0.2408 -0.4847  0.7995
11034TIP3   OH254516   4.630   3.591   1.689 -0.1759 -0.6003  0.1447
11034TIP3    H154517   4.584   3.671   1.662  2.2689  0.1332 -2.2201
11034TIP3    H254518   4.628   3.594   1.785 -0.5641  2.0764  0.1316
11035TIP3   OH254519   6.446   6.189  16.927 -0.4921 -0.2252  0.4213
11035TIP3    H154520   6.413   6.175  17.016 -2.7950  1.0384 -0.1341
11035TIP3    H254521   6.539   6.205  16.938 -0.2652 -2.3679  2.3290
11036TIP3   OH254522   6.347   1.469   3.478 -0.5167  0.0711 -0.3038
11036TIP3    H154523   6.390   1.448   3.560  2.9902 -2.9852 -2.5899
11036TIP3    H254524   6.270   1.411   3.476  0.5535 -1.4182  0.0047
11037TIP3   OH254525   4.143   2.611  15.170  0.4512  0.3524  0.1899
11037TIP3    H154526   4.116   2.611  15.078 -0.0061  0.8454  0.3181
11037TIP3    H254527   4.064   2.585  15.218  0.8671 -0.5683  0.4038
11038TIP3   OH254528   1.429   0.437  15.063 -0.1622  0.1298 -0.2225
11038TIP3    H154529   1.342   0.417  15.027 -0.0375 -0.3594 -0.2476
11038TIP3    H254530   1.440   0.376  15.135  0.4235 -0.2436 -0.6179
11039TIP3   OH254531   6.391   3.183   0.680 -0.2984  0.5320  0.2415
11039TIP3    H154532   6.486   3.184   0.673 -0.1775  0.5486  1.6874
11039TIP3    H254533   6.373   3.176   0.774 -1.6951 -3.3895 -0.1325
11040TIP3   OH254534   2.489   3.899   4.398 -0.3568  0.2851 -0.4697
11040TIP3    H154535   2.504   3.901   4.493  0.1788  2.6353 -0.5522
11040TIP3    H254536   2.404   3.855   4.389  0.7542 -2.4006  0.8546
11041TIP3   OH254537   1.290   3.334  11.328  0.3801  0.2180  0.5708
11041TIP3    H154538   1.276   3.253  11.278  0.9689  0.5533 -0.1565
11041TIP3    H254539   1.358   3.311  11.392  0.7950  0.2274  0.1375
11042TIP3   OH254540   0.794   6.424  11.101 -0.3182 -0.0294  0.3739
11042TIP3    H154541   0.824   6.511  11.074  0.8898 -0.6139 -0.2630
11042TIP3    H254542   0.848   6.403  11.177 -0.7542 -0.1400  0.6548
11043TIP3   OH254543   3.232   4.547  13.331 -0.3316  0.0470  0.4076
11043TIP3    H154544   3.218   4.539  13.425 -3.0661  0.6836  0.1253
11043TIP3    H254545   3.184   4.626  13.306 -1.0492 -0.9848 -1.7548
11044TIP3   OH254546   2.518   4.723   1.081  0.3307  0.0901  0.7011
11044TIP3    H154547   2.502   4.808   1.122  1.3757  0.6257  0.0141
11044TIP3    H254548   2.450   4.666   1.118 -0.9952  1.4488  0.4335
11045TIP3   OH254549   3.757   1.179  12.549 -0.0693  0.0203  0.1284
11045TIP3    H154550   3.778   1.228  12.470  0.7951  2.0579  1.5419
11045TIP3    H254551   3.701   1.107  12.519 -1.4302  1.8740 -2.0758
11046TIP3   OH254552   5.211   0.409  12.719  0.5133 -0.7886  0.2991
11046TIP3    H154553   5.271   0.335  12.728 -0.2784 -1.6287 -1.0528
11046TIP3    H254554   5.124   0.369  12.717  0.1182  0.0647 -1.3204
11047TIP3   OH254555   3.707   0.649  14.581  0.2835 -0.3652 -0.6519
11047TIP3    H154556   3.732   0.717  14.644 -0.3789 -0.4491 -0.2823
11047TIP3    H254557   3.784   0.637  14.526  0.6241  0.2308 -0.3131
11048TIP3   OH254558   2.748   2.653   3.242  0.1491  0.2404  0.3355
11048TIP3    H154559   2.810   2.622   3.176 -0.7514  0.4303 -0.6128
11048TIP3    H254560   2.686   2.707   3.193 -0.3351  0.6647  1.3961
11049TIP3   OH254561   4.045   3.526  13.038 -0.3896  0.1373  0.5558
11049TIP3    H154562   4.039   3.464  12.965 -1.3183  0.9491 -0.0855
11049TIP3    H254563   4.122   3.579  13.018 -1.1808  0.9703 -0.3460
11050TIP3   OH254564   6.761   1.359  13.412  0.8688 -0.5077  0.1087
11050TIP3    H154565   6.847   1.387  13.382 -0.0031  2.2444 -0.1216
11050TIP3    H254566   6.760   1.380  13.505  0.4865 -0.6802  0.1442
11051TIP3   OH254567   3.890   6.455   0.719  0.4793 -0.8160 -0.0556
11051TIP3    H154568   3.976   6.420   0.742 -0.1860 -3.0325 -0.6441
11051TIP3    H254569   3.830   6.382   0.735 -1.2355  0.5137 -0.1371
11052TIP3   OH254570   0.994   6.746  15.895 -0.7534 -0.2030  0.7906
11052TIP3    H154571   0.952   6.756  15.809 -0.6797  1.0864  0.8746
11052TIP3    H254572   1.078   6.703  15.875 -1.5692 -1.7208  0.4817
11053TIP3   OH254573   3.932   2.356  16.694 -0.2654 -0.1459 -0.6606
11053TIP3    H154574   3.836   2.354  16.692 -0.2619 -0.3502 -0.5881
11053TIP3    H254575   3.958   2.265  16.706 -0.1103  0.1229  1.3487
11054TIP3   OH254576   1.160   4.458  12.580  0.0871  0.0382  0.3541
11054TIP3    H154577   1.184   4.450  12.488  0.3606  0.1739  0.4096
11054TIP3    H254578   1.075   4.414  12.587 -1.4976  2.7242 -0.5818
11055TIP3   OH254579   2.597   3.794  14.185  0.5327  0.2194  0.1812
11055TIP3    H154580   2.561   3.831  14.104  1.3654  1.6140  0.4072
11055TIP3    H254581   2.634   3.869  14.231  1.7011 -0.8101  1.0040
11056TIP3   OH254582   2.740   1.306   0.926  0.0288 -0.3633 -0.5866
11056TIP3    H154583   2.645   1.317   0.935  0.2008  0.9754 -0.1299
11056TIP3    H254584   2.766   1.368   0.859  0.9376  1.4970  1.3541
11057TIP3   OH254585   2.892   1.469   3.160 -0.2364 -0.8765 -0.0457
11057TIP3    H154586   2.982   1.497   3.179 -0.5760 -0.0209  0.3466
11057TIP3    H254587   2.842   1.550   3.156 -0.5559 -1.1155 -2.8198
11058TIP3   OH254588   0.410   4.723   1.554 -0.5957 -0.3638  0.2375
11058TIP3    H154589   0.458   4.651   1.514  0.9271  0.4823  0.4604
11058TIP3    H254590   0.445   4.728   1.644 -1.1331  0.2410  0.4220
11059TIP3   OH254591   0.151   1.100   3.976  0.1091 -0.4492  0.0477
11059TIP3    H154592   0.199   1.153   4.040  2.8540 -0.7615 -1.6273
11059TIP3    H254593   0.078   1.156   3.949  0.8079  0.9792  1.0061
11060TIP3   OH254594   1.524   1.640   2.826  0.2430 -0.0513  0.2283
11060TIP3    H154595   1.563   1.727   2.824  1.9671 -0.7739 -0.0063
11060TIP3    H254596   1.431   1.654   2.811  0.6180  1.6694 -0.7067
11061TIP3   OH254597   6.164   2.366  15.320 -0.0275 -0.6384  0.6775
11061TIP3    H154598   6.235   2.351  15.383  0.8038 -0.8473 -0.2964
11061TIP3    H254599   6.102   2.295  15.337  0.5358 -1.1114  0.7855
11062TIP3   OH254600   2.184   0.257   5.721 -0.0637  0.5623 -0.1491
11062TIP3    H154601   2.238   0.332   5.699 -1.7903  1.4408 -1.6328
11062TIP3    H254602   2.098   0.293   5.740 -1.4129 -1.0650 -2.5253
11063TIP3   OH254603   4.230   3.366   5.793 -0.4095 -0.3457  0.0158
11063TIP3    H154604   4.316   3.350   5.755 -0.8620  0.0599 -1.2235
11063TIP3    H254605   4.241   3.349   5.886  0.4853 -2.3616 -0.4188
11064TIP3   OH254606   5.830   4.614   3.808 -0.1683 -0.5619 -0.5403
11064TIP3    H154607   5.881   4.615   3.727  1.5131  1.3876  0.4503
11064TIP3    H254608   5.785   4.699   3.808  0.2736 -0.3109  0.8003
11065TIP3   OH254609   4.309   4.055  11.537 -0.2945  0.3805  0.2451
11065TIP3    H154610   4.313   4.138  11.489 -0.4750  0.4346  0.3258
11065TIP3    H254611   4.400   4.040  11.565 -0.3652  0.8554  0.7501
11066TIP3   OH254612   1.233   2.684  13.268 -0.0403 -0.2566 -0.1262
11066TIP3    H154613   1.293   2.610  13.275 -0.1969 -0.4127 -0.4123
11066TIP3    H254614   1.152   2.653  13.308  0.2064  0.1094  0.6718
11067TIP3   OH254615   6.069   1.667  14.336  0.8500  0.0813  0.1568
11067TIP3    H154616   6.048   1.611  14.261 -1.3989 -0.3718  1.0294
11067TIP3    H254617   6.115   1.609  14.397 -0.1831 -0.4685  0.4419
11068TIP3   OH254618   5.677   5.387   4.816 -0.0946 -0.4887  0.2358
11068TIP3    H154619   5.638   5.309   4.776  0.6075 -0.9217  0.3852
11068TIP3    H254620   5.618   5.408   4.888 -0.0600 -1.1361  0.4615
11069TIP3   OH254621   5.805   2.424  13.656 -0.0928 -0.0445  0.1911
11069TIP3    H154622   5.864   2.349  13.667  0.1192 -0.2441 -1.7854
11069TIP3    H254623   5.721   2.384  13.632 -0.9104  0.2650  2.3416
11070TIP3   OH254624   4.425   2.030  16.779 -0.2962 -0.2236 -0.0290
11070TIP3    H154625   4.429   1.957  16.841  3.3571  1.4268  2.0184
11070TIP3    H254626   4.392   2.104  16.831 -1.5392  0.2432 -1.3875
11071TIP3   OH254627   4.893   0.784   4.299 -0.0749  0.3796  0.5920
11071TIP3    H154628   4.828   0.775   4.229  0.6118 -0.5960  0.0502
11071TIP3    H254629   4.977   0.778   4.254  0.3840 -0.9620  1.5456
11072TIP3   OH254630   0.902   2.820   2.503 -0.1282  0.0341 -0.3477
11072TIP3    H154631   0.817   2.851   2.469 -0.1930 -0.7677 -0.9347
11072TIP3    H254632   0.901   2.726   2.488  0.4704 -0.1269  0.5438
11073TIP3   OH254633   3.797   2.794  16.715 -0.4137  0.4890 -0.2841
11073TIP3    H154634   3.865   2.781  16.781 -0.7944 -0.9686 -0.1411
11073TIP3    H254635   3.731   2.848  16.760 -0.5098 -0.1985  0.4330
11074TIP3   OH254636   6.262   4.682   0.899 -0.4520  0.3134  0.2635
11074TIP3    H154637   6.232   4.773   0.908 -0.2645  0.4929 -0.7620
11074TIP3    H254638   6.326   4.685   0.828 -1.8038 -0.9022 -1.0732
11075TIP3   OH254639   5.470   0.353   3.039  0.2975  0.0241 -0.4508
11075TIP3    H154640   5.563   0.350   3.060  0.6935  1.0277 -1.9100
11075TIP3    H254641   5.434   0.419   3.098  0.4035 -0.6600  0.4041
11076TIP3   OH254642   2.880   2.700  12.554  0.1379  0.9165 -0.4639
11076TIP3    H154643   2.792   2.685  12.588  0.0273 -0.7643 -1.3691
11076TIP3    H254644   2.865   2.737  12.467  0.3822  2.3403  0.0702
11077TIP3   OH254645   3.786   5.415  16.621 -0.2830 -0.3868  0.6375
11077TIP3    H154646   3.863   5.434  16.675 -0.6499  1.1268  0.6667
11077TIP3    H254647   3.820   5.363  16.549  1.4016  2.5551 -0.8976
11078TIP3   OH254648   6.603   6.688   1.814 -0.3331  0.2549  0.3708
11078TIP3    H154649   6.565   6.631   1.747 -1.7972  1.0057  0.5128
11078TIP3    H254650   6.635   6.629   1.881 -0.1789 -0.4613 -0.3201
11079TIP3   OH254651   2.787   0.377  15.781 -0.1830  0.3736  0.6209
11079TIP3    H154652   2.742   0.405  15.702 -0.2944 -0.4480  0.3835
11079TIP3    H254653   2.843   0.305  15.752  0.9804  1.1040  0.9887
11080TIP3   OH254654   1.641   4.413   0.725 -0.1142  0.3826  0.8407
11080TIP3    H154655   1.693   4.453   0.795  0.9726 -0.2467  0.4164
11080TIP3    H254656   1.679   4.448   0.644 -1.3468  1.0924  0.5419
11081TIP3   OH254657   1.039   0.123  15.019  0.1622 -0.2778  0.3066
11081TIP3    H154658   0.981   0.057  14.981 -0.5603 -0.1296  1.1370
11081TIP3    H254659   1.127   0.085  15.010 -0.0872 -0.6741 -0.6043
11082TIP3   OH254660   3.410   5.300   4.238 -0.1718 -0.1235  0.2088
11082TIP3    H154661   3.401   5.216   4.282  1.2715 -1.6086 -2.1221
11082TIP3    H254662   3.320   5.334   4.235 -1.0114 -2.1703  0.1502
11083TIP3   OH254663   4.917   3.398   2.814 -0.0303  0.2694 -0.4810
11083TIP3    H154664   4.929   3.490   2.840 -0.3796  0.4300 -0.8812
11083TIP3    H254665   4.882   3.403   2.725  0.4518 -0.2641 -0.7048
11084TIP3   OH254666   3.882   1.116  13.581  0.0463 -0.2744  0.1658
11084TIP3    H154667   3.940   1.127  13.506 -0.4513  0.2990 -0.1461
11084TIP3    H254668   3.940   1.105  13.656  0.6446  3.0695  0.3245
11085TIP3   OH254669   5.937   3.500  14.702 -0.3912  0.3585  0.1918
11085TIP3    H154670   6.012   3.556  14.680 -0.1074  0.1497  0.6075
11085TIP3    H254671   5.898   3.478  14.618  0.6480 -0.4057 -0.1131
11086TIP3   OH254672   1.330   3.906  12.363  0.2922 -0.4843  0.1804
11086TIP3    H154673   1.376   3.918  12.446  0.4731  0.1987 -0.0127
11086TIP3    H254674   1.265   3.838  12.381  0.5152 -0.5414  0.8002
11087TIP3   OH254675   0.309   1.351   4.542 -0.0318  0.2846 -0.1361
11087TIP3    H154676   0.382   1.336   4.603 -0.7685  0.2535  0.7571
11087TIP3    H254677   0.240   1.389   4.596 -0.6646  0.3618 -0.9816
11088TIP3   OH254678   4.763   6.293   3.673  1.1651  0.1061 -0.7815
11088TIP3    H154679   4.717   6.243   3.606  0.0806  1.3689 -1.0202
11088TIP3    H254680   4.799   6.369   3.626  0.4262  0.9855  0.0365
11089TIP3   OH254681   0.831   3.964   0.935  0.7323 -0.2758  0.4641
11089TIP3    H154682   0.831   3.927   1.024 -0.5087 -1.0833  0.1519
11089TIP3    H254683   0.747   3.937   0.898  1.6902 -0.9114 -1.3615
11090TIP3   OH254684   4.325   6.002  16.774  0.1446 -0.2370  0.4199
11090TIP3    H154685   4.308   5.950  16.853 -0.2941  0.7803  1.0184
11090TIP3    H254686   4.248   6.060  16.767  0.2043 -0.2718 -0.7229
11091TIP3   OH254687   0.182   4.298  15.487 -0.6137 -0.6350 -0.2078
11091TIP3    H154688   0.251   4.298  15.421 -1.4644 -1.3168 -1.1327
11091TIP3    H254689   0.120   4.366  15.458 -0.3291 -0.0008  0.6304
11092TIP3   OH254690   4.725   3.451  16.570  0.5203  0.5691  0.7488
11092TIP3    H154691   4.647   3.506  16.573 -1.3191 -1.8471  0.3703
11092TIP3    H254692   4.727   3.406  16.655 -0.3626 -1.6686 -0.3255
11093TIP3   OH254693   4.735   4.801  15.105 -0.1601 -0.1428  0.5770
11093TIP3    H154694   4.675   4.775  15.035 -1.3787 -1.6202  2.0793
11093TIP3    H254695   4.754   4.893  15.088 -1.4191 -0.1342 -0.9750
11094TIP3   OH254696   4.570   1.332   0.407 -0.2287 -0.1332  0.0158
11094TIP3    H154697   4.638   1.358   0.345  1.5304  1.0603  2.2595
11094TIP3    H254698   4.500   1.396   0.393 -0.7884 -1.1327 -2.0613
11095TIP3   OH254699   4.101   4.727   0.187  0.0867  0.4731  0.7565
11095TIP3    H154700   4.195   4.724   0.171 -0.2491 -0.2551 -1.5045
11095TIP3    H254701   4.072   4.807   0.144 -0.5245 -0.2253 -0.1949
11096TIP3   OH254702   1.956   3.916   0.837  1.1482 -0.1879 -0.3709
11096TIP3    H154703   1.968   3.997   0.786  3.4459 -0.4633 -0.3646
11096TIP3    H254704   1.930   3.946   0.924 -0.3773  0.4042 -0.9962
11097TIP3   OH254705   0.316   1.706  10.410 -0.4535  0.2894  0.4704
11097TIP3    H154706   0.277   1.716  10.323 -0.2090 -2.1759  0.0182
11097TIP3    H254707   0.410   1.703  10.394 -0.3983  0.0039  0.8428
11098TIP3   OH254708   6.344   1.567  15.758  0.1499 -0.5294 -0.3418
11098TIP3    H154709   6.358   1.535  15.847 -2.0286 -0.4543  0.0767
11098TIP3    H254710   6.337   1.488  15.704 -2.3315 -0.7560  0.2200
11099TIP3   OH254711   4.279   3.790   0.361 -0.1871 -0.0204 -0.3011
11099TIP3    H154712   4.198   3.739   0.367  0.4731 -0.9379  1.3381
11099TIP3    H254713   4.302   3.810   0.452  1.5765 -0.0259 -0.7073
11100TIP3   OH254714   4.809   0.999   2.506  0.1702  0.4043 -0.7976
11100TIP3    H154715   4.757   0.998   2.426  0.6203 -0.8161 -1.0930
11100TIP3    H254716   4.879   0.936   2.491 -0.8152 -1.2982  1.2369
11101TIP3   OH254717   0.031   2.847   5.958 -0.1346 -0.3215 -0.3611
11101TIP3    H154718   0.084   2.899   5.899 -0.1650  0.3978  0.2283
11101TIP3    H254719   0.088   2.775   5.985  1.2055  1.3874  1.6363
11102TIP3   OH254720   4.394   2.656  13.832  0.4702 -0.4310 -0.8277
11102TIP3    H154721   4.428   2.616  13.752  0.6584 -0.9002 -0.5178
11102TIP3    H254722   4.342   2.730  13.801 -1.6619 -2.1312 -1.5800
11103TIP3   OH254723   3.878   4.825  17.058 -0.5753 -0.3147  0.1784
11103TIP3    H154724   3.902   4.780  16.977  0.1568  1.1652 -0.4651
11103TIP3    H254725   3.805   4.881  17.032 -0.3909  0.1056  0.5683
11104TIP3   OH254726   2.687   4.163   1.906 -0.5028 -0.2262  0.0249
11104TIP3    H154727   2.746   4.229   1.941 -0.7428 -0.0506  0.1030
11104TIP3    H254728   2.606   4.175   1.956 -0.8364  0.0018 -0.5560
11105TIP3   OH254729   5.374   3.937   6.200  0.0219  0.0110  0.6501
11105TIP3    H154730   5.454   3.902   6.161  0.3289 -1.1790  2.2167
11105TIP3    H254731   5.330   3.860   6.237 -0.2324  1.0152  2.5653
11106TIP3   OH254732   1.963   5.224   2.174 -0.1947 -0.1402 -0.1379
11106TIP3    H154733   1.980   5.139   2.215 -1.1581 -0.0727  0.4433
11106TIP3    H254734   1.968   5.287   2.246  1.6209  0.4730 -0.7457
11107TIP3   OH254735   2.947   1.885  16.173  0.0042  0.5220 -0.0098
11107TIP3    H154736   2.868   1.868  16.225  0.2989 -0.5841  0.0984
11107TIP3    H254737   2.978   1.970  16.205 -1.5456  1.3599 -0.5906
11108TIP3   OH254738   6.535   1.721   5.886 -1.2474  0.3857  0.0960
11108TIP3    H154739   6.618   1.763   5.912 -0.9664  1.5882 -2.3855
11108TIP3    H254740   6.562   1.651   5.827 -1.9802  0.7433 -0.6796
11109TIP3   OH254741   2.998   4.902   0.028  0.2742 -0.1370  0.4013
11109TIP3    H154742   3.030   4.987  -0.001 -3.3053  0.9331 -0.9529
11109TIP3    H254743   3.030   4.841  -0.038  1.9139  0.2973  0.7525
11110TIP3   OH254744   1.491   5.206  15.669 -0.5643 -0.0765 -0.1124
11110TIP3    H154745   1.422   5.156  15.626  0.0093 -0.7705 -0.2483
11110TIP3    H254746   1.532   5.256  15.599  1.2107 -2.1798 -0.6749
11111TIP3   OH254747   4.113   4.057  16.547  0.0837  0.0722 -0.5381
11111TIP3    H154748   4.198   4.015  16.536  1.1962  2.1887 -0.5392
11111TIP3    H254749   4.117   4.098  16.633 -0.8237  0.4224 -0.6533
11112TIP3   OH254750   6.730   4.010  13.383  0.0497  0.0722  0.5198
11112TIP3    H154751   6.715   3.939  13.321 -0.3082 -0.8679  1.6411
11112TIP3    H254752   6.759   3.966  13.463 -0.9001  1.1270  1.4784
11113TIP3   OH254753   4.612   4.687  13.693 -0.1243 -0.1626 -0.1754
11113TIP3    H154754   4.707   4.684  13.689 -0.0885  0.9666 -0.3022
11113TIP3    H254755   4.583   4.635  13.618  0.3308 -2.7579  1.2959
11114TIP3   OH254756   4.977   6.299  15.212 -0.1630  0.6276  0.0597
11114TIP3    H154757   5.000   6.214  15.174 -1.1791  0.5459 -0.3747
11114TIP3    H254758   4.886   6.290  15.239  0.1249  1.1316  1.2937
11115TIP3   OH254759   3.987   4.904  15.637  0.5056 -0.4546 -0.4428
11115TIP3    H154760   4.077   4.895  15.605  0.7297 -0.8246  0.2764
11115TIP3    H254761   3.977   4.997  15.657  1.4761 -0.7308  1.5838
11116TIP3   OH254762   0.357   3.480  13.259 -0.1282 -0.1782  0.3335
11116TIP3    H154763   0.415   3.535  13.206  0.8418 -0.9113  0.5930
11116TIP3    H254764   0.309   3.427  13.196  0.6297 -0.6634  0.1471
11117TIP3   OH254765   2.836   3.366   0.137 -0.2671 -0.0159 -0.0233
11117TIP3    H154766   2.831   3.414   0.220 -0.1670  1.1202 -0.6687
11117TIP3    H254767   2.913   3.310   0.147 -0.9595 -0.8191  1.1235
11118TIP3   OH254768   5.122   6.262   5.615 -0.2986  0.0419  0.0307
11118TIP3    H154769   5.166   6.347   5.613 -0.2672  0.0229 -1.3282
11118TIP3    H254770   5.193   6.198   5.611 -0.3458 -0.0275  0.3559
11119TIP3   OH254771   0.703   1.229  11.271  0.1433 -0.2212 -0.2169
11119TIP3    H154772   0.712   1.135  11.288 -1.4444 -0.5444 -0.9087
11119TIP3    H254773   0.609   1.242  11.262  0.2579  1.6411  0.8351
11120TIP3   OH254774   5.801   1.652  12.972 -0.1653 -0.2826 -0.4801
11120TIP3    H154775   5.749   1.639  12.894 -0.1882  1.3325 -0.7688
11120TIP3    H254776   5.888   1.619  12.949 -0.1416  0.2759 -1.2488
11121TIP3   OH254777   2.473   6.255   5.903 -0.4767 -0.1279 -0.0564
11121TIP3    H154778   2.399   6.198   5.925 -0.2712  0.0431  1.1288
11121TIP3    H254779   2.432   6.336   5.873 -0.7746 -0.0597  0.5225
11122TIP3   OH254780   6.424   1.185  12.480 -0.2204  0.4740 -0.2576
11122TIP3    H154781   6.489   1.237  12.527 -1.1288 -0.1731  1.8502
11122TIP3    H254782   6.474   1.111  12.446  0.5518  1.1958 -0.7219
11123TIP3   OH254783   5.189   0.709  11.817 -0.0705  0.0096  0.0349
11123TIP3    H154784   5.266   0.743  11.773  0.3605 -0.2938  0.5364
11123TIP3    H254785   5.220   0.682  11.904 -0.9811  0.9838  0.6889
11124TIP3   OH254786   3.137   3.162  15.852 -0.0036 -0.0909  0.3032
11124TIP3    H154787   3.112   3.100  15.922 -0.6387 -0.8301 -0.5534
11124TIP3    H254788   3.083   3.239  15.868  0.7312  0.2380  1.3322
11125TIP3   OH254789   2.225   1.613  14.460  0.3600  1.0035  0.1339
11125TIP3    H154790   2.180   1.683  14.413 -0.3280 -0.4112 -1.4115
11125TIP3    H254791   2.253   1.552  14.392 -0.0014 -0.7579  1.4835
11126TIP3   OH254792   2.858   5.149  13.230 -0.0680  0.8123  0.3076
11126TIP3    H154793   2.871   5.078  13.294 -1.7756  0.0901 -0.0989
11126TIP3    H254794   2.924   5.132  13.162 -0.5170 -0.4865  0.1607
11127TIP3   OH254795   6.722   6.126   3.281 -0.1268 -0.2220  0.6343
11127TIP3    H154796   6.714   6.127   3.376  2.2440  1.4064  0.8993
11127TIP3    H254797   6.674   6.204   3.252 -1.1404 -0.9038  0.4291
11128TIP3   OH254798   0.551   3.143   0.631 -0.0737 -0.0331  0.3209
11128TIP3    H154799   0.474   3.155   0.686 -0.6477 -0.2618 -0.4041
11128TIP3    H254800   0.590   3.062   0.662 -0.7884 -0.5326 -0.0410
11129TIP3   OH254801   1.350   3.997   3.207  0.7651  0.4779 -0.3253
11129TIP3    H154802   1.388   3.936   3.143  0.6592 -0.3100  0.3419
11129TIP3    H254803   1.408   4.073   3.206  1.5047 -0.0824 -0.4108
11130TIP3   OH254804   1.149   0.664   1.303 -0.3192 -0.0492  0.4141
11130TIP3    H154805   1.128   0.718   1.379 -1.0482  0.0592  0.1420
11130TIP3    H254806   1.243   0.673   1.293 -0.5243  1.9598 -0.1998
11131TIP3   OH254807   6.063   6.762  17.233 -0.0393  0.5501  0.0936
11131TIP3    H154808   6.071   6.741  17.140  0.2087  1.7365 -0.1656
11131TIP3    H254809   6.131   6.709  17.275 -0.2676 -0.1243 -0.3690
11132TIP3   OH254810   6.443   6.550  16.957 -0.6667  0.2349 -0.4944
11132TIP3    H154811   6.462   6.512  17.043 -1.9002 -0.0275 -0.3144
11132TIP3    H254812   6.520   6.603  16.937 -1.0091  1.6338  1.5152
11133TIP3   OH254813   5.585   2.055  16.224 -0.1275  0.3433 -0.4338
11133TIP3    H154814   5.585   1.960  16.214  1.3639  0.4660 -2.1756
11133TIP3    H254815   5.624   2.070  16.311  1.1596 -0.6381 -0.8096
11134TIP3   OH254816   1.295   0.182  14.742 -0.0531  0.0394 -0.2177
11134TIP3    H154817   1.377   0.221  14.712 -0.2630  1.0238  0.4556
11134TIP3    H254818   1.304   0.089  14.722  1.1501  0.1637 -0.3170
11135TIP3   OH254819   2.083   4.440  12.042 -0.0870 -0.3046 -0.2329
11135TIP3    H154820   1.994   4.427  12.074  0.3523 -1.1030  0.6918
11135TIP3    H254821   2.078   4.417  11.949 -1.1306  0.9834 -0.5184
11136TIP3   OH254822   5.257   1.693  12.342 -0.1914  0.1528 -0.0150
11136TIP3    H154823   5.163   1.707  12.331  0.0679  1.6607 -0.6244
11136TIP3    H254824   5.292   1.781  12.359  0.8810 -0.6141  2.0784
11137TIP3   OH254825   3.562   5.661   2.323  0.3414  0.5440 -0.4119
11137TIP3    H154826   3.494   5.633   2.384  0.6336 -1.2466 -0.8396
11137TIP3    H254827   3.515   5.705   2.253 -0.6619 -2.1027 -1.5408
11138TIP3   OH254828   1.829   4.527   0.535 -0.8654  0.5638  0.5307
11138TIP3    H154829   1.886   4.597   0.502  0.3437  0.5148  2.3959
11138TIP3    H254830   1.823   4.465   0.462  0.7675  1.0075 -0.0296
11139TIP3   OH254831   2.434   5.803   6.380 -0.6240 -0.4078 -0.1619
11139TIP3    H154832   2.511   5.750   6.401 -0.8059 -1.0921 -1.1773
11139TIP3    H254833   2.451   5.887   6.424  1.6735  0.1917 -1.9867
11140TIP3   OH254834   6.073   6.427   5.036  0.1426 -0.1968 -0.2698
11140TIP3    H154835   6.162   6.412   5.002  0.2983 -0.7546  0.3535
11140TIP3    H254836   6.049   6.513   5.003  1.4035  0.4972  0.5624
11141TIP3   OH254837   1.132   5.369   1.620 -0.3071 -0.0338 -0.2403
11141TIP3    H154838   1.048   5.325   1.634 -0.2398 -0.0663  0.0586
11141TIP3    H254839   1.133   5.440   1.684 -0.5096  0.5407 -0.8639
11142TIP3   OH254840   2.761   2.857   0.540 -0.5636 -0.7024  0.2421
11142TIP3    H154841   2.826   2.799   0.579  1.3183  0.9052 -0.3206
11142TIP3    H254842   2.813   2.925   0.497 -2.6332  0.2172 -0.9338
11143TIP3   OH254843   6.285   1.817   5.440 -0.0881 -0.2750 -0.2685
11143TIP3    H154844   6.356   1.814   5.504 -0.0954 -0.2046 -0.2574
11143TIP3    H254845   6.311   1.754   5.372  0.0744 -0.1097 -0.3595
11144TIP3   OH254846   4.980   6.260  11.504  0.1383  0.3438 -0.0623
11144TIP3    H154847   4.996   6.344  11.548  0.5656  0.9953 -1.3712
11144TIP3    H254848   4.903   6.277  11.450 -0.4257 -0.4567  0.4850
11145TIP3   OH254849   2.573   5.778   5.667 -0.8339  0.5263 -0.2970
11145TIP3    H154850   2.588   5.689   5.636 -2.6017  0.6190 -1.6118
11145TIP3    H254851   2.648   5.798   5.722  0.4412 -1.1584 -1.3350
11146TIP3   OH254852   5.054   2.932  15.144 -0.3407  0.7399 -0.0616
11146TIP3    H154853   5.138   2.975  15.126 -1.0201  2.7086  1.0895
11146TIP3    H254854   4.993   3.004  15.160 -2.0391 -0.6507  0.0747
11147TIP3   OH254855   6.222   5.730   4.852  0.0357 -0.3475 -0.2516
11147TIP3    H154856   6.213   5.824   4.867 -1.7474 -0.0864 -2.3490
11147TIP3    H254857   6.174   5.689   4.924 -0.1084  0.3910  0.0856
11148TIP3   OH254858   1.912   0.971   6.086 -0.1292  0.1322 -0.4921
11148TIP3    H154859   1.839   1.011   6.133 -0.2771  0.4218 -0.9683
11148TIP3    H254860   1.983   0.968   6.151 -0.9508 -1.3977  0.4127
11149TIP3   OH254861   1.768   0.042  12.869  0.3851  0.1591  0.2863
11149TIP3    H154862   1.726   0.120  12.833 -0.2162 -0.0595  0.4978
11149TIP3    H254863   1.777  -0.016  12.793 -0.2193 -0.0152  0.3423
11150TIP3   OH254864   4.972   1.539  12.920  0.0169 -0.1171 -0.3415
11150TIP3    H154865   5.057   1.509  12.951 -0.7997 -0.8460  1.3318
11150TIP3    H254866   4.978   1.634  12.922  0.2628 -0.1300  1.4687
11151TIP3   OH254867   0.122   4.742  14.857 -0.0980 -0.5842  0.2770
11151TIP3    H154868   0.120   4.830  14.817 -0.9789 -1.0540 -0.7827
11151TIP3    H254869   0.166   4.755  14.941 -0.3137  0.8980  0.1983
11152TIP3   OH254870   2.711   6.771  16.367  0.2377  0.7071  0.0529
11152TIP3    H154871   2.642   6.718  16.406  0.3285  0.6636  0.1572
11152TIP3    H254872   2.761   6.710  16.312  0.8943  0.4756  0.8811
11153TIP3   OH254873   1.112   0.602   3.044  0.5765 -0.8514  0.6746
11153TIP3    H154874   1.126   0.586   2.951 -0.4078  1.0822  0.1490
11153TIP3    H254875   1.024   0.639   3.050  1.7370  2.0276  1.9500
11154TIP3   OH254876   5.291   4.590  12.152 -0.0240  0.0035  0.3044
11154TIP3    H154877   5.330   4.575  12.238 -2.0133 -1.0218  1.0946
11154TIP3    H254878   5.227   4.660  12.166 -0.0530  0.1445 -0.4607
11155TIP3   OH254879   5.869   2.728  12.743  0.0415  0.7121 -0.0933
11155TIP3    H154880   5.824   2.656  12.698  1.3769 -0.4088  0.2836
11155TIP3    H254881   5.829   2.729  12.830  2.2697 -1.9324  1.1115
11156TIP3   OH254882   1.918   0.337  16.964 -0.2524 -0.2874 -0.3495
11156TIP3    H154883   1.921   0.245  16.987 -2.2175 -0.0885  0.9144
11156TIP3    H254884   1.854   0.376  17.024  1.3694  2.1567 -0.0377
11157TIP3   OH254885   6.063   4.719  16.088  0.4652  0.6923  0.0411
11157TIP3    H154886   5.975   4.743  16.115  0.1078 -2.5796  2.4463
11157TIP3    H254887   6.054   4.694  15.996 -0.9325  1.1760  0.0270
11158TIP3   OH254888   6.033   4.312   0.458  0.0290  0.2751  0.4724
11158TIP3    H154889   6.006   4.299   0.549  1.3076  0.9549  0.9664
11158TIP3    H254890   6.099   4.381   0.462  2.0121 -1.4439 -0.6409
11159TIP3   OH254891   0.895   3.175  12.015 -0.0625  0.2357 -0.1707
11159TIP3    H154892   0.875   3.109  12.081 -0.4450  0.0672 -0.4459
11159TIP3    H254893   0.899   3.125  11.933 -0.0157  0.5049 -0.3315
11160TIP3   OH254894   2.199   4.215   2.666  0.6572  0.4694 -0.2613
11160TIP3    H154895   2.180   4.292   2.720  2.3574  0.1305  0.9038
11160TIP3    H254896   2.243   4.155   2.725  1.8506 -0.2713 -1.8248
11161TIP3   OH254897   0.614   2.786  15.831 -0.4107  0.0203  0.3875
11161TIP3    H154898   0.646   2.813  15.745  0.2469  1.3242  0.9948
11161TIP3    H254899   0.547   2.721  15.813 -2.3290  2.2685 -1.2616
11162TIP3   OH254900   4.573   6.347  15.777 -0.5268  0.0440  0.2314
11162TIP3    H154901   4.513   6.384  15.713 -1.7551 -1.7632  0.2673
11162TIP3    H254902   4.534   6.370  15.862  0.6699  1.7349  0.3869
11163TIP3   OH254903   2.355   4.708  16.976  0.2901  0.0976 -0.3898
11163TIP3    H154904   2.429   4.675  17.028 -1.5351 -2.4324  0.8067
11163TIP3    H254905   2.392   4.722  16.888  1.8201 -3.0751 -0.3895
11164TIP3   OH254906   1.500   1.666  16.287 -0.2143  0.2719 -0.3427
11164TIP3    H154907   1.577   1.644  16.339 -0.7769 -1.3280 -0.1139
11164TIP3    H254908   1.445   1.718  16.346  0.6291  1.3389 -0.4782
11165TIP3   OH254909   2.912   1.209  12.477  0.3334  0.0587  0.2551
11165TIP3    H154910   2.828   1.202  12.522 -0.1406  1.2394 -0.4035
11165TIP3    H254911   2.919   1.128  12.426  0.7429 -1.1765  2.1347
11166TIP3   OH254912   3.475   1.867  16.605  0.0541  0.0219 -0.3813
11166TIP3    H154913   3.568   1.892  16.605  0.1453 -0.2816  0.4567
11166TIP3    H254914   3.428   1.950  16.603  0.3180  0.1737 -1.8249
11167TIP3   OH254915   4.138   2.029  12.064 -0.2166  0.4727  0.5953
11167TIP3    H154916   4.156   2.055  11.973  0.6368  2.0625  1.1786
11167TIP3    H254917   4.056   2.074  12.085  0.5666  1.6750  1.1826
11168TIP3   OH254918   5.256   0.737   3.176 -0.2116  0.1460 -0.0378
11168TIP3    H154919   5.223   0.678   3.108  0.7302  2.4095 -2.5939
11168TIP3    H254920   5.350   0.738   3.164 -0.1096  1.3362  0.7128
11169TIP3   OH254921   5.046   3.898   6.153 -0.4208 -0.3274  0.3792
11169TIP3    H154922   5.013   3.810   6.168 -0.3036 -0.2198  1.3435
11169TIP3    H254923   5.110   3.912   6.223 -2.8282  1.7029  2.3755
11170TIP3   OH254924   2.393   2.734  14.255 -0.4340  0.4851 -0.1748
11170TIP3    H154925   2.443   2.773  14.326  1.2885  1.2506 -1.7308
11170TIP3    H254926   2.414   2.641  14.258 -2.1009  0.0978  1.6063
11171TIP3   OH254927   3.628   3.556  17.053  0.6625  0.1313  0.6699
11171TIP3    H154928   3.637   3.499  17.129 -1.5078 -1.8275 -0.4304
11171TIP3    H254929   3.551   3.610  17.073 -0.5817 -1.1399 -0.5150
11172TIP3   OH254930   3.101   3.646  12.943  0.3204  0.6884  0.1264
11172TIP3    H154931   3.015   3.614  12.968  0.1301  1.8923  1.0898
11172TIP3    H254932   3.144   3.570  12.904 -0.8062 -0.2017  0.5562
11173TIP3   OH254933   4.201   0.138  16.517 -0.4037  0.4956  0.1839
11173TIP3    H154934   4.290   0.107  16.500  0.2339  1.2065  2.0608
11173TIP3    H254935   4.178   0.188  16.438  0.6738 -0.0462 -0.4991
11174TIP3   OH254936   1.980   2.147   4.527 -0.5021 -0.8299  0.5666
11174TIP3    H154937   1.933   2.230   4.521  0.3372 -0.3811  0.0603
11174TIP3    H254938   1.912   2.082   4.546 -1.0526  0.1065  1.9988
11175TIP3   OH254939   2.903   6.715  10.455 -0.2518  0.2658 -0.2541
11175TIP3    H154940   2.858   6.782  10.402  1.9943  0.6886 -1.7650
11175TIP3    H254941   2.897   6.636  10.402  1.2039  0.4703 -0.7799
11176TIP3   OH254942   0.939   1.112   4.257  0.4281 -0.1402  0.1473
11176TIP3    H154943   0.976   1.065   4.182  0.1552 -0.1000 -0.0139
11176TIP3    H254944   0.846   1.123   4.235  0.3044 -0.2959  0.5755
11177TIP3   OH254945   4.047   4.024  11.568  0.4724  0.3429  0.0144
11177TIP3    H154946   4.138   4.053  11.564  0.8786 -0.6394  1.2211
11177TIP3    H254947   4.052   3.937  11.608 -0.8783 -0.3600 -1.2774
11178TIP3   OH254948   5.254   4.823  16.056 -0.4463  0.1843  0.4758
11178TIP3    H154949   5.330   4.814  15.999 -1.6422  0.0644 -1.1779
11178TIP3    H254950   5.179   4.823  15.996 -1.8056 -0.5188  2.1011
11179TIP3   OH254951   2.559   4.957   4.194 -0.0444  0.5175  0.2092
11179TIP3    H154952   2.603   5.039   4.171  0.9657  0.9211  3.1035
11179TIP3    H254953   2.520   4.974   4.279 -1.1409 -1.5587  0.1903
11180TIP3   OH254954   5.971   3.189  13.261 -0.1135 -0.1046  0.5165
11180TIP3    H154955   5.923   3.272  13.261  0.6606  0.3893 -0.9070
11180TIP3    H254956   5.933   3.140  13.188 -0.6987 -1.1030  1.4707
11181TIP3   OH254957   3.845   3.660   0.845  0.0438 -0.5089 -0.8963
11181TIP3    H154958   3.916   3.598   0.864  0.8046  1.1406  2.3446
11181TIP3    H254959   3.769   3.623   0.890 -0.6114 -1.0832 -2.4083
11182TIP3   OH254960   1.395   0.056  10.906 -0.3067  0.6020 -0.5385
11182TIP3    H154961   1.454   0.008  10.964  0.7089  1.1473 -1.0926
11182TIP3    H254962   1.318   0.075  10.960 -0.7188 -1.5336 -0.2603
11183TIP3   OH254963   6.249   6.359   6.085  0.8565 -0.3986 -0.3115
11183TIP3    H154964   6.191   6.376   6.010 -0.4071 -0.3017  0.6533
11183TIP3    H254965   6.220   6.275   6.120  1.6359 -0.5879 -0.1070
11184TIP3   OH254966   1.778   6.621  17.224 -0.0768  0.0210  0.6559
11184TIP3    H154967   1.842   6.555  17.249  0.4509  0.1589 -0.2821
11184TIP3    H254968   1.825   6.679  17.164 -0.9595  0.3800  0.2868
11185TIP3   OH254969   5.860   6.539   5.169  0.0437  0.2670  0.1460
11185TIP3    H154970   5.930   6.499   5.117  1.1418 -1.3554  2.7046
11185TIP3    H254971   5.876   6.633   5.161  0.4138  0.0794 -2.0293
11186TIP3   OH254972   5.478   4.435   4.611 -0.1852  0.2640 -0.3466
11186TIP3    H154973   5.511   4.368   4.672 -0.0321  0.4225 -0.2546
11186TIP3    H254974   5.530   4.422   4.532  0.6426  1.0161  0.0623
11187TIP3   OH254975   4.445   6.393   3.838  0.3176  0.2137  0.0212
11187TIP3    H154976   4.461   6.451   3.764 -0.1041  0.2425 -0.0534
11187TIP3    H254977   4.526   6.395   3.889  0.4855  0.4667 -0.2543
11188TIP3   OH254978   5.008   1.428  15.042  0.2137  0.4117 -0.0576
11188TIP3    H154979   5.016   1.383  15.126  0.5263 -0.8320 -0.7249
11188TIP3    H254980   5.096   1.426  15.005 -0.3151 -1.0102 -1.3556
11189TIP3   OH254981   1.617   1.795  13.795 -0.3340  0.4692  0.1567
11189TIP3    H154982   1.670   1.874  13.798  0.2071  0.0885  0.8838
11189TIP3    H254983   1.566   1.797  13.876  0.2733 -0.3230  0.5695
11190TIP3   OH254984   4.449   0.109   3.759  0.0190  0.3748 -0.1540
11190TIP3    H154985   4.433   0.058   3.838  1.6527  1.5275  0.9885
11190TIP3    H254986   4.367   0.105   3.710 -1.3918  0.4558  2.0807
11191TIP3   OH254987   4.933   0.870  13.720 -0.0125  0.5667 -0.2219
11191TIP3    H154988   4.848   0.859  13.761 -0.0482  0.7443 -0.2479
11191TIP3    H254989   4.941   0.965  13.705 -0.5142  0.4080 -1.7106
11192TIP3   OH254990   4.816   6.615  11.017  0.0568  0.3321  0.6559
11192TIP3    H154991   4.898   6.637  11.061  0.6182 -1.2812  0.4930
11192TIP3    H254992   4.809   6.520  11.027 -2.4075  0.5570  1.6958
11193TIP3   OH254993   1.788   0.336   3.414 -0.5983 -0.0895 -1.0451
11193TIP3    H154994   1.700   0.351   3.447 -0.8763 -0.6025 -1.5557
11193TIP3    H254995   1.781   0.344   3.319  0.0768  0.7196 -1.0390
11194TIP3   OH254996   3.356   6.138  12.876 -0.0803  0.8953  0.4478
11194TIP3    H154997   3.288   6.104  12.818  0.9283 -1.7643  0.6901
11194TIP3    H254998   3.338   6.098  12.961  0.4420  2.0330  1.1246
11195TIP3   OH254999   4.667   0.208   3.111 -0.6081 -0.0859 -0.5348
11195TIP3    H155000   4.651   0.192   3.018 -0.0421  0.3769 -0.7205
11195TIP3    H255001   4.749   0.160   3.129 -1.7214 -1.8133  0.2163
11196TIP3   OH255002   3.751   6.739   4.259 -0.0838  0.2116  0.6195
11196TIP3    H155003   3.669   6.728   4.307  0.3426  0.8714  1.5298
11196TIP3    H255004   3.757   6.661   4.203 -0.4521 -0.7357  1.8571
11197TIP3   OH255005   1.431   4.569  15.829  0.1850  0.2346 -0.6577
11197TIP3    H155006   1.520   4.533  15.829  0.6262  1.1162 -2.8095
11197TIP3    H255007   1.392   4.536  15.748 -0.9884  0.9351 -0.4008
11198TIP3   OH255008   3.826   1.115  13.007 -0.3288  0.2585  0.2801
11198TIP3    H155009   3.734   1.098  12.989  0.0581 -1.4547 -0.2698
11198TIP3    H255010   3.848   1.190  12.952 -1.2087  0.2148 -0.1420
11199TIP3   OH255011   0.374   3.813  15.205  0.2367 -0.6480  0.3446
11199TIP3    H155012   0.369   3.755  15.130  0.5227  0.0180 -0.2038
11199TIP3    H255013   0.445   3.778  15.259  0.8267 -0.4536 -0.2969
11200TIP3   OH255014   2.440   6.415   2.247 -0.3898  0.7526  0.1648
11200TIP3    H155015   2.528   6.438   2.277 -1.1577  1.7042  1.8251
11200TIP3    H255016   2.451   6.330   2.203  1.3460  0.8627  0.3255
11201TIP3   OH255017   5.466   2.639  10.605 -0.3172 -0.0601  0.3214
11201TIP3    H155018   5.553   2.615  10.572  0.0231  0.5887  0.7368
11201TIP3    H255019   5.423   2.681  10.531 -0.2164 -0.2224  0.1687
11202TIP3   OH255020   5.338   2.900   0.993  0.3322  0.5583  0.0594
11202TIP3    H155021   5.324   2.987   0.955 -0.7843  0.4461  0.2035
11202TIP3    H255022   5.413   2.866   0.944  0.5356  1.4418 -0.2724
11203TIP3   OH255023   3.995   1.929  13.594  0.4514 -0.1515 -0.8359
11203TIP3    H155024   3.943   1.911  13.672 -0.4946  1.3706 -1.0715
11203TIP3    H255025   3.985   1.850  13.540 -0.8529 -0.2801 -0.4499
11204TIP3   OH255026   4.357   4.569   2.989  0.2260 -0.2932  0.1143
11204TIP3    H155027   4.424   4.615   2.940  0.3490  0.1295  0.6750
11204TIP3    H255028   4.404   4.500   3.036 -0.0511 -1.4805 -1.2836
11205TIP3   OH255029   1.236   4.165  13.469  0.3354  0.4456 -0.0515
11205TIP3    H155030   1.238   4.070  13.461 -1.4779  0.3993 -0.4368
11205TIP3    H255031   1.226   4.197  13.380 -2.5030  0.7679  0.2689
11206TIP3   OH255032   0.899   3.564  13.947 -0.2563 -0.0604  0.5119
11206TIP3    H155033   0.984   3.547  13.906 -0.3992 -1.1618  0.6503
11206TIP3    H255034   0.906   3.653  13.981  0.8894 -0.1909  0.6365
11207TIP3   OH255035   2.268   5.015   4.056 -0.8684 -0.2862 -1.2725
11207TIP3    H155036   2.320   4.974   3.988  2.5726 -1.2245  1.6167
11207TIP3    H255037   2.235   4.942   4.109  1.8562  0.2849  1.5276
11208TIP3   OH255038   5.935   5.798   2.180 -0.2307  0.4281 -0.2066
11208TIP3    H155039   5.957   5.712   2.217  1.6764  0.7072 -0.5895
11208TIP3    H255040   5.907   5.850   2.256 -1.8082 -0.6165 -0.0324
11209TIP3   OH255041   5.148   1.504   1.402  0.6756 -0.3607 -0.0101
11209TIP3    H155042   5.221   1.534   1.348  2.0418  0.4090  2.1800
11209TIP3    H255043   5.188   1.456   1.474 -1.0006 -0.3231  1.0104
11210TIP3   OH255044   1.639   4.991   0.740 -0.3120 -0.0357  0.5536
11210TIP3    H155045   1.666   4.961   0.827  1.6381 -0.0686 -0.0093
11210TIP3    H255046   1.693   4.941   0.680 -3.2472 -1.7280 -0.8682
11211TIP3   OH255047   4.584   3.005   3.067  0.3114 -1.2365  0.5300
11211TIP3    H155048   4.661   3.062   3.061  0.0900 -0.7820  1.6535
11211TIP3    H255049   4.613   2.922   3.030  0.1747 -0.0110 -2.6245
11212TIP3   OH255050   6.012   0.378   4.345 -0.3093  0.4758 -0.1108
11212TIP3    H155051   5.951   0.322   4.298 -1.7061  1.0111  0.9754
11212TIP3    H255052   6.092   0.377   4.293 -0.8509 -1.1867 -0.9634
11213TIP3   OH255053   3.166   1.970  17.201 -0.1352 -0.4590 -0.0671
11213TIP3    H155054   3.241   1.914  17.222  0.8509  0.4720 -0.9944
11213TIP3    H255055   3.090   1.912  17.207  0.6441 -1.4146  0.9367
11214TIP3   OH255056   4.148   3.880   0.761 -0.2968 -0.2706  0.0418
11214TIP3    H155057   4.052   3.882   0.766 -0.3473 -0.5610 -0.6788
11214TIP3    H255058   4.172   3.966   0.729 -0.2740  0.0001  0.7696
11215TIP3   OH255059   3.771   3.951  16.326 -0.2571 -0.1263 -0.1201
11215TIP3    H155060   3.697   4.005  16.298  0.1424  0.8124  0.5744
11215TIP3    H255061   3.744   3.915  16.410 -0.8325 -1.6756 -0.9371
11216TIP3   OH255062   2.668   2.504   1.320  0.1491  0.1419  0.1123
11216TIP3    H155063   2.762   2.522   1.314  0.1307 -0.1373 -1.5365
11216TIP3    H255064   2.633   2.531   1.235 -0.9535 -1.4314  0.0165
11217TIP3   OH255065   3.271   5.200   5.861 -0.6370 -0.1717  0.5426
11217TIP3    H155066   3.282   5.209   5.956 -0.0720 -0.3204  0.4943
11217TIP3    H255067   3.339   5.138   5.834  0.3421  1.1787 -0.2065
11218TIP3   OH255068   5.083   5.200   4.190 -0.7305  0.7015 -0.1859
11218TIP3    H155069   5.134   5.149   4.127 -0.5540  1.5269 -0.7320
11218TIP3    H255070   5.038   5.135   4.244 -2.0628 -0.0589 -2.1107
11219TIP3   OH255071   5.151   5.525   0.177  0.4587  0.3565 -0.3724
11219TIP3    H155072   5.154   5.574   0.259  0.2509  0.8017 -0.6230
11219TIP3    H255073   5.137   5.434   0.203  0.1541  0.5287  0.0764
11220TIP3   OH255074   0.142   5.462   4.769 -0.5648  0.0073 -0.3369
11220TIP3    H155075   0.063   5.429   4.726 -0.6352  0.4462 -0.5465
11220TIP3    H255076   0.116   5.476   4.860 -0.1585 -1.8500  0.1147
11221TIP3   OH255077   6.146   1.562   4.218 -0.1925  0.2673  0.0764
11221TIP3    H155078   6.181   1.649   4.239  1.0503 -0.6630  2.2981
11221TIP3    H255079   6.208   1.525   4.155  2.3981 -0.8709  3.0197
11222TIP3   OH255080   3.578   1.833   4.034 -0.0128 -0.3623  0.1005
11222TIP3    H155081   3.592   1.806   3.944  0.5196  0.3663 -0.0512
11222TIP3    H255082   3.486   1.813   4.052 -0.2579 -0.0746 -0.7649
11223TIP3   OH255083   4.414   2.198   3.937  0.2309 -0.1933  0.0341
11223TIP3    H155084   4.473   2.252   3.884  1.0328 -0.2097  0.8972
11223TIP3    H255085   4.444   2.108   3.921 -0.8422 -0.3765 -1.0809
11224TIP3   OH255086   0.889   4.860   0.746 -0.1620 -0.0130 -0.0766
11224TIP3    H155087   0.912   4.843   0.654  1.5346 -2.4588  0.6986
11224TIP3    H255088   0.931   4.944   0.765 -0.7766  0.6720 -1.5929
11225TIP3   OH255089   5.076   1.323   2.110  0.0907 -0.2933 -0.1221
11225TIP3    H155090   5.027   1.382   2.166  0.4278 -0.7468  0.6676
11225TIP3    H255091   5.167   1.353   2.117 -0.1165  1.0137 -2.1618
11226TIP3   OH255092   5.667   5.704   4.886  0.1385  0.1540  0.2585
11226TIP3    H155093   5.647   5.643   4.815 -0.9855  1.5802 -0.6891
11226TIP3    H255094   5.724   5.654   4.945 -0.6474 -1.7664 -0.5346
11227TIP3   OH255095   3.537   6.144   0.823  0.1667  0.0094  0.3909
11227TIP3    H155096   3.628   6.125   0.844  0.1528 -1.3413 -0.6355
11227TIP3    H255097   3.531   6.240   0.823  0.9987  0.1231  2.7785
11228TIP3   OH255098   5.928   5.914  16.572  0.2863 -0.1177  0.0116
11228TIP3    H155099   5.910   5.952  16.658  0.8861  0.0796  0.0552
11228TIP3    H255100   5.919   5.987  16.512 -0.4530 -0.3245 -0.1383
11229TIP3   OH255101   6.064   3.046   4.409 -0.2409  0.8820 -0.0844
11229TIP3    H155102   6.041   2.964   4.453  2.1044  0.2732  0.1214
11229TIP3    H255103   5.995   3.058   4.344  0.2223 -2.2243 -1.3218
11230TIP3   OH255104   3.568   6.100  13.880  0.0899 -0.2328 -0.4425
11230TIP3    H155105   3.637   6.050  13.924  0.2659 -0.4903 -0.9931
11230TIP3    H255106   3.500   6.110  13.946 -0.9035 -3.0756 -0.8648
11231TIP3   OH255107   2.273   5.896   2.438  0.0078  0.2489  0.5932
11231TIP3    H155108   2.206   5.915   2.373 -1.6896  1.6910  2.6385
11231TIP3    H255109   2.253   5.808   2.469 -1.5720  0.9928  1.8135
11232TIP3   OH255110   3.698   5.692  13.668  0.1005  0.0985  0.3953
11232TIP3    H155111   3.615   5.740  13.669  0.3614  0.6375 -1.2711
11232TIP3    H255112   3.678   5.611  13.619  0.1031 -0.7063  1.6740
11233TIP3   OH255113   1.034   0.421   0.426 -0.1699  0.0826 -0.0709
11233TIP3    H155114   1.025   0.470   0.344 -0.3920 -0.4976 -0.3994
11233TIP3    H255115   0.999   0.480   0.493 -0.2324  0.4556 -0.4286
11234TIP3   OH255116   6.413   1.829  11.704 -0.6876 -0.4744  0.5060
11234TIP3    H155117   6.501   1.792  11.700 -0.1175  0.9507 -1.6225
11234TIP3    H255118   6.415   1.888  11.779  0.2441 -0.3021  0.3584
11235TIP3   OH255119   4.120   0.135  11.171 -0.0653  0.1389  0.0798
11235TIP3    H155120   4.211   0.159  11.183  0.2592 -0.9077 -0.1671
11235TIP3    H255121   4.099   0.164  11.082  1.2768 -3.1365 -1.4802
11236TIP3   OH255122   0.886   6.432  16.605 -0.3075  0.1276 -0.1946
11236TIP3    H155123   0.908   6.525  16.602 -0.9185  0.2533 -1.1666
11236TIP3    H255124   0.958   6.389  16.558 -0.4396  0.1992 -0.4660
11237TIP3   OH255125   6.467   0.354   3.000  0.3757 -0.2759 -0.2271
11237TIP3    H155126   6.463   0.270   2.954  0.6312  0.0039 -0.7701
11237TIP3    H255127   6.559   0.362   3.027  0.5699  0.2739 -1.0292
11238TIP3   OH255128   6.481   4.387  11.520  0.0432 -0.3911  0.5780
11238TIP3    H155129   6.551   4.322  11.532 -0.4219 -0.8870  0.6717
11238TIP3    H255130   6.415   4.363  11.585 -0.0970  0.2431  0.6771
11239TIP3   OH255131   5.339   0.247  15.552 -1.2135 -0.5824 -0.2653
11239TIP3    H155132   5.374   0.182  15.612 -0.7392 -0.5919 -0.5485
11239TIP3    H255133   5.250   0.218  15.535 -0.8020 -1.5151 -0.8933
11240TIP3   OH255134   5.582   0.966  13.125  0.3175  0.4614  0.4114
11240TIP3    H155135   5.628   0.942  13.044 -0.8354 -3.3974  0.6920
11240TIP3    H255136   5.637   1.034  13.165  3.1080 -0.4145 -1.6068
11241TIP3   OH255137   3.643   4.792  13.997 -0.0360 -0.5852 -0.3261
11241TIP3    H155138   3.639   4.774  14.091  1.2456 -1.3310 -0.3964
11241TIP3    H255139   3.680   4.712  13.958  1.7069  0.5913 -1.1739
11242TIP3   OH255140   6.516   3.652  16.211  0.1800 -0.2334 -0.7715
11242TIP3    H155141   6.474   3.621  16.292  0.4886  0.6059 -0.2817
11242TIP3    H255142   6.476   3.599  16.142 -1.5515  0.4094 -0.3087
11243TIP3   OH255143   0.490   1.794  16.318  0.4271  0.4453 -0.5988
11243TIP3    H155144   0.484   1.789  16.223 -0.1236 -0.0355 -0.5465
11243TIP3    H255145   0.411   1.750  16.349  1.1031 -0.3394  0.0905
11244TIP3   OH255146   1.022   5.906  12.167  0.5374  0.2078 -0.1541
11244TIP3    H155147   1.037   5.882  12.076  0.5601  0.6240 -0.2626
11244TIP3    H255148   1.013   5.822  12.213  0.9766 -0.0100 -0.4587
11245TIP3   OH255149   1.463   0.491   4.116  0.1009  0.0928 -0.0512
11245TIP3    H155150   1.397   0.429   4.086 -1.0955  0.4212  1.7776
11245TIP3    H255151   1.489   0.459   4.203  0.4591  1.3901  0.3372
11246TIP3   OH255152   2.413   5.446  17.232  0.4562  0.6222  0.1551
11246TIP3    H155153   2.411   5.369  17.290  0.2542  0.0373 -0.6164
11246TIP3    H255154   2.506   5.464  17.220  0.5058  0.4941  0.3270
11247TIP3   OH255155   4.483   0.054  14.482 -0.0332  0.9128  0.0694
11247TIP3    H155156   4.418   0.090  14.542  2.2312  2.6410  1.6811
11247TIP3    H255157   4.481  -0.040  14.498 -1.1955  1.0731  1.0411
11248TIP3   OH255158   3.738   0.101  14.675  0.3641 -0.3139  0.1003
11248TIP3    H155159   3.698   0.139  14.597 -0.3557 -0.5422  0.3455
11248TIP3    H255160   3.780   0.174  14.719  0.2665 -0.0758 -0.1989
11249TIP3   OH255161   3.490   6.238  12.029  0.4369  0.0382  0.3576
11249TIP3    H155162   3.509   6.167  11.968  0.4372 -1.2174  1.7737
11249TIP3    H255163   3.427   6.293  11.982  0.4531 -0.8685 -0.7850
11250TIP3   OH255164   3.282   1.119   3.450  0.5546 -0.0481  0.3757
11250TIP3    H155165   3.339   1.064   3.395 -0.6781 -0.8183 -0.1726
11250TIP3    H255166   3.303   1.094   3.540  1.6599  0.2872  0.2314
11251TIP3   OH255167   6.351   5.985  16.777  0.0760  0.0832  0.0711
11251TIP3    H155168   6.388   6.058  16.826  0.1022 -0.0322  0.2215
11251TIP3    H255169   6.326   5.921  16.843 -0.2512  0.0950 -0.0425
11252TIP3   OH255170   1.748   1.950  15.707 -0.3809  0.5362 -0.1354
11252TIP3    H155171   1.683   1.962  15.776  2.2445  2.4840  2.2540
11252TIP3    H255172   1.773   1.858  15.714  1.1694  1.0513  3.0344
11253TIP3   OH255173   0.597   2.124  14.161 -0.5230 -0.0321  0.1154
11253TIP3    H155174   0.621   2.032  14.166  2.4642  0.6658  0.4698
11253TIP3    H255175   0.625   2.161  14.245 -0.1383  1.4944 -0.6486
11254TIP3   OH255176   2.634   0.892  12.289 -0.3803 -0.5883 -0.2634
11254TIP3    H155177   2.574   0.870  12.361  2.7764 -1.6135  2.2813
11254TIP3    H255178   2.627   0.818  12.229  0.4247 -2.1775  1.5056
11255TIP3   OH255179   6.614   4.332   2.204  0.1357  0.3973  0.2013
11255TIP3    H155180   6.569   4.255   2.171  0.3676  0.1343  0.4953
11255TIP3    H255181   6.561   4.361   2.278 -0.2300  0.8229 -0.2173
11256TIP3   OH255182   5.201   1.346   4.763  0.6150  0.2549 -0.1840
11256TIP3    H155183   5.148   1.267   4.773  0.9639  0.0079 -0.2708
11256TIP3    H255184   5.164   1.407   4.826  1.2332 -0.4572  0.9056
11257TIP3   OH255185   2.204   4.521   1.102 -0.3838  0.5199  0.4741
11257TIP3    H155186   2.259   4.548   1.176  1.0976  2.5221 -1.2254
11257TIP3    H255187   2.119   4.560   1.119  0.1606  1.5936  0.7929
11258TIP3   OH255188   1.460   4.680   0.750  0.0624  0.0706 -0.3164
11258TIP3    H155189   1.479   4.739   0.823 -1.1116 -0.5766  0.5532
11258TIP3    H255190   1.525   4.610   0.757  0.8331  0.7273 -0.7564
11259TIP3   OH255191   5.441   2.401  14.446  0.1835 -0.1297 -0.0683
11259TIP3    H155192   5.392   2.454  14.382 -2.5163  0.3824  2.2231
11259TIP3    H255193   5.427   2.311  14.417 -0.7038  0.1081 -0.4425
11260TIP3   OH255194   3.100   5.939   4.085 -0.0138 -0.3506  0.3379
11260TIP3    H155195   3.183   5.922   4.039  0.7437  0.6985  1.2584
11260TIP3    H255196   3.101   5.877   4.158 -0.6623 -1.2107 -0.3646
11261TIP3   OH255197   2.218   6.687  10.591 -1.0134 -0.6122 -0.1212
11261TIP3    H155198   2.270   6.760  10.625  0.7847 -1.7064 -0.4083
11261TIP3    H255199   2.240   6.684  10.497 -2.6021 -0.3269 -0.5384
11262TIP3   OH255200   5.113   6.397  12.435  0.1130  0.0683 -0.4517
11262TIP3    H155201   5.161   6.339  12.494 -0.9133  2.5379  3.1708
11262TIP3    H255202   5.027   6.355  12.424 -0.9122  1.0014  2.7792
11263TIP3   OH255203   3.783   6.613   1.331 -0.0336 -0.3968  0.9658
11263TIP3    H155204   3.860   6.657   1.295 -0.7670 -0.2204 -0.4814
11263TIP3    H255205   3.785   6.525   1.292 -0.4677 -0.4523  1.0612
11264TIP3   OH255206   3.794   3.453   2.427  0.5972 -0.4447 -0.4567
11264TIP3    H155207   3.699   3.459   2.415  0.5007 -1.1345 -0.1199
11264TIP3    H255208   3.805   3.412   2.513  1.2271  1.1966  0.2979
11265TIP3   OH255209   0.391   3.881   0.017  0.2191 -0.4328  0.1960
11265TIP3    H155210   0.318   3.826  -0.013  0.3686 -0.6277  0.1841
11265TIP3    H255211   0.454   3.876  -0.055 -0.2037  0.6053 -0.2766
11266TIP3   OH255212   0.276   3.174  15.664  0.1174  0.2441 -0.6770
11266TIP3    H155213   0.282   3.137  15.575 -2.1196  0.2494 -0.8724
11266TIP3    H255214   0.264   3.098  15.720  1.0271  0.2858 -0.4047
11267TIP3   OH255215   5.104   0.916  15.814 -0.1432  0.0889 -0.4501
11267TIP3    H155216   5.145   0.833  15.837  2.2125  1.1082 -0.6816
11267TIP3    H255217   5.080   0.907  15.722 -0.5202 -0.5534 -0.2928
11268TIP3   OH255218   3.102   5.718  16.208 -0.0881  0.0867 -0.1700
11268TIP3    H155219   3.192   5.688  16.209  0.0146  0.3897  0.2502
11268TIP3    H255220   3.104   5.800  16.257 -0.5770  0.1349 -0.2240
11269TIP3   OH255221   3.126   5.836   2.272  0.0404  0.3374  0.6190
11269TIP3    H155222   3.070   5.786   2.332 -0.3431  1.6212  1.3671
11269TIP3    H255223   3.195   5.872   2.328  0.1626  0.8527  0.1412
11270TIP3   OH255224   1.296   2.360   4.891 -0.1723  0.2326  0.4957
11270TIP3    H155225   1.284   2.415   4.969  0.1112  2.2491 -0.7909
11270TIP3    H255226   1.369   2.303   4.912 -2.5930 -2.1775  3.1745
11271TIP3   OH255227   0.966   3.459  12.689 -0.0762 -0.1682 -0.7728
11271TIP3    H155228   1.058   3.457  12.663  0.0379 -2.2457 -0.3486
11271TIP3    H255229   0.968   3.469  12.784 -0.2505 -0.8259 -0.6928
11272TIP3   OH255230   0.620   4.063  15.451 -0.3112  0.0295 -0.0152
11272TIP3    H155231   0.605   4.070  15.545  0.1282 -0.3609  0.0892
11272TIP3    H255232   0.567   4.132  15.413 -1.5561 -0.6610  0.4141
11273TIP3   OH255233   3.908   0.421   4.228  0.3801  0.0537 -0.0355
11273TIP3    H155234   3.903   0.328   4.251  1.0939  0.0003 -0.0636
11273TIP3    H255235   4.002   0.437   4.216  0.1454  0.3922 -1.6323
11274TIP3   OH255236   3.450   5.522   3.040  0.0378 -0.6547  0.3153
11274TIP3    H155237   3.363   5.524   3.001 -0.4909 -1.3195  1.4064
11274TIP3    H255238   3.496   5.453   2.991 -0.0667 -0.3581 -0.2092
11275TIP3   OH255239   3.896   0.297  13.457  0.2456 -0.3666 -0.1511
11275TIP3    H155240   3.976   0.245  13.447 -0.2188 -1.5064  1.6463
11275TIP3    H255241   3.904   0.337  13.544 -0.9914 -0.2310 -0.0825
11276TIP3   OH255242   3.947   2.152   5.440 -0.2262 -0.3769 -0.7700
11276TIP3    H155243   3.891   2.185   5.509  0.3875 -0.5115 -0.1999
11276TIP3    H255244   4.000   2.227   5.414  0.9769 -0.8144  0.3373
11277TIP3   OH255245   3.923   2.293  15.255 -0.2548  0.2427 -0.4578
11277TIP3    H155246   3.927   2.261  15.165  1.3851 -0.0581 -0.3174
11277TIP3    H255247   3.895   2.217  15.306  1.3633 -0.3847 -0.4229
11278TIP3   OH255248   5.583   5.025   4.104  0.0927  0.1110 -0.0348
11278TIP3    H155249   5.634   5.097   4.067  0.0510 -0.3045 -0.9033
11278TIP3    H255250   5.577   4.960   4.034  0.4099 -0.8931  0.8373
11279TIP3   OH255251   2.271   2.282   4.775 -0.2672 -0.2838 -0.1669
11279TIP3    H155252   2.281   2.248   4.686  2.9406 -1.0728  0.3696
11279TIP3    H255253   2.193   2.237   4.810 -1.1988 -0.4311 -2.3125
11280TIP3   OH255254   6.250   1.596  15.469 -0.6868  0.2339 -0.5852
11280TIP3    H155255   6.269   1.502  15.463  0.8849  0.4682  0.3320
11280TIP3    H255256   6.195   1.605  15.546 -0.7684  0.0857 -0.6251
11281TIP3   OH255257   3.319   4.115  11.613  0.2826  0.1995 -0.2523
11281TIP3    H155258   3.286   4.032  11.578  1.0605 -0.9830  1.6897
11281TIP3    H255259   3.414   4.109  11.602  0.4534  0.2361  1.0943
11282TIP3   OH255260   4.465   1.853   3.234  0.2044 -0.4019 -0.0994
11282TIP3    H155261   4.446   1.879   3.324  0.2968 -0.5869 -0.0245
11282TIP3    H255262   4.403   1.783   3.216  0.8466 -1.0651  0.1746
11283TIP3   OH255263   0.648   1.029   0.850  0.5508  0.4620 -1.2996
11283TIP3    H155264   0.562   1.069   0.833 -0.5585 -0.6394  1.1972
11283TIP3    H255265   0.706   1.104   0.863 -0.1621  1.2377 -2.4291
11284TIP3   OH255266   1.198   0.070   5.843  0.0407  0.1210  0.1684
11284TIP3    H155267   1.265   0.075   5.911  0.2758  1.1696 -0.1265
11284TIP3    H255268   1.247   0.063   5.761 -0.2368 -0.5666  0.0539
11285TIP3   OH255269   2.348   2.916  13.777 -0.4645  0.4736 -0.1009
11285TIP3    H155270   2.392   2.929  13.693  0.9745 -1.8713  0.2248
11285TIP3    H255271   2.289   2.842  13.763  2.3902 -2.3921  1.7349
11286TIP3   OH255272   2.967   1.584  10.699  0.1696 -0.3657 -0.2500
11286TIP3    H155273   3.057   1.558  10.678  0.6731 -0.1753  1.4599
11286TIP3    H255274   2.962   1.676  10.673  1.8929  0.9363  3.2289
11287TIP3   OH255275   2.084   2.796  15.689 -0.7139  0.3872  0.3713
11287TIP3    H155276   2.163   2.850  15.698 -1.0186  1.5493 -2.7392
11287TIP3    H255277   2.024   2.830  15.755  0.4366  1.3409  0.9661
11288TIP3   OH255278   0.751   0.320   1.092  0.2239 -0.2985 -0.0892
11288TIP3    H155279   0.729   0.234   1.127  0.9989 -0.1754  0.7545
11288TIP3    H255280   0.838   0.339   1.128 -0.1611  1.0653  0.1927
11289TIP3   OH255281   0.086   2.926  14.582  0.4725 -0.3594  0.0550
11289TIP3    H155282   0.030   3.004  14.581 -3.3454 -2.8193 -0.6778
11289TIP3    H255283   0.144   2.939  14.657 -1.4098  2.2717  1.1971
11290TIP3   OH255284   5.493   3.627  11.580 -0.1096 -0.5426  0.0616
11290TIP3    H155285   5.508   3.579  11.498  1.9723  1.8423 -1.0748
11290TIP3    H255286   5.576   3.618  11.627  0.6934  2.5123 -0.5875
11291TIP3   OH255287   0.590   6.745   5.394 -0.4000  0.3259 -0.0965
11291TIP3    H155288   0.511   6.738   5.449 -0.4093 -1.5639 -0.2861
11291TIP3    H255289   0.653   6.686   5.435  0.4425  0.7443 -0.7553
11292TIP3   OH255290   2.343   2.229   3.127 -0.3648 -0.8179  0.0453
11292TIP3    H155291   2.356   2.201   3.218 -0.9731 -0.7768  0.1442
11292TIP3    H255292   2.352   2.149   3.076  0.1826 -0.8089  0.1182
11293TIP3   OH255293   1.469   1.794  12.550  0.4885  0.4762 -0.2006
11293TIP3    H155294   1.400   1.859  12.567 -0.3359 -0.3581 -0.2486
11293TIP3    H255295   1.511   1.781  12.634 -1.3304 -1.1153  0.5369
11294TIP3   OH255296   2.686   5.190   4.149 -0.4959  0.1758  0.2643
11294TIP3    H155297   2.694   5.269   4.202 -2.7296 -0.5480  1.8117
11294TIP3    H255298   2.628   5.214   4.077 -0.9045  0.0271  0.5453
11295TIP3   OH255299   4.854   3.176   4.659  0.2898 -0.8361  0.1002
11295TIP3    H155300   4.829   3.106   4.719  2.9384 -4.0263 -2.1766
11295TIP3    H255301   4.805   3.159   4.579 -1.5849  2.0950  0.4846
11296TIP3   OH255302   3.585   5.785  16.511 -0.2457 -0.0781 -0.3812
11296TIP3    H155303   3.500   5.826  16.495 -0.6606 -0.6166  0.3982
11296TIP3    H255304   3.565   5.697  16.543  0.6283 -0.6776 -1.3974
11297TIP3   OH255305   0.515   2.612   6.122 -0.0369  0.3488 -0.3202
11297TIP3    H155306   0.428   2.617   6.161  0.3079  0.6880  0.4369
11297TIP3    H255307   0.551   2.700   6.132 -0.5230  0.9184 -2.9000
11298TIP3   OH255308   4.268   1.409  12.885 -0.0088 -0.5100  0.5208
11298TIP3    H155309   4.316   1.406  12.968 -0.1038  1.2830  0.6759
11298TIP3    H255310   4.207   1.483  12.896 -1.1641 -1.2781 -0.5438
11299TIP3   OH255311   5.210   4.384   2.987  0.0255  0.3222 -0.5012
11299TIP3    H155312   5.214   4.291   3.005 -0.7167 -0.0392 -2.0433
11299TIP3    H255313   5.122   4.398   2.951 -0.2520  1.8045  0.6534
11300TIP3   OH255314   3.578   1.147  15.199 -0.4980  0.7122 -0.2667
11300TIP3    H155315   3.661   1.099  15.204  0.5164  2.4805  1.6818
11300TIP3    H255316   3.564   1.163  15.106  2.6049  2.3134 -0.5940
11301TIP3   OH255317   5.891   0.331  13.233  0.8893 -0.2975 -0.4919
11301TIP3    H155318   5.834   0.279  13.289 -0.4460 -0.6228 -2.0818
11301TIP3    H255319   5.958   0.269  13.202  0.7702 -0.4645 -0.4142
11302TIP3   OH255320   6.740   2.208   1.823  0.0776 -0.3512 -0.9511
11302TIP3    H155321   6.813   2.227   1.882  0.4692  0.3343 -1.6298
11302TIP3    H255322   6.662   2.237   1.871  0.4102  0.4023 -0.8516
11303TIP3   OH255323   1.599   0.054  10.445 -0.1852  0.4449 -0.5153
11303TIP3    H155324   1.550   0.018  10.519 -1.1481  2.4516 -0.1071
11303TIP3    H255325   1.533   0.100  10.393  1.1800  3.1344 -0.0262
11304TIP3   OH255326   2.438   3.156   5.887 -0.4366  0.0952 -0.1168
11304TIP3    H155327   2.395   3.089   5.833  2.3213 -2.1108  0.2037
11304TIP3    H255328   2.455   3.113   5.971  0.8340  1.4021  0.3416
11305TIP3   OH255329   2.820   5.337   4.860  0.0690  0.6400  0.2788
11305TIP3    H155330   2.796   5.301   4.946  1.2184 -1.8972 -0.3704
11305TIP3    H255331   2.900   5.388   4.878  1.0971 -1.0076  0.5496
11306TIP3   OH255332   1.045   6.407  14.512 -0.1153 -0.1266 -0.2135
11306TIP3    H155333   1.002   6.452  14.439  0.6504 -0.1993 -0.7221
11306TIP3    H255334   0.975   6.355  14.552 -1.3239  2.2994  1.0839
11307TIP3   OH255335   3.963   4.962   2.477  0.2849 -0.3598 -0.3366
11307TIP3    H155336   4.020   4.886   2.473 -0.2007 -0.7062 -0.7592
11307TIP3    H255337   3.917   4.963   2.393 -0.6879 -0.3678  0.1779
11308TIP3   OH255338   2.497   3.876   2.634  0.7815  0.1477  0.5650
11308TIP3    H155339   2.508   3.874   2.539 -1.6799  0.6121  0.2084
11308TIP3    H255340   2.576   3.919   2.666  2.4072 -1.4295 -1.0824
11309TIP3   OH255341   5.505   6.757  14.288  0.2272 -0.2398 -0.0604
11309TIP3    H155342   5.437   6.780  14.352 -0.4164 -1.2635 -0.3377
11309TIP3    H255343   5.571   6.711  14.339 -0.3230 -1.1259 -0.1146
11310TIP3   OH255344   3.542   3.229  17.231 -0.1032  0.3669  0.0337
11310TIP3    H155345   3.634   3.225  17.202 -0.0662  1.1057  0.0331
11310TIP3    H255346   3.503   3.149  17.196  0.8119 -0.5242  1.0073
11311TIP3   OH255347   2.838   5.242   1.853  0.1832  0.1240 -0.1253
11311TIP3    H155348   2.755   5.204   1.881 -0.7217  0.7621 -1.8195
11311TIP3    H255349   2.845   5.324   1.903 -0.1559  0.0152  0.1022
11312TIP3   OH255350   1.483   2.295   0.580  0.2183  0.4785 -0.3968
11312TIP3    H155351   1.421   2.264   0.514  0.1868  0.5019 -0.3781
11312TIP3    H255352   1.512   2.215   0.625 -0.0825  0.5036 -0.1545
11313TIP3   OH255353   2.977   6.724  17.152  0.1450 -0.1624 -0.0590
11313TIP3    H155354   3.029   6.782  17.207 -0.2637  0.3201 -0.1767
11313TIP3    H255355   3.035   6.650  17.134  1.6462  1.3746 -2.0385
11314TIP3   OH255356   3.344   3.385   1.273  0.3148  0.1649  0.2689
11314TIP3    H155357   3.421   3.330   1.256 -0.1201 -0.0801 -0.9677
11314TIP3    H255358   3.380   3.466   1.307  1.1130 -0.0161 -0.1241
11315TIP3   OH255359   2.828   1.736   5.295  0.3041  0.3101  0.3381
11315TIP3    H155360   2.796   1.807   5.240 -2.2193 -0.1983  1.0187
11315TIP3    H255361   2.860   1.670   5.234 -0.0396  0.8306 -0.4164
11316TIP3   OH255362   4.395   3.764   0.777  0.3573  0.3399  0.1069
11316TIP3    H155363   4.317   3.820   0.770 -0.7919 -1.0248  1.3678
11316TIP3    H255364   4.445   3.802   0.849 -1.7261 -1.6129  2.7796
11317TIP3   OH255365   5.023   0.430  11.048 -0.0618 -0.1133  0.1752
11317TIP3    H155366   4.952   0.490  11.069 -2.0647 -2.0821 -0.6485
11317TIP3    H255367   4.981   0.344  11.040  2.5570 -1.5556  0.6184
11318TIP3   OH255368   3.081   0.865   5.293 -0.1361 -0.1953 -0.1485
11318TIP3    H155369   3.085   0.917   5.213 -3.5374 -1.8673 -1.6247
11318TIP3    H255370   3.120   0.781   5.269 -2.8214 -1.3611 -0.8145
11319TIP3   OH255371   6.001   6.545   6.521 -0.0602  0.1494 -0.1766
11319TIP3    H155372   6.040   6.467   6.560 -2.3840 -1.2151 -0.4101
11319TIP3    H255373   6.064   6.615   6.541  3.1297 -2.0410 -1.7406
11320TIP3   OH255374   1.005   2.853   1.696  0.1367  0.2748 -0.2897
11320TIP3    H155375   0.975   2.769   1.659  0.7816 -0.5159  0.9394
11320TIP3    H255376   0.924   2.901   1.714 -0.2603 -0.2860 -0.5445
11321TIP3   OH255377   1.753   4.881  11.722  0.0311 -0.0474  0.1146
11321TIP3    H155378   1.773   4.890  11.629  0.5517  1.7064  0.3544
11321TIP3    H255379   1.838   4.864  11.763 -0.1974 -0.8248  0.2729
11322TIP3   OH255380   5.074   4.672  14.745  0.1560  0.3323  0.5857
11322TIP3    H155381   5.159   4.710  14.721 -0.4740  1.6674  0.3918
11322TIP3    H255382   5.086   4.643  14.835  0.3277  2.1357  1.1894
11323TIP3   OH255383   1.888   5.152   0.112  0.4538 -0.1070 -0.4427
11323TIP3    H155384   1.845   5.230   0.077  0.0839 -0.2175 -0.2442
11323TIP3    H255385   1.818   5.105   0.157  0.5219 -0.8679 -1.1056
11324TIP3   OH255386   1.717   1.378  13.928 -0.0535  0.6627  0.5460
11324TIP3    H155387   1.672   1.294  13.940 -0.6573  0.8370 -0.3778
11324TIP3    H255388   1.727   1.412  14.017  1.6933 -1.1181  1.1137
11325TIP3   OH255389   3.791   1.157   4.693 -0.0422  0.1009  0.1038
11325TIP3    H155390   3.787   1.078   4.747 -1.2741 -0.7308 -1.1324
11325TIP3    H255391   3.717   1.209   4.723 -0.4688 -0.1677 -0.4668
11326TIP3   OH255392   5.960   5.551   3.545 -0.4474 -0.4101 -0.1114
11326TIP3    H155393   5.887   5.565   3.604  0.0701 -0.0550  0.4575
11326TIP3    H255394   5.919   5.533   3.460 -1.3298  4.4605 -1.0211
11327TIP3   OH255395   6.065   5.622   1.575 -0.1252  0.1429  0.5127
11327TIP3    H155396   6.095   5.678   1.646  2.6087 -0.7129  0.1535
11327TIP3    H255397   6.111   5.654   1.497 -2.0001  0.1917 -0.6443
11328TIP3   OH255398   3.789   2.856  16.083  0.9129 -0.5956  0.1384
11328TIP3    H155399   3.836   2.912  16.022  1.2132 -0.2470  0.6784
11328TIP3    H255400   3.785   2.906  16.164 -1.7698  0.0361 -0.3080
11329TIP3   OH255401   3.616   1.486  14.022 -0.4893  0.5174 -0.2889
11329TIP3    H155402   3.539   1.439  13.990  0.4119  0.1222 -1.9905
11329TIP3    H255403   3.684   1.467  13.958  1.2654  0.2391  1.5406
11330TIP3   OH255404   6.057   5.321  15.731 -0.3103  0.1006 -0.0993
11330TIP3    H155405   6.080   5.409  15.701  0.8810 -0.3152 -0.4450
11330TIP3    H255406   6.141   5.281  15.754 -0.9294 -0.6347  0.9268
11331TIP3   OH255407   6.240   3.073   0.120  0.1440 -0.5228 -0.1729
11331TIP3    H155408   6.295   3.144   0.154  0.3551 -0.9091  0.3064
11331TIP3    H255409   6.287   2.993   0.143  0.5341 -0.7958 -1.8370
11332TIP3   OH255410   2.075   3.021  15.896 -0.1851  0.0903 -0.2716
11332TIP3    H155411   2.021   3.098  15.916  1.9058  1.4076  0.5569
11332TIP3    H255412   2.063   2.963  15.971  1.7202  1.6798  1.3781
11333TIP3   OH255413   3.573   3.827   0.739 -0.5437 -0.1112  0.1473
11333TIP3    H155414   3.505   3.888   0.766 -1.2970 -1.3835  1.2210
11333TIP3    H255415   3.539   3.741   0.763 -0.1029 -1.1278 -2.4858
11334TIP3   OH255416   2.993   5.160  13.708 -0.1190  0.5069  0.5480
11334TIP3    H155417   2.941   5.194  13.636 -0.4450  1.7059  1.3262
11334TIP3    H255418   2.949   5.078  13.733 -0.1171  0.1915 -0.4656
11335TIP3   OH255419   1.493   1.324  11.404  0.6480 -0.0935 -0.1943
11335TIP3    H155420   1.493   1.389  11.474  0.4720  0.0244 -0.3022
11335TIP3    H255421   1.405   1.329  11.367  0.7207 -0.1986 -0.3839
11336TIP3   OH255422   6.281   4.468   5.386  0.4489  0.1933 -0.1228
11336TIP3    H155423   6.319   4.392   5.341 -0.9826  0.3970 -1.7718
11336TIP3    H255424   6.188   4.449   5.392  0.4680  0.5188  2.1872
11337TIP3   OH255425   4.705   4.036  15.652  0.0437  0.5082  0.7814
11337TIP3    H155426   4.781   4.094  15.642  0.0657  0.6938  1.9085
11337TIP3    H255427   4.703   3.985  15.571  2.3331 -0.6511  1.3718
11338TIP3   OH255428   2.323   3.699  10.566  0.4367 -0.2001 -0.6643
11338TIP3    H155429   2.375   3.689  10.646  0.0359  1.3176 -0.1946
11338TIP3    H255430   2.381   3.745  10.506  0.3597 -0.3989 -0.8937
11339TIP3   OH255431   1.887   6.028  12.798 -0.5050 -0.6249  0.1202
11339TIP3    H155432   1.866   6.066  12.713  1.2124  0.0525 -0.0381
11339TIP3    H255433   1.969   5.981  12.785  0.4968  0.5874  1.6645
11340TIP3   OH255434   0.292   5.240   0.127 -0.1697  0.6150  0.1031
11340TIP3    H155435   0.233   5.244   0.053  0.8896  2.3465 -0.7167
11340TIP3    H255436   0.361   5.303   0.106  0.8481  0.1974  1.9656
11341TIP3   OH255437   5.925   2.358  10.846  0.0853  0.3078  0.1013
11341TIP3    H155438   6.017   2.345  10.872 -0.0887 -0.8419  0.2060
11341TIP3    H255439   5.876   2.303  10.907 -0.4232 -1.6065 -1.9185
11342TIP3   OH255440   5.905   1.641   0.820  0.8136 -0.3907  0.1480
11342TIP3    H155441   5.881   1.552   0.844  0.0491 -1.1199 -2.8337
11342TIP3    H255442   5.843   1.665   0.751  4.4810  0.0789 -3.3901
11343TIP3   OH255443   3.274   2.084   2.217  0.0713 -0.1799  0.2230
11343TIP3    H155444   3.216   2.104   2.143 -0.2844 -1.6813  0.0751
11343TIP3    H255445   3.360   2.117   2.189 -0.3542  0.5672 -0.2475
11344TIP3   OH255446   2.779   6.050   3.550 -0.2367 -0.1863 -0.0399
11344TIP3    H155447   2.874   6.053   3.536 -0.3172 -0.5923 -0.7604
11344TIP3    H255448   2.755   6.140   3.571  0.7602 -0.6169  3.5866
11345TIP3   OH255449   3.035   6.566   3.162  0.1195 -0.1865 -0.0431
11345TIP3    H155450   3.128   6.574   3.142 -0.0618 -0.2583 -0.9735
11345TIP3    H255451   3.025   6.479   3.199  0.3463 -0.3841 -0.4412
11346TIP3   OH255452   0.623   3.433   3.536 -0.7690 -0.1471 -0.0471
11346TIP3    H155453   0.649   3.361   3.594  2.4232  1.3048  0.6064
11346TIP3    H255454   0.681   3.424   3.460 -0.4847  1.4926 -0.0693
11347TIP3   OH255455   5.480   0.681  15.762 -0.0127  0.2519 -0.2054
11347TIP3    H155456   5.490   0.773  15.739 -3.0122  0.6075 -0.4679
11347TIP3    H255457   5.473   0.679  15.857 -0.8590  0.4500 -0.2534
11348TIP3   OH255458   4.761   3.779  14.289  0.4397  0.4936 -0.5659
11348TIP3    H155459   4.717   3.797  14.373 -0.6025 -0.6395 -0.8393
11348TIP3    H255460   4.804   3.862  14.267 -0.4381  1.2475  0.4060
11349TIP3   OH255461   6.411   3.669   3.691 -0.0263  0.5482 -0.5113
11349TIP3    H155462   6.452   3.621   3.762 -2.0124  0.8067  0.9023
11349TIP3    H255463   6.350   3.606   3.651 -2.8823  1.7523  1.5581
11350TIP3   OH255464   3.017   4.106  15.461  0.3361 -0.6098 -0.2678
11350TIP3    H155465   3.087   4.063  15.511  1.5079  1.9370  0.4280
11350TIP3    H255466   3.022   4.198  15.486 -1.4399  0.1497 -2.3558
11351TIP3   OH255467   2.291   1.376   2.941 -0.4573 -0.1499 -0.2392
11351TIP3    H155468   2.294   1.302   3.001  1.6787 -1.3382 -1.6759
11351TIP3    H255469   2.347   1.442   2.981  0.1180 -0.5312 -0.4024
11352TIP3   OH255470   4.857   6.100   0.616 -0.0969 -0.7062  0.1880
11352TIP3    H155471   4.949   6.106   0.640 -0.5193  1.5214  1.5041
11352TIP3    H255472   4.829   6.191   0.606 -1.6786 -1.3588 -2.2689
11353TIP3   OH255473   0.838   4.720  13.306 -0.7684 -0.2243  0.1108
11353TIP3    H155474   0.858   4.626  13.311  0.3980  0.0035 -0.0406
11353TIP3    H255475   0.757   4.724  13.255 -0.6894 -1.1376 -0.1062
11354TIP3   OH255476   0.232   6.669   3.535  0.0616 -0.1514  0.0566
11354TIP3    H155477   0.315   6.715   3.527 -0.3085  0.4575 -0.3175
11354TIP3    H255478   0.165   6.735   3.515 -0.4504 -0.9965 -1.1621
11355TIP3   OH255479   4.686   0.722  13.564  0.1113 -0.2814  0.1012
11355TIP3    H155480   4.774   0.755  13.546 -0.7547  2.7248  0.7420
11355TIP3    H255481   4.640   0.733  13.481 -0.0253 -0.5538  0.1400
11356TIP3   OH255482   6.150   1.451   4.665  0.3232 -0.0504 -0.1507
11356TIP3    H155483   6.172   1.464   4.573  0.6734  0.7907  0.0498
11356TIP3    H255484   6.228   1.409   4.702  0.3474  0.0041 -0.1405
11357TIP3   OH255485   1.383   5.940  15.659 -0.4608 -0.0833  0.4103
11357TIP3    H155486   1.351   5.875  15.723 -1.5259 -1.7994 -1.7466
11357TIP3    H255487   1.310   5.953  15.599  0.2477  2.0802 -0.0654
11358TIP3   OH255488   4.533   4.993  11.436 -0.0880  0.2890 -0.0381
11358TIP3    H155489   4.470   5.003  11.365 -0.4580  1.7894  0.4740
11358TIP3    H255490   4.488   5.025  11.514 -0.0832 -2.3512  1.1484
11359TIP3   OH255491   5.230   5.830  13.068 -0.1494  0.2681 -0.6410
11359TIP3    H155492   5.259   5.774  13.140  1.0741 -0.4674 -1.6885
11359TIP3    H255493   5.203   5.770  12.999  1.6205  0.9238 -1.9644
11360TIP3   OH255494   1.087   4.943   0.533 -0.1058  0.1659  0.5554
11360TIP3    H155495   1.163   4.886   0.542 -1.0081 -1.0231  0.8229
11360TIP3    H255496   1.047   4.918   0.450  0.6521  1.8812 -0.3794
11361TIP3   OH255497   4.515   4.630  12.525  0.2306  0.2879 -0.2824
11361TIP3    H155498   4.461   4.702  12.556 -0.3442 -1.1158  2.2603
11361TIP3    H255499   4.457   4.554  12.525  1.3862 -0.6265 -0.6453
11362TIP3   OH255500   5.091   4.084  11.327 -0.5966  0.1097 -0.2052
11362TIP3    H155501   5.075   4.072  11.234  1.4774  0.9589 -0.7276
11362TIP3    H255502   5.120   4.174  11.335  1.5000 -0.5852  0.8777
11363TIP3   OH255503   3.031   6.219   2.009 -0.2076  0.5546  1.0110
11363TIP3    H155504   3.012   6.304   2.050 -0.1962  2.2217 -2.0996
11363TIP3    H255505   3.113   6.191   2.048 -0.3253  1.8682  2.2682
11364TIP3   OH255506   0.069   6.748   0.496 -0.3386 -1.1893  0.2663
11364TIP3    H155507   0.059   6.734   0.590 -0.5456 -0.9543  0.2836
11364TIP3    H255508  -0.005   6.805   0.473  0.7275  0.2938  0.3089
11365TIP3   OH255509   2.342   1.995  16.105 -0.4549  0.4743 -0.2241
11365TIP3    H155510   2.366   1.993  16.012  1.9837  1.5264  0.3070
11365TIP3    H255511   2.289   2.074  16.114 -2.3935 -0.6669 -1.0180
11366TIP3   OH255512   1.060   2.661   3.325 -0.5638  0.1425 -0.4276
11366TIP3    H155513   1.093   2.728   3.385  2.3366 -0.4727 -1.1888
11366TIP3    H255514   1.131   2.596   3.319 -1.1929 -0.4377 -3.5116
11367TIP3   OH255515   6.126   0.901   5.073 -0.2357 -0.0070 -0.3632
11367TIP3    H155516   6.077   0.984   5.072 -1.5360 -0.7345 -1.3768
11367TIP3    H255517   6.151   0.889   5.164  0.2545  1.6452 -0.2440
11368TIP3   OH255518   4.949   2.007  13.260 -0.5005 -0.4454 -0.1779
11368TIP3    H155519   5.027   2.062  13.251 -0.9196  0.3546  0.8849
11368TIP3    H255520   4.892   2.034  13.188  0.4249 -1.4748 -1.3490
11369TIP3   OH255521   0.586   1.941   1.472  0.0922  0.2668  0.0517
11369TIP3    H155522   0.642   1.888   1.415  1.5146  0.6450  1.0519
11369TIP3    H255523   0.516   1.882   1.498  1.0683 -0.8195  0.2992
11370TIP3   OH255524   4.188   5.737  11.649  0.7779 -0.2777  0.4128
11370TIP3    H155525   4.220   5.696  11.729 -0.5090  0.7662  1.5167
11370TIP3    H255526   4.093   5.744  11.662  0.5087 -0.2369 -1.2895
11371TIP3   OH255527   5.107   5.742   1.058  0.4577 -0.1867  0.3326
11371TIP3    H155528   5.105   5.678   0.987  2.1374 -1.2600  1.1912
11371TIP3    H255529   5.166   5.704   1.123  0.3883  1.5978  1.5027
11372TIP3   OH255530   2.357   1.693  16.519 -0.0617  0.0865 -0.0588
11372TIP3    H155531   2.263   1.706  16.505 -0.1277 -0.2249  0.0833
11372TIP3    H255532   2.370   1.599  16.510  0.2803  0.1563 -0.3171
11373TIP3   OH255533   2.432   1.520   1.786  0.6087 -0.7009 -0.3872
11373TIP3    H155534   2.420   1.483   1.873 -1.0537  1.2527  0.3131
11373TIP3    H255535   2.517   1.487   1.757  1.3713 -1.1521  2.1031
11374TIP3   OH255536   1.838   4.079  12.044  0.1113  0.1654  0.0898
11374TIP3    H155537   1.899   4.060  11.972  1.0612  1.0113  0.6402
11374TIP3    H255538   1.803   3.993  12.069  0.9940 -0.3297 -0.3169
11375TIP3   OH255539   5.770   0.909  14.952 -0.1750  0.3167 -0.4078
11375TIP3    H155540   5.812   0.931  14.869  0.5637  0.3401 -0.0322
11375TIP3    H255541   5.842   0.894  15.013 -0.7094  1.2512  0.4907
11376TIP3   OH255542   5.648   0.379   1.204  0.4360  0.1090 -0.0735
11376TIP3    H155543   5.693   0.459   1.179 -0.8522  0.6720 -0.6485
11376TIP3    H255544   5.717   0.312   1.204  1.1505  0.7934 -1.5958
11377TIP3   OH255545   4.555   1.774   5.602  0.1827 -0.3899  0.7303
11377TIP3    H155546   4.613   1.811   5.668  0.5232 -0.7341  0.6259
11377TIP3    H255547   4.467   1.781   5.640  0.1440  1.2018  0.4121
11378TIP3   OH255548   2.440   3.201  13.063 -0.4774 -0.0254  0.1558
11378TIP3    H155549   2.481   3.287  13.060  1.3529 -0.8238  0.8567
11378TIP3    H255550   2.439   3.178  13.156  0.0048 -1.1646 -0.1028
11379TIP3   OH255551   1.418   0.014   4.615  0.0543  0.2601 -0.2309
11379TIP3    H155552   1.386   0.069   4.544 -2.6238  2.3739  2.3797
11379TIP3    H255553   1.513   0.027   4.614  0.0032  0.8937 -2.7899
11380TIP3   OH255554   4.440   0.861   4.328  0.1719  0.0714  0.9304
11380TIP3    H155555   4.452   0.873   4.422  2.4794  1.5303  0.5561
11380TIP3    H255556   4.492   0.932   4.288 -0.5709 -0.6131 -1.4383
11381TIP3   OH255557   0.786   5.450   0.605 -0.3329  0.1736  0.4770
11381TIP3    H155558   0.750   5.535   0.628  0.3452  0.4869  0.4228
11381TIP3    H255559   0.797   5.454   0.510  1.4246  0.7561  0.6558
11382TIP3   OH255560   1.341   2.154  11.284  0.3850  0.0565 -0.0228
11382TIP3    H155561   1.406   2.105  11.334  2.5467 -2.0584 -4.2937
11382TIP3    H255562   1.381   2.240  11.270  0.4097  0.1534  0.6216
11383TIP3   OH255563   1.037   0.008  12.275 -0.0200 -0.0625 -0.2999
11383TIP3    H155564   1.075   0.059  12.346 -0.3213 -0.7293  0.3557
11383TIP3    H255565   1.025  -0.080  12.312 -1.4162 -0.0870 -0.7463
11384TIP3   OH255566   2.517   1.912  14.412  0.0356 -0.1550 -0.5770
11384TIP3    H155567   2.505   1.931  14.505 -0.8686 -0.3843 -0.6376
11384TIP3    H255568   2.605   1.874  14.406 -0.5168 -1.6733  0.4292
11385TIP3   OH255569   5.396   4.360   5.804 -0.3029  0.4293 -0.7284
11385TIP3    H155570   5.327   4.355   5.738 -0.6767  2.7003 -0.5953
11385TIP3    H255571   5.355   4.328   5.884 -0.8098  0.5322 -0.9437
11386TIP3   OH255572   3.362   5.993   4.374 -0.1006  0.2905 -0.5792
11386TIP3    H155573   3.344   6.063   4.311 -1.7091  0.7213  0.3161
11386TIP3    H255574   3.425   6.032   4.435 -0.0766  0.5473 -0.7661
11387TIP3   OH255575   3.655   2.924   1.990 -0.2671  0.2450 -0.2355
11387TIP3    H155576   3.654   2.831   1.966 -0.0856  0.2602 -0.3063
11387TIP3    H255577   3.701   2.926   2.075  1.6167  0.4842 -1.2047
11388TIP3   OH255578   6.620   0.679   0.590 -0.1031 -0.5049 -0.4178
11388TIP3    H155579   6.568   0.750   0.551 -0.6417  0.6519  2.1876
11388TIP3    H255580   6.680   0.724   0.650  1.9475 -2.0510 -1.2186
11389TIP3   OH255581   5.237   3.835  13.578 -0.2800 -0.5658 -0.3273
11389TIP3    H155582   5.202   3.836  13.489 -0.5309 -0.8938 -0.2328
11389TIP3    H255583   5.226   3.744  13.608  0.3343 -0.5981 -0.1749
11390TIP3   OH255584   0.529   4.776   6.536 -0.0650 -0.2916 -0.1596
11390TIP3    H155585   0.456   4.828   6.502 -0.4904 -0.1476  0.9194
11390TIP3    H255586   0.544   4.709   6.470 -0.2712  0.5076 -1.0347
11391TIP3   OH255587   4.855   1.171   4.408 -0.3815  0.4674 -0.1734
11391TIP3    H155588   4.813   1.085   4.409 -1.6913  1.0852  0.8176
11391TIP3    H255589   4.931   1.159   4.351  0.2879 -1.7158  1.0242
11392TIP3   OH255590   5.383   4.635   4.803  0.3063 -0.4737 -0.5745
11392TIP3    H155591   5.377   4.581   4.724  1.4357  0.1832 -1.1414
11392TIP3    H255592   5.321   4.706   4.789 -0.0853 -0.7970 -0.4989
11393TIP3   OH255593   3.007   5.149  12.209 -0.4499  0.3819  0.2639
11393TIP3    H155594   2.976   5.076  12.156 -2.2174  0.9665  0.4048
11393TIP3    H255595   3.095   5.124  12.236  1.0236  0.4997 -3.7729
11394TIP3   OH255596   5.513   4.023   2.129  0.2672  0.4334 -0.1745
11394TIP3    H155597   5.473   4.108   2.108  1.3977  0.7148 -1.2716
11394TIP3    H255598   5.606   4.036   2.115  0.5656 -0.7308  0.6085
11395TIP3   OH255599   3.721   1.874  15.609  0.2551  0.1120  0.3868
11395TIP3    H155600   3.780   1.931  15.658 -0.7821  0.5174  1.1932
11395TIP3    H255601   3.640   1.875  15.658 -0.1700 -1.1216 -0.2456
11396TIP3   OH255602   4.839   4.968  11.352  0.6705 -0.4282 -0.3352
11396TIP3    H155603   4.747   4.983  11.374  1.2419  0.7231  1.4245
11396TIP3    H255604   4.864   5.044  11.300  0.7976 -0.4637 -0.3259
11397TIP3   OH255605   5.991   5.627  15.511  0.0927 -0.3724  0.2190
11397TIP3    H155606   5.980   5.550  15.454 -2.2752  0.7211 -0.9304
11397TIP3    H255607   5.946   5.697  15.465  1.1323  1.4504  1.8344
11398TIP3   OH255608   0.962   5.661   5.358  0.5610  0.4117 -0.1533
11398TIP3    H155609   1.024   5.726   5.391  0.9717  0.4569 -0.9789
11398TIP3    H255610   0.992   5.643   5.269  0.0565 -0.4164 -0.1648
11399TIP3   OH255611   3.724   4.993   2.274 -0.8496 -0.4644  0.8610
11399TIP3    H155612   3.712   4.948   2.191 -0.9016  2.2408 -0.7021
11399TIP3    H255613   3.659   4.954   2.332 -1.0125 -2.2121 -0.4194
11400TIP3   OH255614   6.529   0.567   2.790 -0.1038  0.3723  0.2229
11400TIP3    H155615   6.565   0.479   2.781  0.0229  0.5220 -1.0265
11400TIP3    H255616   6.475   0.579   2.712 -1.4504  0.8111  1.1964
11401TIP3   OH255617   5.680   4.942   2.956  0.1037  0.0693  0.1658
11401TIP3    H155618   5.697   4.851   2.933 -0.0687  0.2224 -0.6115
11401TIP3    H255619   5.586   4.953   2.946  0.1803  0.4456 -0.2158
11402TIP3   OH255620   2.698   6.089  13.928  0.5803 -0.1614 -0.0931
11402TIP3    H155621   2.699   6.126  13.839  1.0189  1.1280  0.4275
11402TIP3    H255622   2.622   6.130  13.969  1.6446  0.9623  0.8078
11403TIP3   OH255623   4.510   2.594   4.777 -0.6535  0.2477 -0.2171
11403TIP3    H155624   4.490   2.531   4.846  0.1987 -0.5107 -0.6321
11403TIP3    H255625   4.576   2.549   4.723 -1.9852  0.4361 -2.0737
11404TIP3   OH255626   5.068   6.584   3.831  0.0512  0.5858 -0.4977
11404TIP3    H155627   5.011   6.625   3.765 -1.7129 -0.6586  0.1760
11404TIP3    H255628   5.014   6.514   3.869  1.5791  0.2332  1.1426
11405TIP3   OH255629   2.942   5.989  12.584 -0.0649 -0.7375  0.3186
11405TIP3    H155630   2.931   6.047  12.509  0.9725 -0.1063  0.6450
11405TIP3    H255631   2.946   5.901  12.546  1.3462 -0.3532 -0.4629
11406TIP3   OH255632   1.236   2.272   4.578  0.0402 -0.1272 -0.2787
11406TIP3    H155633   1.241   2.310   4.666  0.0126  0.3946 -0.5014
11406TIP3    H255634   1.323   2.285   4.541 -0.6874  2.2952 -1.3991
11407TIP3   OH255635   0.354   3.958  12.128  0.2807  0.2008 -0.3099
11407TIP3    H155636   0.295   3.940  12.054  0.6098  0.2730 -0.5937
11407TIP3    H255637   0.421   3.889  12.123 -1.1447 -1.4191  1.5052
11408TIP3   OH255638   6.633   3.872  12.395  0.0943  0.0188  0.3578
11408TIP3    H155639   6.708   3.869  12.336 -0.4683  1.5674 -0.5192
11408TIP3    H255640   6.657   3.937  12.461 -0.4452  0.5051  0.0844
11409TIP3   OH255641   4.431   2.514   6.103  0.1757 -0.0600  0.1708
11409TIP3    H155642   4.473   2.528   6.188  0.3100  0.2972  0.0483
11409TIP3    H255643   4.474   2.576   6.045  1.6254 -1.8150 -0.6866
11410TIP3   OH255644   4.193   4.013  15.311 -0.4911 -0.2232  0.0824
11410TIP3    H155645   4.124   4.075  15.288  0.2462  1.1931  1.5730
11410TIP3    H255646   4.207   4.025  15.405 -1.6513 -4.0359  0.9190
11411TIP3   OH255647   3.848   5.843  14.818  0.1148  0.1084  0.3400
11411TIP3    H155648   3.912   5.776  14.791 -0.2765 -0.8790  1.7436
11411TIP3    H255649   3.900   5.922  14.832  1.5041 -1.1795  3.5220
11412TIP3   OH255650   2.376   1.665   0.327  0.2219  0.4004 -0.3166
11412TIP3    H155651   2.445   1.619   0.280 -0.8260 -0.9626 -0.6012
11412TIP3    H255652   2.314   1.692   0.258 -0.7879 -0.6682  0.1403
11413TIP3   OH255653   4.309   4.353  13.315 -0.1065 -0.1948 -0.1528
11413TIP3    H155654   4.310   4.449  13.320  3.1873 -0.1162 -0.0257
11413TIP3    H255655   4.288   4.335  13.223 -1.2091  0.5937 -0.0799
11414TIP3   OH255656   3.134   5.092   0.296 -0.2203  0.3542 -0.0893
11414TIP3    H155657   3.213   5.104   0.349 -0.0759 -1.9979  0.3390
11414TIP3    H255658   3.166   5.086   0.206  0.0866 -0.3156  0.0553
11415TIP3   OH255659   2.784   3.448  11.168 -0.0317  0.0808  0.2718
11415TIP3    H155660   2.788   3.539  11.138  1.1681  0.9526  2.8239
11415TIP3    H255661   2.707   3.412  11.124 -1.1436  2.6274 -0.0412
11416TIP3   OH255662   4.584   6.310   5.824 -0.5672  0.3074  0.6676
11416TIP3    H155663   4.515   6.261   5.869  0.1669 -0.7994  0.6145
11416TIP3    H255664   4.660   6.302   5.882  0.2194 -0.6092 -0.4634
11417TIP3   OH255665   5.231   3.619   0.998  0.2697 -0.4905 -0.0204
11417TIP3    H155666   5.217   3.530   0.966 -2.2093 -0.1299 -0.0984
11417TIP3    H255667   5.271   3.665   0.924  1.8395 -1.5508  0.1127
11418TIP3   OH255668   4.252   3.729  12.857  0.1531 -0.0204 -0.4271
11418TIP3    H155669   4.270   3.730  12.951  1.4434  0.1453 -0.6549
11418TIP3    H255670   4.170   3.777  12.847  0.0449  0.0249  0.5999
11419TIP3   OH255671   1.919   1.163   0.226 -0.6035 -0.7925  0.0550
11419TIP3    H155672   1.896   1.218   0.151 -0.7052 -0.5841  0.2386
11419TIP3    H255673   1.963   1.088   0.188  0.4544 -0.0997 -0.1230
11420TIP3   OH255674   5.877   4.623   1.337 -0.2870 -0.4740 -0.0328
11420TIP3    H155675   5.859   4.537   1.299 -0.3637 -0.4637 -0.0193
11420TIP3    H255676   5.947   4.659   1.283  2.3059 -2.0178  2.0824
11421TIP3   OH255677   1.331   1.916  13.752 -0.1720 -0.0899  0.5175
11421TIP3    H155678   1.384   1.891  13.676 -0.8225 -2.7883  0.8556
11421TIP3    H255679   1.378   1.879  13.827 -0.5550  0.8480  1.2414
11422TIP3   OH255680   4.652   5.003  16.875  0.2085  0.1616  0.5803
11422TIP3    H155681   4.673   4.969  16.962  1.7798  0.4978  0.3709
11422TIP3    H255682   4.597   5.079  16.891  1.1493  0.7070  1.3508
11423TIP3   OH255683   3.492   4.655  12.260 -0.0507 -0.2915 -0.4938
11423TIP3    H155684   3.504   4.563  12.237 -0.9988 -0.4168 -0.5438
11423TIP3    H255685   3.580   4.692  12.258  0.4164 -1.3200  0.0796
11424TIP3   OH255686   1.148   0.989  12.404  0.5165 -0.5333 -0.0291
11424TIP3    H155687   1.188   1.074  12.385 -0.9010  0.0024 -0.7397
11424TIP3    H255688   1.112   0.999  12.493  2.9385 -1.4343  1.1449
11425TIP3   OH255689   3.656   0.980  16.258  0.3220 -0.1113 -0.1792
11425TIP3    H155690   3.581   0.946  16.308 -0.0554  0.4168 -0.3776
11425TIP3    H255691   3.690   1.051  16.312 -0.2319  0.6179 -0.7776
11426TIP3   OH255692   6.341   3.725  11.874 -0.1900  0.6299 -0.2474
11426TIP3    H155693   6.315   3.695  11.961 -0.2976 -0.7525 -0.7283
11426TIP3    H255694   6.261   3.762  11.836 -0.3711  0.4095 -0.0829
11427TIP3   OH255695   1.765   2.538   5.729 -0.0307  0.1314  0.0584
11427TIP3    H155696   1.811   2.471   5.780  0.3416 -0.9722 -1.6390
11427TIP3    H255697   1.674   2.510   5.729 -0.6690  1.8256  2.6457
11428TIP3   OH255698   4.474   1.040  12.662  0.2653 -0.1860 -0.0818
11428TIP3    H155699   4.526   0.962  12.641 -1.1709 -1.1125 -0.3389
11428TIP3    H255700   4.498   1.103  12.593 -1.1800 -1.6858 -2.0853
11429TIP3   OH255701   4.375   3.109   2.941 -0.1110 -0.0153 -0.1841
11429TIP3    H155702   4.409   3.096   2.853 -0.0104  0.2270 -0.1839
11429TIP3    H255703   4.447   3.084   2.999 -0.5204 -1.1536 -0.1440
11430TIP3   OH255704   3.453   3.356  13.538  0.1076 -0.2427 -0.4688
11430TIP3    H155705   3.457   3.369  13.633 -1.4893  0.2577 -0.4510
11430TIP3    H255706   3.406   3.432  13.505 -1.1510 -1.3863 -1.4278
11431TIP3   OH255707   1.682   2.500  12.084 -0.5744  0.5773  0.2052
11431TIP3    H155708   1.746   2.542  12.140  1.4756 -0.6389 -1.0920
11431TIP3    H255709   1.687   2.547  12.001  1.6839 -1.9138 -1.2387
11432TIP3   OH255710   2.253   6.269  13.973 -0.2694  0.1920 -0.3735
11432TIP3    H155711   2.289   6.301  13.891 -1.3733  0.5512 -0.7323
11432TIP3    H255712   2.208   6.345  14.011  1.2229  0.3661  1.1528
11433TIP3   OH255713   4.845   4.287  15.541 -0.0268 -0.1045  0.5839
11433TIP3    H155714   4.751   4.268  15.544  0.0636 -0.9076 -0.8935
11433TIP3    H255715   4.855   4.369  15.589 -1.2746 -0.7334  2.0092
11434TIP3   OH255716   3.478   5.302  13.904  0.2848  0.7610 -0.2061
11434TIP3    H155717   3.393   5.305  13.950  0.9274  2.1139  0.9674
11434TIP3    H255718   3.516   5.219  13.931 -0.5081  0.2902 -0.4803
11435TIP3   OH255719   2.909   2.762  14.670 -0.1329  0.0483 -0.2067
11435TIP3    H155720   2.931   2.748  14.762 -0.6649  0.0593 -0.0746
11435TIP3    H255721   2.961   2.838  14.644 -1.8574  1.6560  0.7989
11436TIP3   OH255722   4.337   5.121  14.440  0.2244  0.0665 -0.6180
11436TIP3    H155723   4.339   5.150  14.349  0.8107 -2.3022 -1.4344
11436TIP3    H255724   4.244   5.118  14.463 -0.1305 -2.0126 -2.1196
11437TIP3   OH255725   6.480   5.325   5.493  0.1857  0.5180 -0.3909
11437TIP3    H155726   6.576   5.321   5.500  0.1041 -1.7056  0.3099
11437TIP3    H255727   6.460   5.418   5.495  2.1231  1.0325  2.9314
11438TIP3   OH255728   1.417   0.680  11.013 -0.6737  0.0706  0.2885
11438TIP3    H155729   1.355   0.750  11.034  0.0447  0.4939  1.0646
11438TIP3    H255730   1.491   0.695  11.072 -0.1632 -0.8790 -0.0882
11439TIP3   OH255731   5.547   2.131   4.408  0.4318  1.2714  0.2017
11439TIP3    H155732   5.559   2.223   4.385 -1.0738  1.8256  1.5176
11439TIP3    H255733   5.465   2.106   4.365  0.1696  0.9117  0.9070
11440TIP3   OH255734   0.290   3.853  15.561 -0.6530  0.1594  0.2476
11440TIP3    H155735   0.228   3.784  15.585 -0.6885  0.6579  1.6826
11440TIP3    H255736   0.246   3.902  15.492 -1.5476  0.0311  0.7068
11441TIP3   OH255737   2.075   1.638   3.668 -0.1461  0.8540  0.4255
11441TIP3    H155738   2.122   1.651   3.586 -0.6620 -0.7030 -0.1495
11441TIP3    H255739   2.023   1.718   3.680 -0.2337  1.0049 -0.8857
11442TIP3   OH255740   2.319   2.023   1.787 -0.1480 -0.0595 -0.2397
11442TIP3    H155741   2.245   1.992   1.838 -0.5489 -0.2372 -0.9223
11442TIP3    H255742   2.318   1.970   1.707 -0.1729  0.9200 -0.9168
11443TIP3   OH255743   4.663   6.116  16.002 -0.4551  0.5412  0.1091
11443TIP3    H155744   4.680   6.022  15.998 -0.1356  0.5576  0.8247
11443TIP3    H255745   4.580   6.128  15.957 -0.2216 -0.0093 -0.4778
11444TIP3   OH255746   5.007   2.864   3.279 -0.0158  0.1850 -0.2693
11444TIP3    H155747   5.087   2.908   3.253 -0.2164 -0.6500 -2.4986
11444TIP3    H255748   5.005   2.872   3.374  3.0361 -0.3293 -0.0602
11445TIP3   OH255749   3.155   4.914   6.111  0.2770 -0.3602 -0.7047
11445TIP3    H155750   3.101   4.918   6.190  0.4409  0.2382 -0.6121
11445TIP3    H255751   3.244   4.902   6.144  0.0482 -3.3632 -0.9141
11446TIP3   OH255752   5.933   1.945  14.726  0.2032  0.0794 -0.1464
11446TIP3    H155753   5.971   2.032  14.713 -1.6449  1.0404  0.4739
11446TIP3    H255754   5.973   1.891  14.658  0.3635  1.7663 -1.4663
11447TIP3   OH255755   5.848   5.636   5.076 -0.7044 -0.9167 -0.5850
11447TIP3    H155756   5.933   5.601   5.046 -0.2728 -0.0046 -0.4597
11447TIP3    H255757   5.859   5.648   5.170 -2.3290 -4.5542  0.2477
11448TIP3   OH255758   3.076   3.060   0.461  0.0063  0.2132  0.3259
11448TIP3    H155759   3.169   3.044   0.477  0.2501 -0.3474 -1.4618
11448TIP3    H255760   3.060   3.026   0.373 -1.2468  2.8491 -0.5823
11449TIP3   OH255761   0.754   1.165   4.997  0.6307  0.3297 -0.2498
11449TIP3    H155762   0.716   1.231   4.939 -0.8262  0.2000  0.5314
11449TIP3    H255763   0.848   1.184   4.996  0.4208  1.4059 -1.2917
11450TIP3   OH255764   4.678   2.039   3.651  0.0558  0.2895  0.7778
11450TIP3    H155765   4.698   1.951   3.622 -2.1684  0.4516 -1.6641
11450TIP3    H255766   4.612   2.027   3.720 -1.1845 -0.0107 -0.4092
11451TIP3   OH255767   0.568   4.029  15.136 -0.5720  0.5976  0.5235
11451TIP3    H155768   0.634   3.995  15.197  1.4875  1.8274 -0.9071
11451TIP3    H255769   0.504   4.073  15.192  0.1165 -0.1007  1.9206
11452TIP3   OH255770   2.630   5.537   5.564  0.0472  0.0572 -0.0375
11452TIP3    H155771   2.608   5.563   5.475  0.2940 -0.6015 -0.2989
11452TIP3    H255772   2.683   5.458   5.554 -0.5392 -0.4531  0.7091
11453TIP3   OH255773   3.084   0.400   1.649 -0.5887 -0.3474 -0.0488
11453TIP3    H155774   3.039   0.456   1.712  0.3315 -0.8458  1.0876
11453TIP3    H255775   3.088   0.452   1.569  1.3239  1.7353  1.2984
11454TIP3   OH255776   2.670   3.617   3.052 -1.0616  0.0885 -0.3684
11454TIP3    H155777   2.759   3.630   3.019 -1.5594 -0.8548 -2.2077
11454TIP3    H255778   2.682   3.589   3.143  0.6211 -1.5073 -1.0124
11455TIP3   OH255779   4.058   2.594  14.898  0.1994 -0.5224 -0.4998
11455TIP3    H155780   3.991   2.653  14.863  0.7251 -0.1208 -0.8495
11455TIP3    H255781   4.013   2.510  14.908 -0.3030 -0.3099 -0.9295
11456TIP3   OH255782   5.073   6.086  14.699  0.0705 -0.4484 -0.4278
11456TIP3    H155783   5.077   6.147  14.625 -1.5656  0.2057 -0.0179
11456TIP3    H255784   5.011   6.126  14.760 -0.5329 -2.1981  0.1575
11457TIP3   OH255785   1.883   0.757   1.957  0.1357  0.5719  0.1689
11457TIP3    H155786   1.965   0.806   1.970  0.1352  0.7950 -0.5723
11457TIP3    H255787   1.910   0.677   1.913  0.0091  0.4142  0.3784
11458TIP3   OH255788   1.232   2.827  16.687  0.3388  0.0051 -0.1146
11458TIP3    H155789   1.195   2.773  16.756 -1.3890  0.3260 -0.7375
11458TIP3    H255790   1.261   2.765  16.620  0.6041 -0.2475  0.2388
11459TIP3   OH255791   2.302   2.932  15.404 -0.8653 -0.1423  0.4232
11459TIP3    H155792   2.222   2.966  15.363  0.0239  1.4255 -0.0750
11459TIP3    H255793   2.334   3.004  15.457  0.5132 -0.5617  0.1925
11460TIP3   OH255794   0.275   5.996  13.909 -0.4006 -0.5802  0.2061
11460TIP3    H155795   0.297   5.929  13.845 -2.0350 -0.8722 -0.1107
11460TIP3    H255796   0.267   6.077  13.858  2.3329  0.0894  0.6992
11461TIP3   OH255797   5.335   2.827   2.440 -0.5636 -0.2156  0.1055
11461TIP3    H155798   5.363   2.762   2.503 -1.7264  0.9987  1.9667
11461TIP3    H255799   5.302   2.900   2.493 -2.1663  0.6148 -1.8825
11462TIP3   OH255800   5.066   4.324   0.158  0.6973  0.6107 -0.2967
11462TIP3    H155801   5.079   4.234   0.187  1.8336  0.4572 -1.2074
11462TIP3    H255802   5.152   4.365   0.164  0.5939  1.0857 -1.6576
11463TIP3   OH255803   5.362   2.285  14.719  0.1986  0.0610  0.2583
11463TIP3    H155804   5.408   2.354  14.766 -2.9723  1.2452  1.8768
11463TIP3    H255805   5.338   2.325  14.635  0.9145 -0.1018 -0.0273
11464TIP3   OH255806   4.362   4.035  10.706 -0.0142 -0.1885 -0.0775
11464TIP3    H155807   4.454   4.032  10.679 -0.1594  0.0017 -0.6083
11464TIP3    H255808   4.314   4.002  10.630 -0.9108  5.2845 -2.3325
11465TIP3   OH255809   5.551   5.443  11.623 -0.4225 -0.0503 -0.3569
11465TIP3    H155810   5.543   5.389  11.545 -1.2388  0.4024 -0.6036
11465TIP3    H255811   5.461   5.455  11.654 -0.1105 -0.3003  0.7154
11466TIP3   OH255812   6.223   1.225  17.196 -0.7277  0.0383 -0.1955
11466TIP3    H155813   6.243   1.148  17.143 -0.4337 -0.4614  0.6377
11466TIP3    H255814   6.285   1.222  17.268 -2.2243 -0.2288  1.1278
11467TIP3   OH255815   3.094   5.613  17.076 -0.1620 -0.5863  0.3205
11467TIP3    H155816   3.007   5.647  17.054  0.9671  1.6887 -0.9090
11467TIP3    H255817   3.099   5.620  17.171 -1.6768 -1.8181  0.5475
11468TIP3   OH255818   1.370   5.149   1.135 -0.5575 -0.6416  0.1041
11468TIP3    H155819   1.278   5.136   1.112 -0.6982  0.5637 -0.0662
11468TIP3    H255820   1.397   5.065   1.173 -1.1154 -1.7455 -1.7936
11469TIP3   OH255821   0.561   2.754   2.394 -0.1307  0.0250 -0.1742
11469TIP3    H155822   0.597   2.840   2.412 -0.4202  0.1131 -0.0007
11469TIP3    H255823   0.526   2.761   2.305 -0.3715  0.1663 -0.0724
11470TIP3   OH255824   6.287   3.751  17.071 -0.1529 -0.5691  0.1703
11470TIP3    H155825   6.343   3.814  17.027 -0.8451  0.0468  0.1403
11470TIP3    H255826   6.256   3.693  17.001  0.5317 -0.9885  0.2082
11471TIP3   OH255827   1.210   3.034   5.635 -0.0155  0.1299 -0.4101
11471TIP3    H155828   1.118   3.058   5.649 -0.8906 -1.4384 -2.8283
11471TIP3    H255829   1.258   3.115   5.650 -1.5568  0.6892  2.3135
11472TIP3   OH255830   1.182   2.531   5.072  0.2901  0.0091 -0.6830
11472TIP3    H155831   1.091   2.561   5.076  0.8329  1.8929 -1.3809
11472TIP3    H255832   1.231   2.597   5.120  1.1550 -1.8747  1.1833
11473TIP3   OH255833   3.682   3.370   4.015 -0.4017 -0.7116 -0.0888
11473TIP3    H155834   3.766   3.360   3.970  0.8556 -1.8475  2.2651
11473TIP3    H255835   3.668   3.464   4.021  0.1446 -0.5235 -1.4343
11474TIP3   OH255836   0.806   0.037   1.571 -0.4438 -0.3138 -0.0493
11474TIP3    H155837   0.723   0.015   1.613  0.3000  0.0379  1.6581
11474TIP3    H255838   0.869  -0.023   1.609  0.3884  0.4947 -0.1101
11475TIP3   OH255839   1.352   0.960   1.651  0.3184  0.6674  0.1479
11475TIP3    H155840   1.428   0.979   1.707 -0.2285  0.3536  1.0116
11475TIP3    H255841   1.309   1.044   1.640  0.9288  0.8994 -0.5718
11476TIP3   OH255842   5.997   3.502  12.053 -0.0426 -0.4559  0.2939
11476TIP3    H155843   6.059   3.434  12.079  1.4855  1.1324  0.9628
11476TIP3    H255844   6.020   3.578  12.106 -2.9894  0.0650  1.0528
11477TIP3   OH255845   2.146   2.638   3.655  0.4281  0.5522 -0.0076
11477TIP3    H155846   2.172   2.730   3.655  1.4159  0.3133 -1.6480
11477TIP3    H255847   2.059   2.637   3.617  0.2361  0.8435  0.4191
11478TIP3   OH255848   2.572   1.224   5.558  0.1234 -0.4168 -0.0311
11478TIP3    H155849   2.658   1.219   5.598  0.4405  0.1399 -0.6335
11478TIP3    H255850   2.551   1.318   5.556 -0.1800 -0.4893 -0.5460
11479TIP3   OH255851   2.658   3.661  16.687 -0.3204 -0.4914  0.1800
11479TIP3    H155852   2.631   3.752  16.701  2.2900  0.1959  1.3510
11479TIP3    H255853   2.578   3.610  16.699 -2.0761  1.6554 -1.4051
11480TIP3   OH255854   3.456   1.197   4.614  0.8986  0.1024  0.2809
11480TIP3    H155855   3.367   1.191   4.650  1.0879  0.5484  0.8297
11480TIP3    H255856   3.443   1.229   4.524  0.4629 -0.4939  0.1171
11481TIP3   OH255857   2.823   1.489  16.278 -0.2203  0.3003 -0.4947
11481TIP3    H155858   2.768   1.413  16.260  0.0449 -0.2800  1.0199
11481TIP3    H255859   2.912   1.456  16.271 -0.0942  0.6361 -0.4647
11482TIP3   OH255860   5.561   4.266   1.893 -0.1635  0.5491 -0.3291
11482TIP3    H155861   5.597   4.317   1.820  0.9075 -0.2745 -0.3913
11482TIP3    H255862   5.637   4.234   1.940 -0.7803 -1.3767 -0.5416
11483TIP3   OH255863   0.215   0.192   3.788 -0.4740 -0.8065  0.7230
11483TIP3    H155864   0.206   0.233   3.702 -0.2658 -1.7678  0.2237
11483TIP3    H255865   0.307   0.164   3.791  0.5126  2.1040  2.6095
11484TIP3   OH255866   3.398   5.029   4.334 -0.3700  0.1592 -0.2986
11484TIP3    H155867   3.390   4.952   4.278 -0.8413 -1.2270  1.5712
11484TIP3    H255868   3.463   5.004   4.400 -1.6655  0.7374  1.2618
11485TIP3   OH255869   3.184   3.611   3.096 -0.6297  0.2816  0.1715
11485TIP3    H155870   3.159   3.527   3.057  2.5824 -0.7198 -0.0107
11485TIP3    H255871   3.210   3.665   3.021  0.3063  0.3077  0.5062
11486TIP3   OH255872   6.433   6.582   6.133  0.3279 -0.1247  0.3886
11486TIP3    H155873   6.375   6.653   6.106  1.5921  1.0071  0.5542
11486TIP3    H255874   6.376   6.505   6.135 -1.6573  1.2484  2.4654
11487TIP3   OH255875   2.597   4.632  16.783 -0.5519 -0.0506  0.0017
11487TIP3    H155876   2.552   4.713  16.759  0.3270  0.6118  0.4993
11487TIP3    H255877   2.678   4.634  16.731 -0.8782 -1.0122 -0.5706
11488TIP3   OH255878   0.069   5.910   4.295 -0.4953  0.3946  0.3447
11488TIP3    H155879   0.049   5.999   4.266  1.6504  0.7840 -0.0756
11488TIP3    H255880   0.126   5.875   4.227  1.7239  0.0334  2.2883
11489TIP3   OH255881   4.015   3.710  11.968  0.3123 -0.1706 -0.0013
11489TIP3    H155882   4.103   3.730  12.001  0.1769 -1.1390  1.0005
11489TIP3    H255883   4.022   3.724  11.873  2.1858 -2.2760 -0.2728
11490TIP3   OH255884   6.635   0.219   4.948 -0.5148  0.2600  0.6505
11490TIP3    H155885   6.612   0.148   4.889  0.7217  1.0005 -0.7853
11490TIP3    H255886   6.659   0.176   5.030 -0.7817 -0.8873  0.1396
11491TIP3   OH255887   2.098   3.993  11.938 -0.3216  0.1928 -0.1619
11491TIP3    H155888   2.110   3.992  11.843 -1.6118  2.1633 -0.3986
11491TIP3    H255889   2.100   3.900  11.963  2.4729 -0.3060 -1.7108
11492TIP3   OH255890   4.205   5.409   5.612  0.8014 -0.3653  0.0585
11492TIP3    H155891   4.202   5.391   5.706 -0.5140 -1.4951 -0.1704
11492TIP3    H255892   4.152   5.340   5.572  0.5074  0.6668 -1.4377
11493TIP3   OH255893   4.246   0.919  13.614 -0.1304 -0.4401 -0.1891
11493TIP3    H155894   4.322   0.953  13.567 -0.6452  1.8829  0.5540
11493TIP3    H255895   4.194   0.875  13.546  0.4844  0.4230 -1.2523
11494TIP3   OH255896   5.096   6.038  12.332  0.5681 -0.1395 -0.0420
11494TIP3    H155897   5.174   6.001  12.291  0.3146 -0.1361 -0.5311
11494TIP3    H255898   5.096   6.000  12.420  0.5696 -0.9467 -0.3818
11495TIP3   OH255899   1.788   2.980   1.705  0.0597  0.2634 -0.0632
11495TIP3    H155900   1.841   2.935   1.770  2.3827  0.7389 -1.5020
11495TIP3    H255901   1.848   3.043   1.665 -2.6708  3.9022  1.0276
11496TIP3   OH255902   1.826   6.612  13.472  0.3707 -0.2106 -0.0940
11496TIP3    H155903   1.786   6.577  13.392 -0.1728  1.4145 -0.5666
11496TIP3    H255904   1.910   6.649  13.442  0.0346  0.6592  0.0231
11497TIP3   OH255905   1.263   4.437  12.317 -0.5312  0.1651  0.6102
11497TIP3    H155906   1.263   4.341  12.311 -2.4482  0.2053 -0.9988
11497TIP3    H255907   1.277   4.466  12.227  0.2313  1.4302  1.1153
11498TIP3   OH255908   3.645   3.169  15.981  0.0226  0.3631 -0.3556
11498TIP3    H155909   3.564   3.120  15.964 -0.5336  1.7099 -1.8338
11498TIP3    H255910   3.710   3.127  15.925 -0.6100  1.6298 -2.1355
11499TIP3   OH255911   4.961   0.614   1.526  0.1270  0.0561  0.4406
11499TIP3    H155912   4.993   0.531   1.560 -2.4346 -1.0941  0.2671
11499TIP3    H255913   4.980   0.677   1.596 -0.9417 -1.3699  2.1099
11500TIP3   OH255914   1.079   3.561   4.028  0.4188  0.7278 -0.0800
11500TIP3    H155915   1.131   3.525   4.100 -0.1245 -0.8280 -0.4292
11500TIP3    H255916   0.992   3.574   4.065  0.6134  1.7709  0.0506
11501TIP3   OH255917   3.382   1.720   3.094  0.8795 -0.3668  0.7352
11501TIP3    H155918   3.343   1.770   3.023  1.1819  0.5056  1.1747
11501TIP3    H255919   3.431   1.650   3.049 -1.2980 -1.6329  0.1810
11502TIP3   OH255920   4.732   4.644  10.224  1.0198  0.0466  0.5628
11502TIP3    H155921   4.810   4.668  10.174  1.8508  0.9004  2.1853
11502TIP3    H255922   4.725   4.712  10.292  0.1353 -1.2075  1.7838
11503TIP3   OH255923   2.888   4.460   4.524  0.6535  0.3143  0.2885
11503TIP3    H155924   2.853   4.539   4.566  2.2680 -0.1070  2.5810
11503TIP3    H255925   2.933   4.492   4.446 -0.4144  1.3994  0.0822
11504TIP3   OH255926   5.307   5.945  17.000 -0.6873  0.2336  0.0043
11504TIP3    H155927   5.268   5.952  17.087 -1.4875  0.5911 -0.3680
11504TIP3    H255928   5.258   5.874  16.958 -1.6442  1.3316 -0.8089
11505TIP3   OH255929   4.074   1.360   0.132 -0.1956 -0.0636 -0.6374
11505TIP3    H155930   4.090   1.344   0.039  1.3360 -1.0141 -0.2413
11505TIP3    H255931   4.080   1.274   0.172 -3.1476 -0.0449  0.0918
11506TIP3   OH255932   0.127   5.609   1.674 -0.4308 -0.1652  0.5924
11506TIP3    H155933   0.189   5.542   1.703 -0.4303  0.4652  2.1457
11506TIP3    H255934   0.173   5.655   1.603  0.6649 -0.0631  1.3462
11507TIP3   OH255935   1.418   2.270  13.475 -0.3289 -0.6003  1.1216
11507TIP3    H155936   1.493   2.310  13.431 -0.5524 -1.1775  0.1746
11507TIP3    H255937   1.400   2.192  13.423 -2.0761 -0.0529  0.8575
11508TIP3   OH255938   4.442   2.310  13.569  0.1919 -0.5242  0.6457
11508TIP3    H155939   4.349   2.323  13.555  0.5422 -1.1996 -3.1884
11508TIP3    H255940   4.452   2.307  13.665 -3.2076  2.6595  1.3073
11509TIP3   OH255941   5.316   2.548  14.259  0.0582 -0.3314  0.4480
11509TIP3    H155942   5.357   2.609  14.197  0.6530 -0.9237  0.2447
11509TIP3    H255943   5.290   2.473  14.205 -2.0654  0.3427  0.4171
11510TIP3   OH255944   6.048   2.200  14.726  0.1946 -0.0551  0.1487
11510TIP3    H155945   5.985   2.208  14.797  1.9070  1.0468  1.6359
11510TIP3    H255946   6.017   2.261  14.659 -0.9640 -0.4548  0.3138
11511TIP3   OH255947   4.461   0.739   1.995  0.4052  0.6439  0.5733
11511TIP3    H155948   4.378   0.696   2.015 -0.4675  1.7743 -0.4935
11511TIP3    H255949   4.487   0.703   1.910  0.4940  1.0282  0.4353
11512TIP3   OH255950   6.502   1.859  16.610 -0.1200 -0.6323  0.0769
11512TIP3    H155951   6.440   1.837  16.680  2.4261 -1.4789  2.2404
11512TIP3    H255952   6.530   1.774  16.575  1.3800 -0.4209  0.6695
11513TIP3   OH255953   5.104   6.365   3.027 -0.3057  0.3062  0.3938
11513TIP3    H155954   5.196   6.364   3.054  0.5710  1.6929 -2.1496
11513TIP3    H255955   5.067   6.287   3.067  1.7493  0.1726  2.2195
11514TIP3   OH255956   2.547   0.733  16.263 -0.2154  0.0500 -0.4894
11514TIP3    H155957   2.536   0.638  16.264 -0.8943  0.0932 -1.8876
11514TIP3    H255958   2.642   0.746  16.269 -0.1158 -0.7044 -0.2494
11515TIP3   OH255959   0.103   5.458   4.431  0.0489 -0.3070  0.2674
11515TIP3    H155960   0.060   5.542   4.447  0.3956 -0.0930  0.0918
11515TIP3    H255961   0.045   5.394   4.470  0.2280  0.0921  1.2364
11516TIP3   OH255962   5.276   2.330  16.947 -0.1558  0.2161 -0.2114
11516TIP3    H155963   5.310   2.272  16.878 -0.0204  1.1982 -0.9876
11516TIP3    H255964   5.199   2.284  16.980  0.3503 -0.7506 -0.3036
11517TIP3   OH255965   3.062   3.782  13.449 -0.3349  0.4543  0.0054
11517TIP3    H155966   3.118   3.793  13.526  0.5742  0.6137 -0.6635
11517TIP3    H255967   3.017   3.699  13.465 -0.1012  0.4460  0.6749
11518TIP3   OH255968   2.008   3.105  16.687  0.1712 -0.2793  0.5902
11518TIP3    H155969   2.046   3.021  16.711 -0.7325 -0.8359  0.1370
11518TIP3    H255970   2.082   3.158  16.658  0.5829 -1.4097 -0.5039
11519TIP3   OH255971   5.903   1.320  12.206 -0.0916  0.1194 -0.1859
11519TIP3    H155972   5.948   1.364  12.279  2.5918  0.7302 -2.0434
11519TIP3    H255973   5.967   1.322  12.135 -2.0642 -1.7289 -2.1372
11520TIP3   OH255974   4.040   6.523  12.682 -0.2911 -0.1212  0.1066
11520TIP3    H155975   4.053   6.608  12.640  2.8509 -0.8443 -0.5943
11520TIP3    H255976   3.986   6.473  12.620 -0.8336  0.8171 -0.1888
11521TIP3   OH255977   4.296   1.819  16.365  0.1059 -0.0748  0.0152
11521TIP3    H155978   4.250   1.865  16.295 -0.2699  0.1918  0.4361
11521TIP3    H255979   4.377   1.869  16.379  0.3718 -0.3539 -0.4932
11522TIP3   OH255980   4.745   0.774  13.093 -0.3496 -0.4503  0.7397
11522TIP3    H155981   4.791   0.743  13.170 -1.4929 -2.8507  0.5448
11522TIP3    H255982   4.701   0.854  13.121  2.3011  0.8666  1.4310
11523TIP3   OH255983   2.063   5.548  16.560 -0.5674  0.0652  0.1562
11523TIP3    H155984   2.027   5.541  16.648 -1.7052  1.6402 -0.1438
11523TIP3    H255985   1.988   5.533  16.502 -0.0618  0.1399 -0.5338
11524TIP3   OH255986   2.889   6.303  14.795 -0.1355  0.1702  0.0961
11524TIP3    H155987   2.897   6.380  14.851 -1.2088  1.4364 -1.3650
11524TIP3    H255988   2.803   6.313  14.755 -0.4595 -2.0325  0.1522
11525TIP3   OH255989   3.583   0.519   5.457  1.2272  0.4454 -0.2136
11525TIP3    H155990   3.556   0.533   5.367 -2.1392 -1.1092  0.3874
11525TIP3    H255991   3.567   0.603   5.501  1.6026  0.8093 -0.7633
11526TIP3   OH255992   4.047   4.771  13.827 -0.0725 -0.4548 -0.1039
11526TIP3    H155993   4.014   4.711  13.894 -0.0559  0.3228  0.6142
11526TIP3    H255994   4.136   4.740  13.808 -0.1475 -0.7872  0.0923
11527TIP3   OH255995   2.705   4.752  13.405  0.1860  0.3680  0.7051
11527TIP3    H155996   2.666   4.749  13.493  1.2320 -1.7687  1.1602
11527TIP3    H255997   2.634   4.779  13.348 -0.6278  1.4036  2.1471
11528TIP3   OH255998   6.687   4.239   2.805  0.1857 -0.1145  0.0962
11528TIP3    H155999   6.620   4.171   2.797  0.0598  0.0016  0.1615
11528TIP3    H256000   6.710   4.239   2.898  0.4822 -0.3498  0.0238
11529TIP3   OH256001   3.202   0.375   5.653  0.9301  0.4366  0.4441
11529TIP3    H156002   3.199   0.445   5.588 -0.8451  1.0492  1.1511
11529TIP3    H256003   3.205   0.294   5.601  0.3819  0.9430 -0.3843
11530TIP3   OH256004   5.080   4.754   1.402  0.7147 -0.3603 -0.0707
11530TIP3    H156005   5.022   4.829   1.420  0.8647 -0.2541 -0.0285
11530TIP3    H256006   5.020   4.680   1.389  0.5126 -0.0200 -1.1779
11531TIP3   OH256007   3.653   3.490   5.576 -0.1139 -0.2666 -0.1978
11531TIP3    H156008   3.672   3.545   5.499  0.2819 -0.9623 -0.6054
11531TIP3    H256009   3.717   3.419   5.571  0.7512  0.3563  1.4906
11532TIP3   OH256010   4.299   2.884   0.196 -0.5797 -0.1422 -0.1906
11532TIP3    H156011   4.275   2.807   0.144 -0.0901 -1.5357  1.5490
11532TIP3    H256012   4.394   2.888   0.192 -0.5042 -0.5091  0.8788
11533TIP3   OH256013   2.191   6.251  16.572  0.5898  0.7487 -0.0799
11533TIP3    H156014   2.103   6.258  16.610  0.8314  1.6044  0.3573
11533TIP3    H256015   2.191   6.316  16.501  0.2348 -0.6397 -1.4040
11534TIP3   OH256016   3.655   2.732   6.105  0.1854  0.3565  0.4750
11534TIP3    H156017   3.669   2.695   6.018 -0.4841  0.7532  0.1848
11534TIP3    H256018   3.562   2.754   6.106  0.1924  0.3745  1.2880
11535TIP3   OH256019   0.617   4.893   5.524  0.5210  0.1221 -0.1932
11535TIP3    H156020   0.639   4.958   5.457 -2.1814 -0.8546 -2.2402
11535TIP3    H256021   0.683   4.824   5.513 -1.0458 -1.0826 -3.6145
11536TIP3   OH256022   3.324   1.729   5.151  0.1821  0.0841  0.4869
11536TIP3    H156023   3.246   1.766   5.191  0.3309  1.5159 -0.4839
11536TIP3    H256024   3.362   1.673   5.219 -0.5595  1.0004  1.6926
11537TIP3   OH256025   0.740   3.653  15.592 -0.5089  0.3012 -0.3901
11537TIP3    H156026   0.682   3.676  15.519  0.1231  1.6739 -0.5077
11537TIP3    H256027   0.743   3.732  15.646  0.4782 -0.0742  0.1362
11538TIP3   OH256028   0.766   2.408   4.321  0.6064  0.5219 -0.1430
11538TIP3    H156029   0.760   2.372   4.409  0.7732 -0.3135 -0.4639
11538TIP3    H256030   0.760   2.332   4.263 -1.0152  1.1849 -0.9078
11539TIP3   OH256031   0.069   4.359  12.648 -0.2821 -0.0092  0.3303
11539TIP3    H156032   0.029   4.446  12.644 -1.5592 -0.5530  0.6704
11539TIP3    H256033   0.003   4.305  12.691  0.1096 -1.3601 -0.7091
11540TIP3   OH256034   4.403   2.532  15.113 -0.4286  0.4015 -0.6060
11540TIP3    H156035   4.430   2.622  15.094  0.9490  0.5511  1.6617
11540TIP3    H256036   4.318   2.541  15.156  0.0148  0.6976  0.2245
11541TIP3   OH256037   3.394   1.596   5.806 -0.0474  0.5126 -0.0059
11541TIP3    H156038   3.375   1.503   5.809  0.2817  0.4028 -1.1302
11541TIP3    H256039   3.330   1.635   5.866  0.1453 -0.4747  0.8576
11542TIP3   OH256040   3.089   4.431   3.714  0.0119  0.1617  0.2554
11542TIP3    H156041   3.022   4.434   3.645 -0.8243  1.2208  1.0947
11542TIP3    H256042   3.090   4.339   3.742 -1.1715  0.1518  0.3084
11543TIP3   OH256043   0.752   2.590  12.907  0.2075  0.0320  0.1392
11543TIP3    H156044   0.718   2.663  12.855 -1.1938 -0.8479 -0.2573
11543TIP3    H256045   0.842   2.614  12.926 -0.0903  1.6692 -0.3211
11544TIP3   OH256046   0.219   5.198  16.011  0.0663  0.0615  0.2629
11544TIP3    H156047   0.141   5.144  15.998 -0.4677  1.2957 -2.1754
11544TIP3    H256048   0.186   5.287  16.017  1.1082  0.3747  2.0517
11545TIP3   OH256049   2.327   2.397   0.425 -0.0146  0.2336 -0.0191
11545TIP3    H156050   2.329   2.370   0.333 -1.7101 -0.9034  0.2190
11545TIP3    H256051   2.333   2.315   0.474  0.9416  0.8321  0.9079
11546TIP3   OH256052   3.366   0.290   1.640 -0.2216  0.3934 -0.1837
11546TIP3    H156053   3.273   0.305   1.624 -0.6834 -1.3272  0.6194
11546TIP3    H256054   3.373   0.281   1.735  0.1910 -2.4460 -0.3824
11547TIP3   OH256055   4.137   5.572   0.904 -0.2707 -0.0194  0.1319
11547TIP3    H156056   4.219   5.532   0.874 -0.0755 -0.8003  1.6170
11547TIP3    H256057   4.078   5.497   0.917 -0.9708  0.4725 -0.1662
11548TIP3   OH256058   6.723   2.783   2.786 -0.7906  0.0280 -0.4097
11548TIP3    H156059   6.654   2.742   2.837 -0.6511  0.1720 -0.0986
11548TIP3    H256060   6.772   2.710   2.749 -1.4329 -0.0682 -1.0804
11549TIP3   OH256061   5.661   2.247  16.919  0.9454  0.2055  0.0796
11549TIP3    H156062   5.654   2.330  16.966  0.1662 -0.5523  1.3614
11549TIP3    H256063   5.712   2.190  16.977 -1.6047 -1.3524  0.9771
11550TIP3   OH256064   1.488   3.411  14.596 -0.0619  0.1361 -0.3114
11550TIP3    H156065   1.403   3.444  14.624 -1.1838 -1.6278 -1.4258
11550TIP3    H256066   1.468   3.354  14.521  2.0879 -0.4259 -0.5265
11551TIP3   OH256067   6.132   2.966  12.978  0.3222  0.1445  0.0572
11551TIP3    H156068   6.160   3.020  13.052 -0.1928 -0.2245  0.5267
11551TIP3    H256069   6.173   3.007  12.902  1.7710 -0.1255  0.6664
11552TIP3   OH256070   4.728   3.935  16.229 -0.1157 -0.4327  0.0287
11552TIP3    H156071   4.724   3.867  16.162  1.8262 -0.9870  0.4200
11552TIP3    H256072   4.705   3.891  16.310 -0.0311 -0.3432  0.1014
11553TIP3   OH256073   0.973   2.404  11.290 -0.0679  0.1853 -0.1250
11553TIP3    H156074   0.997   2.339  11.355  0.9903 -0.1512 -0.8206
11553TIP3    H256075   1.038   2.394  11.220  0.9695  2.8482  0.3217
11554TIP3   OH256076   3.602   4.268   0.396  1.0937 -0.0225 -0.0893
11554TIP3    H156077   3.564   4.217   0.468  3.2990  1.0632  2.0043
11554TIP3    H256078   3.561   4.354   0.402  1.5840  0.1992  0.1806
11555TIP3   OH256079   5.132   6.265   0.566 -0.2697  0.0687 -0.4040
11555TIP3    H156080   5.204   6.245   0.505 -1.1540  0.2287 -1.5325
11555TIP3    H256081   5.164   6.234   0.651  1.3251  0.5756 -0.7766
11556TIP3   OH256082   5.487   1.676   4.406 -0.0618  0.0744  0.6540
11556TIP3    H156083   5.419   1.741   4.391 -0.8965 -0.7334  0.8855
11556TIP3    H256084   5.440   1.597   4.434  0.6624 -1.4446 -2.0055
11557TIP3   OH256085   3.899   3.238   1.866 -0.0491 -0.4026  0.0031
11557TIP3    H156086   3.901   3.288   1.948 -1.2110  0.3242 -0.3911
11557TIP3    H256087   3.815   3.191   1.870  0.8969 -2.1704  0.2527
11558TIP3   OH256088   3.253   2.401  14.927  0.1908 -0.4123  0.1135
11558TIP3    H156089   3.286   2.483  14.890  0.1945 -0.5359 -0.1641
11558TIP3    H256090   3.183   2.375  14.867 -1.2616  0.4819  1.3724
11559TIP3   OH256091   4.991   2.643   1.309 -0.1165  0.6351  0.2574
11559TIP3    H156092   4.999   2.644   1.214 -0.6023  1.4532  0.2137
11559TIP3    H256093   4.927   2.711   1.328 -0.5405  0.0085  1.1320
11560TIP3   OH256094   2.786   2.406  11.674 -0.2058  0.6976 -0.3940
11560TIP3    H156095   2.837   2.326  11.690 -0.9560  0.0368 -1.1892
11560TIP3    H256096   2.824   2.470  11.734 -0.1952 -0.5058  0.9644
11561TIP3   OH256097   3.235   0.726   1.139  0.0159 -0.4542 -0.2673
11561TIP3    H156098   3.149   0.728   1.097  0.7787 -0.6656 -1.9432
11561TIP3    H256099   3.269   0.815   1.129 -0.2506 -0.1861  1.0006
11562TIP3   OH256100   5.469   1.423  16.177  0.2479 -0.2321 -0.3987
11562TIP3    H156101   5.440   1.373  16.253 -2.3283  0.0394 -1.1151
11562TIP3    H256102   5.521   1.361  16.126 -0.0690 -1.1598  0.3691
11563TIP3   OH256103   4.291   3.087   0.775 -0.3468  0.0922  0.1671
11563TIP3    H156104   4.381   3.067   0.797  1.0937  1.8020 -3.4054
11563TIP3    H256105   4.271   3.166   0.826  0.2120 -0.2188  0.8780
11564TIP3   OH256106   0.656   1.798  13.203  0.4434 -0.7995 -0.0548
11564TIP3    H156107   0.586   1.801  13.138  0.6993 -0.3640 -0.3088
11564TIP3    H256108   0.685   1.707  13.202  0.1887 -0.8797 -0.2721
11565TIP3   OH256109   3.568   6.745  11.132  0.5849 -0.6516 -0.1899
11565TIP3    H156110   3.588   6.659  11.169  0.5946 -0.4414  0.3164
11565TIP3    H256111   3.653   6.787  11.120  0.7571 -1.5479 -2.6066
11566TIP3   OH256112   0.583   3.489  12.271 -0.5164 -0.5574 -0.3674
11566TIP3    H156113   0.605   3.399  12.251 -0.0878 -0.6663  0.5188
11566TIP3    H256114   0.640   3.512  12.344  1.1681  1.2349 -2.1359
11567TIP3   OH256115   2.384   0.279  13.868 -0.0133 -0.0770  0.0386
11567TIP3    H156116   2.466   0.232  13.857  0.2253 -0.3784  2.4860
11567TIP3    H256117   2.346   0.283  13.780  1.3970 -2.1409 -0.7339
11568TIP3   OH256118   3.736   0.338   6.353  0.1225  0.1647 -0.1998
11568TIP3    H156119   3.646   0.307   6.342  0.6446 -1.9293  0.8560
11568TIP3    H256120   3.729   0.412   6.414 -0.7734 -1.0311  1.2137
11569TIP3   OH256121   2.935   3.119  15.643 -0.4702  0.3190  0.1863
11569TIP3    H156122   2.914   3.212  15.644 -0.7515  0.2561  1.2218
11569TIP3    H256123   2.933   3.093  15.735 -1.7142 -1.0086 -0.1904
11570TIP3   OH256124   5.019   5.380  17.044 -0.3059  0.1238 -0.2851
11570TIP3    H156125   5.089   5.315  17.042  0.8510  1.1755  2.1814
11570TIP3    H256126   5.053   5.452  16.991  0.9255  0.9608  1.5438
11571TIP3   OH256127   5.767   0.212  13.462  0.1768 -0.0287 -0.6644
11571TIP3    H156128   5.784   0.120  13.481  1.3534  0.4351  0.6540
11571TIP3    H256129   5.749   0.251  13.548  0.1138  1.0602 -1.1597
11572TIP3   OH256130   4.182   6.691  14.820 -0.1971  0.1530  0.2938
11572TIP3    H156131   4.113   6.699  14.887  0.3658 -1.7577  1.1658
11572TIP3    H256132   4.149   6.624  14.760  1.0518 -1.0994  0.9641
11573TIP3   OH256133   1.753   6.176  13.003  0.7728  0.4522  0.4604
11573TIP3    H156134   1.687   6.231  12.961 -0.4812 -1.2681  0.0608
11573TIP3    H256135   1.770   6.107  12.939  0.9672 -0.6168  1.6351
11574TIP3   OH256136   4.057   4.164  17.119 -0.1721  0.4068  0.0768
11574TIP3    H156137   4.151   4.155  17.134  0.0600  1.3340 -0.7622
11574TIP3    H256138   4.050   4.208  17.035 -1.3509  0.9370  0.4362
11575TIP3   OH256139   3.544   6.204  13.460  0.1733 -0.5387  0.1829
11575TIP3    H156140   3.504   6.244  13.537  0.7226  0.4732 -0.0443
11575TIP3    H256141   3.593   6.130  13.495 -0.6683 -0.8931  0.6416
11576TIP3   OH256142   5.645   2.512   2.021 -0.0680 -0.0091 -0.1323
11576TIP3    H156143   5.645   2.600   2.059 -1.3144 -0.5610  1.2324
11576TIP3    H256144   5.564   2.473   2.052  0.6302 -1.7614 -0.4205
11577TIP3   OH256145   2.824   6.773  15.183  0.9144 -0.1971 -0.1559
11577TIP3    H156146   2.851   6.694  15.229  1.3963  0.1769  0.2218
11577TIP3    H256147   2.798   6.833  15.252 -1.0159 -0.5714 -0.5118
11578TIP3   OH256148   2.721   6.528  11.779  0.0279 -0.2084  0.6606
11578TIP3    H156149   2.700   6.616  11.747 -2.3350 -0.0512  2.4319
11578TIP3    H256150   2.663   6.470  11.729  0.0243 -0.5228  1.0285
11579TIP3   OH256151   2.542   5.912   1.078  0.2784  0.1849 -0.4367
11579TIP3    H156152   2.591   5.979   1.125 -0.1118 -0.5133  1.0168
11579TIP3    H256153   2.460   5.955   1.055 -0.8657 -0.2903  2.3198
11580TIP3   OH256154   6.783   0.862  15.012 -0.3731 -0.2439  0.3141
11580TIP3    H156155   6.804   0.835  15.101  0.9679 -1.3737 -0.3136
11580TIP3    H256156   6.848   0.928  14.991 -0.5309 -0.1651  0.0736
11581TIP3   OH256157   5.554   5.986  17.100 -0.2389  0.5947  0.4717
11581TIP3    H156158   5.585   5.984  17.009 -1.7276 -1.4063 -0.0522
11581TIP3    H256159   5.459   5.996  17.093 -0.3000  1.2428  1.8564
11582TIP3   OH256160   1.773   1.493  16.038  0.1469 -0.7533 -0.1456
11582TIP3    H156161   1.747   1.539  15.958 -1.8002  2.2421  2.0031
11582TIP3    H256162   1.860   1.528  16.058 -1.5516  2.9132  1.7982
11583TIP3   OH256163   1.171   5.505   5.559  0.9412 -0.4296  0.0567
11583TIP3    H156164   1.188   5.596   5.579  0.8927 -0.4268  0.0867
11583TIP3    H256165   1.114   5.475   5.630  0.3764 -0.2897 -0.3233
11584TIP3   OH256166   2.509   5.326  13.096 -1.1731  0.4128 -0.0480
11584TIP3    H156167   2.595   5.357  13.067 -1.6334  0.3997 -1.5014
11584TIP3    H256168   2.506   5.346  13.190  0.2278  0.8268 -0.0757
11585TIP3   OH256169   4.799   5.811   2.744 -0.5335 -0.7021  0.3820
11585TIP3    H156170   4.752   5.884   2.784  0.2513 -0.3960  0.7697
11585TIP3    H256171   4.756   5.798   2.659  0.1531  1.1037 -0.2877
11586TIP3   OH256172   4.199   0.566  12.370 -0.5654 -0.7217 -0.0704
11586TIP3    H156173   4.281   0.524  12.392  0.3501 -0.2189 -2.1980
11586TIP3    H256174   4.220   0.660  12.367 -0.6363 -0.7179 -2.5266
11587TIP3   OH256175   3.833   5.655   6.019  0.3940  0.0904 -0.3517
11587TIP3    H156176   3.787   5.716   5.962  1.0197  0.2937 -0.6512
11587TIP3    H256177   3.833   5.572   5.970  2.5826  0.7186 -1.5628
11588TIP3   OH256178   3.642   3.611   5.874  0.6828  0.0814  0.6744
11588TIP3    H156179   3.585   3.598   5.950  1.4790 -1.6218  1.0397
11588TIP3    H256180   3.603   3.558   5.805  0.5916  0.7223  0.2229
11589TIP3   OH256181   6.223   5.149  12.161  0.4171 -0.4559 -0.6348
11589TIP3    H156182   6.284   5.210  12.201  0.6998 -0.2075 -1.4194
11589TIP3    H256183   6.193   5.093  12.233  0.6840  0.1620 -0.0438
11590TIP3   OH256184   2.309   1.717  16.112 -0.5659 -0.5081  0.7194
11590TIP3    H156185   2.230   1.699  16.163 -0.8815  1.9030  1.2068
11590TIP3    H256186   2.322   1.811  16.121  0.1340 -0.1630 -2.5841
11591TIP3   OH256187   0.525   4.596   2.086 -0.9295  0.3550 -0.2676
11591TIP3    H156188   0.596   4.600   2.150  1.6121  0.9721 -2.8606
11591TIP3    H256189   0.457   4.543   2.128  1.9405 -2.1707  1.6649
11592TIP3   OH256190   4.132   3.251  15.120 -0.3993  0.3045  0.2684
11592TIP3    H156191   4.067   3.315  15.150  0.6692  1.0123  1.2111
11592TIP3    H256192   4.150   3.276  15.030 -0.2472  1.1610  0.5191
11593TIP3   OH256193   0.239   5.573  11.442  0.1225  0.5118  0.8178
11593TIP3    H156194   0.225   5.516  11.366 -3.5718  0.0004  1.6913
11593TIP3    H256195   0.318   5.622  11.421  1.4720 -2.3428 -1.5770
11594TIP3   OH256196   5.669   0.099  14.094 -0.1474 -0.2332 -0.4655
11594TIP3    H156197   5.634   0.070  14.178  0.5934 -0.3597 -0.1915
11594TIP3    H256198   5.594   0.096  14.035 -0.5547 -0.6807  0.0583
11595TIP3   OH256199   1.553   3.928  12.186 -0.0570  0.4442 -1.1424
11595TIP3    H156200   1.597   3.861  12.239 -0.2611 -0.2099 -1.7927
11595TIP3    H256201   1.468   3.939  12.229  1.5892  3.6965  1.8131
11596TIP3   OH256202   3.931   2.135  12.390  0.0153 -0.5043 -0.0783
11596TIP3    H156203   3.905   2.157  12.301 -1.6590 -0.0422  0.4821
11596TIP3    H256204   3.865   2.072  12.419 -0.7174  0.9096  1.5056
11597TIP3   OH256205   2.550   4.418  14.933 -0.0037 -0.0642  0.2787
11597TIP3    H156206   2.556   4.323  14.941  2.3025 -0.0207 -0.4668
11597TIP3    H256207   2.516   4.446  15.018 -2.2211 -1.6129 -0.0077
11598TIP3   OH256208   0.321   5.769   3.811  0.4379  0.1225 -0.2458
11598TIP3    H156209   0.393   5.758   3.749  1.6016  3.2037  0.3572
11598TIP3    H256210   0.352   5.728   3.892  1.2851  0.8532 -0.1826
11599TIP3   OH256211   3.893   4.735   6.076 -0.0753 -0.1107 -0.7752
11599TIP3    H156212   3.917   4.650   6.039  0.8680 -0.3576  0.3453
11599TIP3    H256213   3.844   4.713   6.155  0.7992  0.3616 -0.0800
11600TIP3   OH256214   6.130   2.491   2.526  0.0790 -0.4407  0.7537
11600TIP3    H156215   6.050   2.445   2.498 -1.2069  1.5510  0.9886
11600TIP3    H256216   6.098   2.571   2.568  2.2398  1.3011 -0.7217
11601TIP3   OH256217   5.676   6.689  14.712  0.3741 -0.4032 -0.1469
11601TIP3    H156218   5.722   6.736  14.782  0.4412  0.7718 -0.9689
11601TIP3    H256219   5.656   6.603  14.751  0.5707  0.1539  1.2477
11602TIP3   OH256220   5.943   2.418  16.321  0.9789 -0.0195  0.5947
11602TIP3    H156221   6.021   2.472  16.335  0.7023  0.7817 -0.7284
11602TIP3    H256222   5.968   2.358  16.251  0.5803 -0.1352  0.5501
11603TIP3   OH256223   2.814   5.621  17.012 -0.1395  0.4997  0.5561
11603TIP3    H156224   2.783   5.541  17.054  0.2053 -0.2344 -0.5266
11603TIP3    H256225   2.743   5.647  16.953  0.2436  0.2765 -0.0132
11604TIP3   OH256226   4.906   0.337   6.464 -0.1163 -0.1121  0.2948
11604TIP3    H156227   4.838   0.285   6.505 -0.2301  0.2570  0.5833
11604TIP3    H256228   4.986   0.285   6.472 -0.1733 -0.1147  0.8312
11605TIP3   OH256229   6.533   2.031   3.824  0.1525 -0.0857 -0.4905
11605TIP3    H156230   6.515   2.122   3.849  3.4959  1.1627 -1.9752
11605TIP3    H256231   6.583   1.995   3.897  0.3502 -0.1197 -0.6403
11606TIP3   OH256232   0.065   0.287  13.814  0.4185 -0.1110 -0.3127
11606TIP3    H156233   0.143   0.289  13.759  0.8871  1.1519  0.3493
11606TIP3    H256234   0.052   0.195  13.835  1.4884 -0.3744 -0.7777
11607TIP3   OH256235   5.482   4.064  16.958 -0.4523  0.2014  0.0247
11607TIP3    H156236   5.484   4.106  16.872 -0.7428 -1.0807 -0.6281
11607TIP3    H256237   5.389   4.065  16.983 -0.4464  0.0579  0.0558
11608TIP3   OH256238   4.451   1.628   1.402 -0.3006  0.1026  0.4209
11608TIP3    H156239   4.365   1.663   1.423 -0.9869 -1.4127  0.2145
11608TIP3    H256240   4.503   1.705   1.378 -1.1834  1.1874  1.8395
11609TIP3   OH256241   5.956   3.046   1.710 -0.5031  0.1049  0.1958
11609TIP3    H156242   5.946   2.977   1.775  0.1825  0.9080  1.1709
11609TIP3    H256243   6.018   3.011   1.647  0.3691  0.0816  1.0515
11610TIP3   OH256244   2.687   1.158   5.313  0.2548 -0.3562 -0.2139
11610TIP3    H156245   2.634   1.182   5.390  1.0752  1.9900 -0.2905
11610TIP3    H256246   2.637   1.089   5.270 -1.4156 -0.0720  1.1505
11611TIP3   OH256247   5.643   1.774  15.539 -0.2199  0.1043  0.4575
11611TIP3    H156248   5.623   1.682  15.551 -0.8288  0.4550  2.5655
11611TIP3    H256249   5.621   1.792  15.448  1.2146 -2.1017 -0.4235
11612TIP3   OH256250   3.803   5.113   4.009  0.3267  0.4568 -0.4326
11612TIP3    H156251   3.808   5.123   4.104 -3.9993  2.1397 -0.1242
11612TIP3    H256252   3.756   5.030   3.996  0.2684  0.5814 -1.0603
11613TIP3   OH256253   1.715   5.742   0.263 -0.4690 -0.2485  0.1303
11613TIP3    H156254   1.713   5.680   0.336  1.4040  3.2035  3.5308
11613TIP3    H256255   1.649   5.808   0.286  0.4805  1.1702 -1.0554
11614TIP3   OH256256   0.041   2.911  11.420  0.1662  0.0778 -0.0352
11614TIP3    H156257   0.043   2.822  11.385 -1.6813  0.2594 -0.7471
11614TIP3    H256258  -0.035   2.951  11.378  0.2972  1.6441  1.1280
11615TIP3   OH256259   0.716   0.171   2.932  0.3329  0.1479  0.1580
11615TIP3    H156260   0.695   0.099   2.873 -1.0386  1.1606 -0.6749
11615TIP3    H256261   0.807   0.193   2.912  0.2408 -0.2684 -0.7766
11616TIP3   OH256262   4.682   3.566  16.248  0.2734  0.0423 -0.4652
11616TIP3    H156263   4.655   3.606  16.165 -0.1222  2.3134  0.6752
11616TIP3    H256264   4.672   3.636  16.313  0.3417 -1.7162  1.5606
11617TIP3   OH256265   1.350   5.213   0.130  0.0175 -0.3714 -0.2523
11617TIP3    H156266   1.330   5.241   0.219 -0.9162 -1.8889  0.0538
11617TIP3    H256267   1.444   5.230   0.120 -0.1343  1.0553  0.5267
11618TIP3   OH256268   3.604   5.898  14.094  0.1175 -0.1070 -0.3327
11618TIP3    H156269   3.558   5.856  14.167 -0.9077  1.7104  0.1183
11618TIP3    H256270   3.680   5.940  14.134 -0.0054  0.2211 -0.4450
11619TIP3   OH256271   4.858   2.469  11.649 -0.4252  0.0562  0.0560
11619TIP3    H156272   4.867   2.378  11.620  1.6621 -1.0469  3.5648
11619TIP3    H256273   4.947   2.498  11.666 -1.2631  1.3843  2.6858
11620TIP3   OH256274   3.182   3.392   6.170  0.0879  0.6875 -0.1178
11620TIP3    H156275   3.234   3.416   6.247 -0.4429  0.9517  0.1621
11620TIP3    H256276   3.215   3.306   6.145 -1.2105 -0.4177  1.7195
11621TIP3   OH256277   5.129   5.780   3.418 -0.0080  0.1683 -0.2847
11621TIP3    H156278   5.066   5.726   3.465  0.6989 -0.6812 -0.2826
11621TIP3    H256279   5.184   5.718   3.370  0.4369  0.9184 -0.7813
11622TIP3   OH256280   3.487   4.919  11.387 -0.4072  0.1854  0.1555
11622TIP3    H156281   3.580   4.942  11.383  0.1743 -1.8343  0.7202
11622TIP3    H256282   3.450   4.978  11.453  0.0724  2.1248 -1.2445
11623TIP3   OH256283   4.067   2.831   0.310  0.0227  0.7552 -0.2467
11623TIP3    H156284   4.148   2.853   0.264  1.3608  0.7828  1.9705
11623TIP3    H256285   4.082   2.860   0.400 -2.3591  0.4705  0.3149
11624TIP3   OH256286   0.175   0.287  14.435 -0.5388  0.1108 -0.0778
11624TIP3    H156287   0.178   0.204  14.482 -0.8595 -0.2220 -0.6408
11624TIP3    H256288   0.162   0.263  14.343 -0.6580  0.7807 -0.2430
11625TIP3   OH256289   3.772   2.484   4.377 -0.0548 -0.3077 -0.2114
11625TIP3    H156290   3.702   2.432   4.417  0.6473 -0.3781  0.9553
11625TIP3    H256291   3.813   2.530   4.450  3.3687 -2.9084 -0.2499
11626TIP3   OH256292   3.944   6.697   3.828  0.0288  0.7286 -0.0871
11626TIP3    H156293   4.035   6.695   3.857  0.6033 -1.7248 -1.7093
11626TIP3    H256294   3.910   6.610   3.849 -1.1568  0.7525 -1.7180
11627TIP3   OH256295   2.241   5.741  16.834 -0.8120  0.0035  0.0183
11627TIP3    H156296   2.218   5.773  16.747  0.9559 -2.0894 -1.3132
11627TIP3    H256297   2.191   5.660  16.844 -1.4166  0.4974  1.2196
11628TIP3   OH256298   5.924   2.969  16.856 -0.3985 -0.1212  0.0736
11628TIP3    H156299   5.837   3.002  16.877 -0.9530 -0.2284 -1.9083
11628TIP3    H256300   5.958   3.029  16.790  0.9237 -0.2538  0.6078
11629TIP3   OH256301   0.767   5.794  14.560 -0.3443 -0.0565 -0.2910
11629TIP3    H156302   0.680   5.766  14.533  0.0330  0.2054 -1.8825
11629TIP3    H256303   0.806   5.717  14.602 -1.0030 -0.4557 -0.4028
11630TIP3   OH256304   2.038   0.613  15.330 -0.0663  0.4631 -0.1353
11630TIP3    H156305   1.952   0.649  15.349  0.2868  1.2390  0.0441
11630TIP3    H256306   2.030   0.577  15.242 -0.3722  1.1983 -0.4175
11631TIP3   OH256307   0.598   3.644   1.144  0.1214  0.7171  0.0656
11631TIP3    H156308   0.520   3.696   1.125 -1.0729 -0.8282  0.4472
11631TIP3    H256309   0.621   3.667   1.234  0.3127  1.4225 -0.1602
11632TIP3   OH256310   6.304   2.264   4.076 -0.4628  0.6396  0.0960
11632TIP3    H156311   6.227   2.213   4.050  0.0255  0.2523 -0.6248
11632TIP3    H256312   6.339   2.218   4.152 -0.8274  0.7151  0.3157
11633TIP3   OH256313   4.554   2.868   3.811  0.4535  0.8752 -0.3912
11633TIP3    H156314   4.494   2.803   3.846 -0.6853  0.7447 -2.3933
11633TIP3    H256315   4.541   2.946   3.866 -1.5705  0.8340 -0.7256
11634TIP3   OH256316   6.175   6.408  14.384 -0.0963 -0.2700  0.0901
11634TIP3    H156317   6.151   6.326  14.427 -2.3139  0.1931 -0.1528
11634TIP3    H256318   6.125   6.409  14.302 -0.1083  1.2972  0.0743
11635TIP3   OH256319   0.681   0.413   1.487 -0.7065  0.5811  0.2271
11635TIP3    H156320   0.729   0.470   1.427  0.1245 -0.8118 -0.4911
11635TIP3    H256321   0.748   0.377   1.545 -1.6529  2.8860  2.9371
11636TIP3   OH256322   5.787   2.847  13.916  0.0480  0.0502  0.5297
11636TIP3    H156323   5.827   2.770  13.877  1.7354  0.2179  1.8242
11636TIP3    H256324   5.837   2.921  13.881 -0.7130  0.4672  0.2978
11637TIP3   OH256325   4.594   2.049  11.151 -0.2742  0.0173  0.1672
11637TIP3    H156326   4.629   2.032  11.238  1.0724 -0.5597 -0.4573
11637TIP3    H256327   4.615   1.971  11.100 -0.5615  0.5603 -0.8230
11638TIP3   OH256328   3.925   4.224   5.825 -0.0036 -0.4789 -0.1424
11638TIP3    H156329   3.844   4.182   5.854 -1.5348  1.3546 -1.4705
11638TIP3    H256330   3.991   4.155   5.829 -1.1794 -1.5895  2.6839
11639TIP3   OH256331   6.138   0.519  11.588 -0.1044 -0.0530  0.6254
11639TIP3    H156332   6.143   0.425  11.573  1.6725 -0.0189  0.8682
11639TIP3    H256333   6.177   0.532  11.675  2.9431  1.2228 -0.8137
11640TIP3   OH256334   0.343   0.900  16.624  0.3425  0.6375 -0.2960
11640TIP3    H156335   0.300   0.930  16.703 -1.0191 -1.0416 -0.3468
11640TIP3    H256336   0.413   0.842  16.655  0.2169  0.4775 -0.3140
11641TIP3   OH256337   1.007   5.435  12.460 -0.1200  0.5808  0.3295
11641TIP3    H156338   1.002   5.500  12.530  1.1038  0.8979  0.1422
11641TIP3    H256339   1.090   5.390  12.475 -0.2201  0.1119 -0.4671
11642TIP3   OH256340   1.814   4.858   0.573  0.1758 -0.3025 -0.3682
11642TIP3    H156341   1.840   4.812   0.653  0.3704  2.1052  1.0746
11642TIP3    H256342   1.848   4.804   0.502 -0.0456 -2.5691  1.1386
11643TIP3   OH256343   4.507   3.599  14.109  0.1352  0.2344 -0.4615
11643TIP3    H156344   4.601   3.615  14.108  0.4967 -1.4883  1.4496
11643TIP3    H256345   4.473   3.658  14.176 -0.0895  0.4063 -0.7195
11644TIP3   OH256346   5.355   5.732  11.112 -0.3590 -0.1884  0.1055
11644TIP3    H156347   5.448   5.754  11.110  0.5574 -3.2243  2.2099
11644TIP3    H256348   5.346   5.659  11.051 -1.6405  0.6655 -0.7989
11645TIP3   OH256349   6.488   2.588   3.460 -0.0171 -0.1985  0.1653
11645TIP3    H156350   6.503   2.544   3.377  0.7017 -1.7513  1.0713
11645TIP3    H256351   6.551   2.660   3.461  1.2455 -1.2668  0.1092
11646TIP3   OH256352   0.630   2.962  11.088 -0.0502 -0.7508  0.7315
11646TIP3    H156353   0.683   2.908  11.029 -0.4068  0.0920 -0.4089
11646TIP3    H256354   0.693   3.025  11.125  0.0313 -0.7726  0.6299
11647TIP3   OH256355   3.279   4.256  14.374 -0.1656 -0.2856 -0.1982
11647TIP3    H156356   3.338   4.234  14.446 -0.1235 -1.0287 -0.4507
11647TIP3    H256357   3.192   4.259  14.413 -0.0774 -0.1628 -0.0134
11648TIP3   OH256358   6.539   5.366   1.378  0.1918  0.3512 -0.1755
11648TIP3    H156359   6.503   5.455   1.380 -1.7425 -0.4015  0.2260
11648TIP3    H256360   6.577   5.353   1.465  0.8508  0.9083 -0.3705
11649TIP3   OH256361   0.179   1.152   0.478  0.1490  0.4677 -0.6851
11649TIP3    H156362   0.198   1.245   0.483 -0.7960  0.6330  0.2318
11649TIP3    H256363   0.246   1.116   0.419  0.8901  1.6143 -0.5614
11650TIP3   OH256364   3.806   0.801   3.823 -0.3484  0.2492  0.8912
11650TIP3    H156365   3.777   0.885   3.787  2.1916  1.0821  0.6062
11650TIP3    H256366   3.788   0.738   3.753  0.0316  1.0017  0.0993
11651TIP3   OH256367   6.520   0.265  12.070 -0.3043  0.5650 -0.3950
11651TIP3    H156368   6.471   0.335  12.113 -0.4233  0.3265 -0.1400
11651TIP3    H256369   6.454   0.198  12.051 -0.0924  0.2795 -0.1285
11652TIP3   OH256370   4.017   3.336  16.166  0.1136  0.0147 -0.2911
11652TIP3    H156371   4.090   3.395  16.151  0.7470 -0.6593  0.0537
11652TIP3    H256372   3.990   3.354  16.256 -0.1399  0.2512 -0.4130
11653TIP3   OH256373   5.256   1.244   2.888 -0.2240 -0.5607  0.1169
11653TIP3    H156374   5.318   1.267   2.819  0.2474  0.2137  0.7821
11653TIP3    H256375   5.185   1.200   2.842  0.3514 -0.5754 -0.7879
11654TIP3   OH256376   5.497   4.214  13.064  0.0152 -0.2566  0.4590
11654TIP3    H156377   5.458   4.169  13.139  0.9130 -0.7521  0.6381
11654TIP3    H256378   5.425   4.223  13.002 -0.6150 -0.2905  1.1746
11655TIP3   OH256379   0.730   0.416  12.227  0.7486  0.4645  0.4031
11655TIP3    H156380   0.648   0.390  12.185  0.5528  1.8957 -0.1555
11655TIP3    H256381   0.704   0.483  12.291  1.2297 -0.6388  1.8264
11656TIP3   OH256382   2.307   2.104  11.185 -0.3536  0.2165  0.4872
11656TIP3    H156383   2.352   2.165  11.128 -2.0447 -0.6012 -1.9105
11656TIP3    H256384   2.363   2.026  11.187 -0.6820 -0.0878 -0.8987
11657TIP3   OH256385   5.842   2.105   6.301 -0.4575  0.0981 -0.1092
11657TIP3    H156386   5.936   2.084   6.301 -0.2078  1.0961  1.2947
11657TIP3    H256387   5.801   2.030   6.257  0.8000 -1.2717  0.9392
11658TIP3   OH256388   2.606   6.171   1.283  0.9644  0.7362 -0.2423
11658TIP3    H156389   2.668   6.166   1.356 -0.5405  0.4011  1.0668
11658TIP3    H256390   2.550   6.245   1.304 -0.1420  0.0022 -0.5198
11659TIP3   OH256391   2.745   0.533  11.235  0.2184  0.0638 -0.8415
11659TIP3    H156392   2.672   0.549  11.295  1.0797 -2.1332  0.9471
11659TIP3    H256393   2.707   0.479  11.166 -0.4252  1.2369 -1.4296
11660TIP3   OH256394   0.606   0.498   0.043 -0.0178 -0.3411 -0.1867
11660TIP3    H156395   0.637   0.441   0.114  0.3232 -1.4105 -1.1656
11660TIP3    H256396   0.528   0.455   0.009  1.3654 -1.3906 -2.2751
11661TIP3   OH256397   4.572   3.146   0.151 -0.2878 -0.2348 -0.5954
11661TIP3    H156398   4.509   3.135   0.080 -0.5051  1.3435 -0.6901
11661TIP3    H256399   4.644   3.195   0.112 -0.7716  1.3756  0.4200
11662TIP3   OH256400   0.355   1.638   4.792  0.1530 -0.6380  0.5717
11662TIP3    H156401   0.329   1.716   4.840  0.1593 -0.5406  0.4186
11662TIP3    H256402   0.329   1.565   4.849  1.1437 -0.5062  1.2122
11663TIP3   OH256403   0.507   2.354   0.011 -0.3058 -0.0368  0.7438
11663TIP3    H156404   0.541   2.442  -0.007 -2.4812  0.9868  1.3059
11663TIP3    H256405   0.532   2.303  -0.066  0.5482  1.1982  0.1606
11664TIP3   OH256406   0.278   0.106  10.854 -0.1699  0.4530  0.1815
11664TIP3    H156407   0.262   0.124  10.761  0.1974 -0.5757 -0.0918
11664TIP3    H256408   0.326   0.024  10.854 -0.1588  0.4532  1.2917
11665TIP3   OH256409   3.981   0.031  16.284 -0.1094 -0.3887 -0.0915
11665TIP3    H156410   3.890   0.005  16.301  0.0819 -1.0664 -0.0822
11665TIP3    H256411   4.021   0.034  16.371 -0.4802  1.3205  0.0488
11666TIP3   OH256412   1.563   3.323  11.193  0.1254  0.4718  0.5220
11666TIP3    H156413   1.534   3.318  11.102 -3.1614 -2.2770  1.5509
11666TIP3    H256414   1.649   3.280  11.193  0.0524  0.2690 -1.2031
11667TIP3   OH256415   3.713   4.496  11.557 -0.0283  0.0993 -0.6483
11667TIP3    H156416   3.621   4.522  11.567 -0.4752 -0.2736 -3.1596
11667TIP3    H256417   3.762   4.578  11.567 -0.6457  0.3811  0.2304
11668TIP3   OH256418   0.794   0.396   0.699  0.3806  0.6110  0.1698
11668TIP3    H156419   0.765   0.459   0.633 -0.3021 -1.2475 -1.4107
11668TIP3    H256420   0.815   0.317   0.649  0.6979 -0.5971  2.0953
11669TIP3   OH256421   0.024   6.251  12.000  0.1463 -0.2160 -0.5181
11669TIP3    H156422  -0.053   6.289  12.043  0.1161 -1.8902  1.0392
11669TIP3    H256423   0.010   6.156  12.007  1.2414 -0.5502 -2.3222
11670TIP3   OH256424   0.108   2.500   1.419  0.0583  0.2846  0.3645
11670TIP3    H156425   0.019   2.517   1.385 -0.5991  0.8948  2.2947
11670TIP3    H256426   0.115   2.404   1.420  0.4182  0.1965 -2.1254
11671TIP3   OH256427   2.121   2.760  13.660 -0.4735 -0.0127  0.6862
11671TIP3    H156428   2.123   2.797  13.572  0.3518 -2.3306 -0.3451
11671TIP3    H256429   2.045   2.702  13.659  1.1729 -2.2638  0.4808
11672TIP3   OH256430   4.692   6.346  15.250  0.3116  0.3403  0.0002
11672TIP3    H156431   4.723   6.427  15.210 -0.2419  0.3675 -0.3922
11672TIP3    H256432   4.684   6.285  15.176 -1.2677  0.5592 -0.0402
11673TIP3   OH256433   4.964   3.675  16.278 -0.0286  0.9401  0.5297
11673TIP3    H156434   4.999   3.739  16.340  2.1412 -0.0755  0.4335
11673TIP3    H256435   4.902   3.623  16.329 -0.3985  1.8877  1.0799
11674TIP3   OH256436   4.142   1.989  13.301  0.0157 -0.1863 -0.2379
11674TIP3    H156437   4.064   1.938  13.281 -0.4451 -0.4571  1.9749
11674TIP3    H256438   4.118   2.079  13.281 -1.6171  0.0034  2.1600
11675TIP3   OH256439   3.963   0.332   3.577  0.2166  0.3255  0.2479
11675TIP3    H156440   3.960   0.408   3.519 -1.2721  0.1205  0.0119
11675TIP3    H256441   3.974   0.370   3.664 -0.3745  0.8127  0.1205
11676TIP3   OH256442   4.128   0.718   0.000  0.7371  0.1270 -0.0756
11676TIP3    H156443   4.058   0.746  -0.059  2.0998  0.1517 -1.7748
11676TIP3    H256444   4.087   0.652   0.056 -1.2102  1.7763  0.5692
11677TIP3   OH256445   2.173   2.530  15.362  0.2692 -0.3273 -0.9974
11677TIP3    H156446   2.261   2.523  15.327  1.0424 -0.1137  0.7840
11677TIP3    H256447   2.128   2.451  15.330  0.4878  0.4397 -3.4009
11678TIP3   OH256448   4.204   4.963   2.252  0.4166 -0.0552 -0.2688
11678TIP3    H156449   4.178   4.978   2.161 -0.1027  0.6796 -0.0108
11678TIP3    H256450   4.155   4.885   2.279 -0.2433  0.3425 -0.3015
11679TIP3   OH256451   4.641   4.184   3.413  0.6397  0.1843  0.8954
11679TIP3    H156452   4.677   4.238   3.484 -3.0634  0.9313  2.4563
11679TIP3    H256453   4.597   4.112   3.458  1.5047 -1.5922 -0.9624
11680TIP3   OH256454   2.321   6.767  11.119  0.3901  0.3515 -0.5891
11680TIP3    H156455   2.313   6.754  11.214 -0.7082  2.2371 -0.3797
11680TIP3    H256456   2.411   6.741  11.099  0.6390 -0.0851  0.9701
11681TIP3   OH256457   2.996   5.411   3.457  0.0944  0.4378 -0.5762
11681TIP3    H156458   2.929   5.345   3.475  0.1431 -0.0267 -1.9774
11681TIP3    H256459   2.977   5.441   3.368  1.9206  0.0914 -1.1245
11682TIP3   OH256460   4.854   0.429   0.067 -0.1793  0.0268 -0.0097
11682TIP3    H156461   4.822   0.515   0.038 -1.1141 -0.4478 -0.4291
11682TIP3    H256462   4.886   0.387  -0.013  0.0456 -0.1124  0.1531
11683TIP3   OH256463   6.696   3.584  13.503  0.5641  0.2696 -0.2785
11683TIP3    H156464   6.734   3.546  13.424 -0.2901 -0.0476 -0.5485
11683TIP3    H256465   6.634   3.650  13.471 -1.1122 -1.0806  0.0349
11684TIP3   OH256466   2.014   6.396   3.755  0.4623  0.3377  0.7281
11684TIP3    H156467   2.035   6.449   3.679 -1.4267 -0.4965 -0.4519
11684TIP3    H256468   2.084   6.330   3.759  0.2718  0.0220 -0.6764
11685TIP3   OH256469   3.861   2.645   4.822 -0.6295 -0.3578  0.4658
11685TIP3    H156470   3.895   2.566   4.863 -1.6205 -1.0243  0.0175
11685TIP3    H256471   3.767   2.630   4.813 -1.0421  1.3394  1.4363
11686TIP3   OH256472   0.894   5.983   5.089 -0.2762  0.6326  0.6320
11686TIP3    H156473   0.820   5.993   5.029 -0.4133  1.1738  0.8848
11686TIP3    H256474   0.929   5.896   5.069 -2.2032 -0.5116  1.8198
11687TIP3   OH256475   0.752   2.068  16.200 -0.2721 -0.0445  0.8826
11687TIP3    H156476   0.781   1.983  16.232 -0.0004  0.8233  3.0981
11687TIP3    H256477   0.797   2.131  16.255  0.6504  1.6512 -1.6345
11688TIP3   OH256478   0.466   3.549   1.585  0.6558  0.2187 -0.4003
11688TIP3    H156479   0.376   3.581   1.597 -0.1443 -1.5377 -1.3276
11688TIP3    H256480   0.495   3.525   1.673  0.4742  1.3952 -0.0013
11689TIP3   OH256481   2.478   2.037  15.855  0.3978  0.4643 -0.0835
11689TIP3    H156482   2.564   2.014  15.892 -0.1504 -0.8476  0.4225
11689TIP3    H256483   2.458   1.965  15.796  0.3863  1.6061 -1.5089
11690TIP3   OH256484   4.001   2.505   1.945  0.1237 -0.1199 -0.6329
11690TIP3    H156485   4.031   2.493   1.855  0.4978 -0.2979 -0.4908
11690TIP3    H256486   4.074   2.550   1.989 -0.3439  0.6190 -0.5914
11691TIP3   OH256487   0.178   3.393   0.236  0.0591  0.5482  0.1629
11691TIP3    H156488   0.115   3.454   0.275 -0.9586 -0.0437 -0.5082
11691TIP3    H256489   0.228   3.360   0.310  0.1153  1.6256  0.6199
11692TIP3   OH256490   1.663   1.709  17.131  0.1696 -0.0820  0.3276
11692TIP3    H156491   1.654   1.714  17.226 -0.0979 -0.6103  0.3351
11692TIP3    H256492   1.583   1.666  17.102  0.0913  0.3969 -0.1729
11693TIP3   OH256493   5.940   4.334  12.960  0.2202  0.2787 -0.2273
11693TIP3    H156494   5.900   4.368  12.880  0.0690  0.4839 -0.0648
11693TIP3    H256495   5.867   4.324  13.021  0.0147 -1.7596 -0.7511
11694TIP3   OH256496   3.765   2.072  15.361  0.4524 -0.7495  0.0967
11694TIP3    H156497   3.726   2.067  15.275 -0.6105  1.6709  0.3458
11694TIP3    H256498   3.713   2.013  15.416  0.0444 -0.9860 -0.5423
11695TIP3   OH256499   6.123   5.472  11.267  0.4591 -1.0971 -0.4402
11695TIP3    H156500   6.199   5.429  11.229  0.5023  1.1968 -3.2792
11695TIP3    H256501   6.145   5.481  11.360  3.2360 -1.3423 -0.9808
11696TIP3   OH256502   5.309   1.363   1.611  0.4016 -0.0605 -0.1092
11696TIP3    H156503   5.287   1.287   1.665 -0.5530 -0.0201 -0.4175
11696TIP3    H256504   5.402   1.354   1.594  0.5136 -0.6067  0.7160
11697TIP3   OH256505   5.065   1.472  13.225 -0.7020 -0.1082 -0.0914
11697TIP3    H156506   5.112   1.497  13.146 -1.4555  0.9318 -0.2291
11697TIP3    H256507   5.035   1.555  13.263  0.6838 -0.4889  1.9578
11698TIP3   OH256508   0.400   1.693   2.544  0.1629  0.2649 -0.0209
11698TIP3    H156509   0.416   1.760   2.610  0.0551  0.2749 -0.0040
11698TIP3    H256510   0.486   1.671   2.510  0.0431  1.8355 -1.4503
11699TIP3   OH256511   4.913   1.762  16.673  0.3280 -0.2423  0.2244
11699TIP3    H156512   4.840   1.799  16.624 -0.7548 -0.1948  1.7753
11699TIP3    H256513   4.991   1.787  16.624 -0.5884  1.1503 -0.5872
11700TIP3   OH256514   3.468   5.358  11.452  0.0908  0.2162 -0.4022
11700TIP3    H156515   3.404   5.427  11.437  0.3479  1.1221  2.1797
11700TIP3    H256516   3.418   5.277  11.449 -1.0280  0.8385  0.6185
11701TIP3   OH256517   3.228   0.763  11.475  0.0237  0.1184 -0.1385
11701TIP3    H156518   3.305   0.723  11.516  0.0615 -0.8371 -1.1257
11701TIP3    H256519   3.226   0.728  11.386 -0.9783  0.9230 -0.4566
11702TIP3   OH256520   0.256   4.152   5.200  0.2196  0.5833  0.1658
11702TIP3    H156521   0.265   4.060   5.178  1.0403  0.4835  0.8852
11702TIP3    H256522   0.231   4.194   5.117  0.6672 -0.1499 -0.3511
11703TIP3   OH256523   2.390   3.012  16.448 -0.1244 -0.2630  0.0599
11703TIP3    H156524   2.346   3.049  16.372  0.1973 -0.3599 -0.1751
11703TIP3    H256525   2.482   3.037  16.438  0.6617 -3.2498 -1.4954
11704TIP3   OH256526   4.654   3.103   4.467  0.7214  0.1184 -0.0629
11704TIP3    H156527   4.585   3.084   4.403  1.4209 -0.0567 -0.7856
11704TIP3    H256528   4.709   3.025   4.467  1.7568  0.8153 -0.6140
11705TIP3   OH256529   5.857   2.695  10.575 -0.2417  0.3968 -0.0879
11705TIP3    H156530   5.925   2.632  10.598 -1.1746 -0.5866  0.0298
11705TIP3    H256531   5.809   2.654  10.503  0.1472  1.6985 -1.1283
11706TIP3   OH256532   4.514   1.570  17.222 -0.1341 -0.6654  0.4285
11706TIP3    H156533   4.433   1.616  17.199  0.1203  0.0015  0.8537
11706TIP3    H256534   4.578   1.602  17.159 -0.3971 -1.8491 -0.4701
11707TIP3   OH256535   1.152   5.908  15.221 -0.2367  0.1049  0.0380
11707TIP3    H156536   1.073   5.856  15.238 -0.0469 -0.3212 -0.3350
11707TIP3    H256537   1.163   5.961  15.299 -0.5633 -0.2607  0.3398
11708TIP3   OH256538   6.379   6.146  11.504 -0.2332  0.0696 -0.0198
11708TIP3    H156539   6.336   6.218  11.550 -0.2785  1.0463 -1.5330
11708TIP3    H256540   6.415   6.186  11.425 -2.4602 -1.9985 -2.2527
11709TIP3   OH256541   3.134   0.339   4.920  0.6386  0.3725 -0.3346
11709TIP3    H156542   3.059   0.339   4.979 -0.4287 -0.4754 -1.6695
11709TIP3    H256543   3.109   0.283   4.847  2.5156  0.1800 -0.8930
11710TIP3   OH256544   2.463   2.967   6.117  0.4877 -0.1332  0.7636
11710TIP3    H156545   2.492   2.960   6.208  0.0271 -0.7684  0.8704
11710TIP3    H256546   2.449   2.876   6.090 -1.6661  0.1220  0.8275
11711TIP3   OH256547   6.619   1.177  17.249  0.0047 -0.3314 -0.0123
11711TIP3    H156548   6.539   1.229  17.260 -0.5836 -1.7093  3.0282
11711TIP3    H256549   6.627   1.127  17.330  2.0475 -2.9426 -1.6716
11712TIP3   OH256550   3.908   2.086   0.665 -0.3548 -0.2696  0.1191
11712TIP3    H156551   3.932   2.052   0.579  0.3823 -0.3584  0.3454
11712TIP3    H256552   3.822   2.048   0.683 -0.4303 -0.4017 -0.4971
11713TIP3   OH256553   5.298   4.500  14.576  0.3390  0.1210  0.4773
11713TIP3    H156554   5.258   4.528  14.659  0.5221 -0.7907  0.8883
11713TIP3    H256555   5.223   4.475  14.522  0.2883 -0.6173  0.8792
11714TIP3   OH256556   1.786   6.268  14.620 -0.2872 -0.1625 -0.0997
11714TIP3    H156557   1.804   6.270  14.714 -1.9428 -0.0062  0.2415
11714TIP3    H256558   1.727   6.342  14.606 -0.7973 -0.7472 -1.1013
11715TIP3   OH256559   6.155   1.349  11.341  0.1920  0.4768 -0.1350
11715TIP3    H156560   6.217   1.388  11.402 -2.0783  0.5122  2.3231
11715TIP3    H256561   6.202   1.273  11.305  2.0024  1.0959  0.7778
11716TIP3   OH256562   3.835   6.320  13.824  0.2586  0.1213 -0.1197
11716TIP3    H156563   3.867   6.247  13.771  1.2540 -0.4158  1.1532
11716TIP3    H256564   3.902   6.388  13.815  0.0187  0.3517 -0.2027
11717TIP3   OH256565   6.606   3.310  14.277 -0.4623  0.2993 -0.2661
11717TIP3    H156566   6.513   3.291  14.264 -0.0469 -0.7418 -1.9607
11717TIP3    H256567   6.652   3.239  14.233  1.1606  1.1647 -0.0646
11718TIP3   OH256568   3.837   1.290   1.761 -0.0441  0.4177 -0.1606
11718TIP3    H156569   3.778   1.251   1.696  1.1919  0.1603 -1.1623
11718TIP3    H256570   3.786   1.360   1.801 -0.8033  0.6409 -1.4893
11719TIP3   OH256571   1.660   6.134  12.373  0.3725  0.3525  0.5885
11719TIP3    H156572   1.681   6.227  12.374 -0.5969  0.6528 -1.5739
11719TIP3    H256573   1.568   6.131  12.347  0.1200 -1.2018  1.5222
11720TIP3   OH256574   0.664   5.968   2.441 -0.1955 -0.4395 -0.1341
11720TIP3    H156575   0.615   6.047   2.464 -1.2955 -1.3317  0.6667
11720TIP3    H256576   0.699   5.937   2.524  0.7099 -0.5070 -0.5275
11721TIP3   OH256577   0.156   6.751   4.485  0.4050 -0.1658 -0.4582
11721TIP3    H156578   0.145   6.841   4.516  0.5166 -0.2110 -0.2847
11721TIP3    H256579   0.069   6.713   4.491  0.5129 -0.3227  0.2750
11722TIP3   OH256580   4.115   6.706  14.423  0.3574 -0.0827  0.1366
11722TIP3    H156581   4.060   6.671  14.493  0.1778 -0.9362 -0.4214
11722TIP3    H256582   4.178   6.636  14.404  2.7209  1.4346  1.8563
11723TIP3   OH256583   2.729   2.616  16.993 -0.5397 -0.2127  0.5357
11723TIP3    H156584   2.692   2.588  16.909 -0.6008 -0.6747  0.7128
11723TIP3    H256585   2.781   2.541  17.022  0.7142  0.4988  0.1927
11724TIP3   OH256586   2.133   0.420   1.627 -0.2491  0.4305 -0.1260
11724TIP3    H156587   2.104   0.468   1.550  1.9298  0.4667 -1.0006
11724TIP3    H256588   2.228   0.417   1.619 -0.0670 -0.8872  1.7925
11725TIP3   OH256589   5.183   4.230  10.864  0.4407  0.2998 -0.6337
11725TIP3    H156590   5.274   4.252  10.843  0.4395  0.3508 -0.5892
11725TIP3    H256591   5.141   4.218  10.779 -0.1368  2.8194 -0.7962
11726TIP3   OH256592   6.394   1.908  12.419 -0.2348 -0.1938  0.3214
11726TIP3    H156593   6.318   1.899  12.361  0.1965  0.0963 -0.2941
11726TIP3    H256594   6.359   1.887  12.506 -1.4160  1.5677  0.3262
11727TIP3   OH256595   2.870   4.758  13.157  0.3602 -0.0547  0.0693
11727TIP3    H156596   2.957   4.722  13.139  0.4183  0.5112 -0.9004
11727TIP3    H256597   2.863   4.759  13.252  0.6788 -1.7968  0.1448
11728TIP3   OH256598   3.802   5.231  10.954 -0.2626  0.1491  0.3462
11728TIP3    H156599   3.749   5.269  10.884 -1.2954 -0.6967  0.6530
11728TIP3    H256600   3.815   5.303  11.015  2.1736  1.4361 -1.4921
11729TIP3   OH256601   6.371   1.004  13.167  0.0302  0.1016 -0.2622
11729TIP3    H156602   6.277   1.012  13.185 -0.2450 -0.2841 -1.4328
11729TIP3    H256603   6.403   1.094  13.166 -0.1576  0.1933  0.9522
11730TIP3   OH256604   3.678   6.211  11.697 -0.6950  0.2460  0.2280
11730TIP3    H156605   3.687   6.174  11.609  2.0509 -1.1857  0.9927
11730TIP3    H256606   3.629   6.144  11.746 -1.2607  0.5473  0.0867
11731TIP3   OH256607   5.687   3.230   4.691 -0.2413  0.5586  0.1943
11731TIP3    H156608   5.595   3.244   4.670 -0.7114 -0.6173  1.2878
11731TIP3    H256609   5.732   3.307   4.655 -1.4982  0.6897 -1.2041
11732TIP3   OH256610   0.426   0.095   2.180 -0.7393 -0.0584  0.2028
11732TIP3    H156611   0.518   0.083   2.157 -0.7090 -0.4721  0.5226
11732TIP3    H256612   0.381   0.022   2.137 -1.0670  0.7146 -0.7928
11733TIP3   OH256613   0.099   2.866  16.689  0.0419  0.2541 -0.2067
11733TIP3    H156614   0.146   2.889  16.768  0.9674 -1.2166 -0.2887
11733TIP3    H256615   0.039   2.939  16.674  0.7233  1.1214  1.1448
11734TIP3   OH256616   3.788   1.627   0.956 -0.6869 -0.3160  0.2158
11734TIP3    H156617   3.842   1.662   1.027 -0.0632 -0.2417 -0.2876
11734TIP3    H256618   3.759   1.703   0.907  0.9384 -0.4790 -1.0704
11735TIP3   OH256619   3.628   5.786  14.971 -0.1056  0.2447 -0.0166
11735TIP3    H156620   3.642   5.723  15.042  1.2155  0.0769 -0.4074
11735TIP3    H256621   3.707   5.781  14.918 -1.1430  0.2141 -1.6437
11736TIP3   OH256622   1.961   3.666   4.612 -0.2262  0.0363 -0.2342
11736TIP3    H156623   2.019   3.599   4.575 -2.5086 -1.6959 -0.9197
11736TIP3    H256624   1.975   3.661   4.706  1.7675  0.7584 -0.4222
11737TIP3   OH256625   5.473   5.354   2.522 -0.2480 -0.1796  0.0374
11737TIP3    H156626   5.414   5.422   2.490 -0.3230 -0.4060 -0.3096
11737TIP3    H256627   5.560   5.393   2.514 -0.0829 -0.9133 -2.2685
11738TIP3   OH256628   6.430   5.583   5.464  0.0822 -0.1093  0.0853
11738TIP3    H156629   6.383   5.598   5.382 -2.3577  1.4019  1.6332
11738TIP3    H256630   6.479   5.664   5.478 -0.1963 -0.0159  0.5295
11739TIP3   OH256631   2.893   0.045  16.912  0.3451 -0.0653 -0.3913
11739TIP3    H156632   2.919   0.134  16.889  0.1543  0.5900  1.7402
11739TIP3    H256633   2.954   0.019  16.982 -2.2645  0.1430  2.1610
11740TIP3   OH256634   3.269   4.535  11.488  0.2480  0.6679 -0.3805
11740TIP3    H156635   3.270   4.613  11.433 -0.6572 -0.4441 -2.0371
11740TIP3    H256636   3.327   4.473  11.444 -2.9091 -1.4115 -2.0185
11741TIP3   OH256637   5.983   5.796   1.913 -0.0541  0.1953 -0.2625
11741TIP3    H156638   5.923   5.725   1.891 -0.1227 -0.2949  1.4060
11741TIP3    H256639   5.976   5.805   2.008  1.2491  1.2796 -0.2428
11742TIP3   OH256640   6.438   4.243   4.785 -0.1199 -0.4071 -0.0835
11742TIP3    H156641   6.377   4.277   4.851  0.6409 -1.1534  1.0478
11742TIP3    H256642   6.432   4.305   4.712 -2.8763 -0.9403 -0.4055
11743TIP3   OH256643   1.885   1.861   4.601 -0.5442 -0.7155  0.1961
11743TIP3    H156644   1.904   1.866   4.694 -0.3413  4.6779  0.1716
11743TIP3    H256645   1.790   1.873   4.595 -0.5576 -1.0240 -0.3151
11744TIP3   OH256646   5.885   5.277  13.043 -0.0163  0.2466  0.9536
11744TIP3    H156647   5.867   5.241  12.956  0.7192 -0.0751  0.9268
11744TIP3    H256648   5.871   5.203  13.102  0.3638  0.2271  1.0177
11745TIP3   OH256649   3.162   3.998   5.582  0.0208  0.1106  0.2602
11745TIP3    H156650   3.114   4.002   5.664 -0.3532  0.2272  0.0360
11745TIP3    H256651   3.097   4.016   5.514  0.1823 -0.6825 -0.1170
11746TIP3   OH256652   6.229   3.537  12.509 -0.2008  0.7870 -1.3123
11746TIP3    H156653   6.216   3.539  12.604 -0.7565  1.6022 -1.3878
11746TIP3    H256654   6.319   3.567  12.497 -0.1037  0.6136 -1.0406
11747TIP3   OH256655   2.564   6.089  12.943  0.5912  0.8158  0.5863
11747TIP3    H156656   2.555   6.034  13.021 -1.0839 -0.4395 -0.4431
11747TIP3    H256657   2.646   6.060  12.903  0.1515 -0.3743  0.5079
11748TIP3   OH256658   5.967   3.099  15.697 -0.0073 -0.1922  0.2178
11748TIP3    H156659   6.002   3.172  15.749  1.3226 -1.4171  1.1290
11748TIP3    H256660   6.012   3.107  15.613 -1.1298  0.9931 -0.2957
11749TIP3   OH256661   2.631   2.986  12.555  0.3575 -0.2086  0.1106
11749TIP3    H156662   2.695   2.984  12.484  0.0322 -1.9730 -0.1822
11749TIP3    H256663   2.684   2.976  12.634  0.7978  2.5343  0.2476
11750TIP3   OH256664   5.458   5.859   5.517  0.5514 -0.5523 -0.2502
11750TIP3    H156665   5.551   5.843   5.537  0.1600 -1.0274  1.3343
11750TIP3    H256666   5.430   5.922   5.584 -0.9096 -2.4299  1.0178
11751TIP3   OH256667   4.032   6.553  14.654  0.2804  0.6917 -0.3676
11751TIP3    H156668   4.034   6.457  14.656  0.7369  0.6799 -0.8063
11751TIP3    H256669   3.945   6.577  14.683  0.6524  0.1960  1.2556
11752TIP3   OH256670   2.581   4.542  12.524 -0.5711  0.4058  0.1140
11752TIP3    H156671   2.541   4.599  12.589 -0.3783  0.5470  0.1100
11752TIP3    H256672   2.508   4.503  12.478 -0.7800 -1.0993  1.6055
11753TIP3   OH256673   2.983   1.656   4.251  0.0214  0.3074  0.0228
11753TIP3    H156674   2.963   1.575   4.298 -1.1983  1.4446  1.5861
11753TIP3    H256675   3.065   1.687   4.290  1.3776 -0.9193 -1.6907
11754TIP3   OH256676   3.693   6.478   4.783 -0.0746 -0.1441 -0.2092
11754TIP3    H156677   3.723   6.540   4.717 -1.4182  0.7834  0.0137
11754TIP3    H256678   3.729   6.511   4.865 -0.5061  0.1679 -0.1395
11755TIP3   OH256679   3.351   3.217  11.107 -1.0569  0.2013  0.0534
11755TIP3    H156680   3.334   3.123  11.120 -0.1440 -0.5898 -3.3300
11755TIP3    H256681   3.441   3.229  11.135  0.1821 -0.9683 -2.9738
11756TIP3   OH256682   0.170   1.501  13.327 -0.3771  0.0786  0.0954
11756TIP3    H156683   0.144   1.578  13.277  3.3511  0.5391 -1.4856
11756TIP3    H256684   0.240   1.532  13.384  1.1020 -1.9895 -0.4515
11757TIP3   OH256685   4.200   1.646   1.504 -0.4678 -0.0551  0.1183
11757TIP3    H156686   4.116   1.603   1.516 -0.4574 -0.0951  0.0484
11757TIP3    H256687   4.188   1.734   1.540 -1.1762  0.6690 -1.7655
11758TIP3   OH256688   0.275   4.242  13.272  0.1135 -0.2554  0.0296
11758TIP3    H156689   0.273   4.153  13.307  2.1985 -0.0602  0.7686
11758TIP3    H256690   0.242   4.233  13.183 -1.5197 -1.4197  0.6984
11759TIP3   OH256691   6.423   5.579  16.522 -0.0292 -0.2837  0.0515
11759TIP3    H156692   6.416   5.674  16.531 -1.3734 -0.4307  0.8740
11759TIP3    H256693   6.457   5.566  16.434 -1.2758  0.9597 -0.6609
11760TIP3   OH256694   0.055   2.893  15.393 -0.2149  0.4749 -0.4677
11760TIP3    H156695   0.034   2.871  15.483  1.3319 -0.1859 -0.2249
11760TIP3    H256696  -0.028   2.887  15.346 -0.8459 -0.2758  0.7063
11761TIP3   OH256697   1.636   1.395  13.644  0.1642 -0.1157 -0.3291
11761TIP3    H156698   1.578   1.469  13.628 -1.7095 -1.4985 -0.2650
11761TIP3    H256699   1.656   1.400  13.738  0.0709  0.3135 -0.3292
11762TIP3   OH256700   2.575   3.898   6.716  0.2212  0.2821 -0.2026
11762TIP3    H156701   2.607   3.961   6.652  0.6466  0.9135  0.6056
11762TIP3    H256702   2.653   3.849   6.742 -0.3023 -1.4033 -1.6878
11763TIP3   OH256703   5.739   5.675   0.562 -0.6204  0.5815 -0.4922
11763TIP3    H156704   5.736   5.722   0.479 -0.1668  0.9148 -0.3304
11763TIP3    H256705   5.650   5.643   0.575 -0.5246 -0.1162 -1.4620
11764TIP3   OH256706   3.729   0.551   6.178  0.2248 -0.1944  0.1341
11764TIP3    H156707   3.742   0.536   6.272 -0.5331 -0.6783  0.1758
11764TIP3    H256708   3.717   0.463   6.142  1.8687 -0.1384 -0.6549
11765TIP3   OH256709   2.135   3.336   2.524  0.1202 -0.2631 -0.2250
11765TIP3    H156710   2.227   3.312   2.524 -0.0701 -1.3419  2.5414
11765TIP3    H256711   2.128   3.409   2.585 -0.8912 -0.3643 -0.1896
11766TIP3   OH256712   6.553   2.527  10.438 -0.1606 -0.3086 -0.4268
11766TIP3    H156713   6.613   2.458  10.412  0.6090  0.1412  0.1079
11766TIP3    H256714   6.466   2.487  10.435  0.3580 -1.5929  0.7849
11767TIP3   OH256715   3.448   4.880   1.577 -0.6725  0.3237  0.2317
11767TIP3    H156716   3.410   4.883   1.664 -0.7547  1.6084  0.1681
11767TIP3    H256717   3.541   4.864   1.591 -1.0781 -2.2993  0.4095
11768TIP3   OH256718   2.710   4.736   1.704 -0.3394 -0.0857 -0.4659
11768TIP3    H156719   2.799   4.701   1.700 -0.0022  0.6723  0.1550
11768TIP3    H256720   2.717   4.824   1.668 -1.1410 -0.5507 -1.8206
11769TIP3   OH256721   0.674   0.181   3.929  0.0782  0.4064  0.0868
11769TIP3    H156722   0.670   0.259   3.985  0.6585  0.1270  0.5253
11769TIP3    H256723   0.712   0.114   3.985 -0.1049 -0.1023 -0.3966
11770TIP3   OH256724   2.881   4.230  11.976 -0.0734  0.5871  0.5221
11770TIP3    H156725   2.867   4.157  12.036 -0.2236 -0.0909 -0.3129
11770TIP3    H256726   2.816   4.295  12.001 -0.1732  0.2902  1.0489
11771TIP3   OH256727   0.745   4.532   5.465 -0.1119 -1.2495 -0.4987
11771TIP3    H156728   0.720   4.562   5.377  2.0170  0.3332 -0.6291
11771TIP3    H256729   0.742   4.611   5.519 -2.3201 -2.3541  1.1839
11772TIP3   OH256730   4.642   3.798  16.469 -0.7502  0.2165 -0.2149
11772TIP3    H156731   4.670   3.804  16.560 -0.1142 -1.1570 -0.2966
11772TIP3    H256732   4.557   3.843  16.467 -0.5960  0.6019  0.9561
11773TIP3   OH256733   1.429   4.586   2.684  0.3958 -0.0565  0.4554
11773TIP3    H156734   1.367   4.526   2.726  1.4590 -0.7236  1.1113
11773TIP3    H256735   1.417   4.570   2.590 -0.2422 -0.3615  0.5830
11774TIP3   OH256736   2.764   3.511   0.938 -0.0747 -0.8919  0.0300
11774TIP3    H156737   2.689   3.451   0.934  0.3941 -1.4386 -0.8068
11774TIP3    H256738   2.835   3.464   0.896 -0.2280  1.0560 -2.6438
11775TIP3   OH256739   2.560   3.271  12.586 -0.1072  0.1610 -0.0809
11775TIP3    H156740   2.631   3.311  12.637  1.4578 -0.0357 -1.9616
11775TIP3    H256741   2.578   3.177  12.591 -1.7060 -0.1214  1.3988
11776TIP3   OH256742   6.359   0.660   3.886  0.4701  0.4934  0.3962
11776TIP3    H156743   6.361   0.666   3.982  0.1209 -1.1316  0.5316
11776TIP3    H256744   6.266   0.662   3.864  0.5615  1.1124  0.0691
11777TIP3   OH256745   1.864   1.459  14.274  0.3543 -0.0049  0.1873
11777TIP3    H156746   1.798   1.510  14.320  0.5896 -0.3604  0.9229
11777TIP3    H256747   1.884   1.511  14.196 -0.0645  0.5850  0.4687
11778TIP3   OH256748   1.386   2.457  12.963 -0.2654  0.0647  0.1131
11778TIP3    H156749   1.354   2.547  12.956 -1.6894 -0.4054  0.1117
11778TIP3    H256750   1.461   2.453  12.904 -0.4775  1.1199 -0.2454
11779TIP3   OH256751   0.652   4.219  13.070  0.4503 -0.4435 -0.4048
11779TIP3    H156752   0.633   4.265  13.152  1.7158 -0.9911  0.2163
11779TIP3    H256753   0.567   4.182  13.044 -0.6999  2.4386 -1.1130
11780TIP3   OH256754   4.179   1.862  11.771  0.4023  0.5450  0.2982
11780TIP3    H156755   4.089   1.894  11.762  0.0868 -0.4071 -0.0335
11780TIP3    H256756   4.200   1.824  11.686  1.2091  0.9572  0.3016
11781TIP3   OH256757   6.169   2.475   1.032  0.2999 -0.6873 -0.5348
11781TIP3    H156758   6.264   2.468   1.041  0.1405 -0.9874  1.3046
11781TIP3    H256759   6.134   2.418   1.101 -1.1491  2.4351  1.5712
11782TIP3   OH256760   4.353   5.057  10.607  0.1925 -0.2724  0.1284
11782TIP3    H156761   4.261   5.038  10.589 -0.0403  0.8858  0.0165
11782TIP3    H256762   4.395   5.056  10.521 -0.1843  1.4949 -0.1102
11783TIP3   OH256763   5.006   0.356   5.717 -0.1775 -0.1549  0.1066
11783TIP3    H156764   5.016   0.359   5.812  0.4346  0.2026  0.0378
11783TIP3    H256765   5.068   0.422   5.685 -0.4658 -0.1930 -0.5306
11784TIP3   OH256766   2.640   3.859   1.849  0.8367 -0.0737 -0.5177
11784TIP3    H156767   2.668   3.948   1.872  0.9588 -0.3692  0.5183
11784TIP3    H256768   2.711   3.803   1.878  0.5884 -0.5500 -0.8147
11785TIP3   OH256769   2.745   0.470  11.678 -0.1966 -0.3993  0.0609
11785TIP3    H156770   2.675   0.426  11.725 -1.8900  0.4153 -1.5627
11785TIP3    H256771   2.777   0.404  11.616 -2.1740  0.2593 -1.7970
11786TIP3   OH256772   1.041   5.724   0.424 -0.1250  0.2326  0.7742
11786TIP3    H156773   1.069   5.793   0.364 -0.6315  0.5495  0.8955
11786TIP3    H256774   1.000   5.770   0.497 -1.0660 -0.2149  0.5416
11787TIP3   OH256775   4.166   1.053   2.423 -0.5450  0.6354  0.1060
11787TIP3    H156776   4.180   1.001   2.343  0.6598  0.0603  0.6710
11787TIP3    H256777   4.253   1.080   2.450 -1.0657  2.1168  0.4115
11788TIP3   OH256778   2.216   2.715   4.510 -0.1659  0.3440 -0.3724
11788TIP3    H156779   2.153   2.657   4.553  0.1783  0.6490  0.5881
11788TIP3    H256780   2.295   2.662   4.502 -0.2254  0.2920 -0.6355
11789TIP3   OH256781   5.758   0.095   1.530  0.6418 -0.7087 -0.0264
11789TIP3    H156782   5.740   0.169   1.588  0.3065 -1.6423  1.0968
11789TIP3    H256783   5.852   0.078   1.540  0.5635 -0.9386  0.3450
11790TIP3   OH256784   0.705   6.102   6.702 -0.4407  0.5028  0.6931
11790TIP3    H156785   0.778   6.082   6.643 -0.4502 -0.4583  0.9884
11790TIP3    H256786   0.697   6.198   6.699 -0.2013  0.4994 -0.5688
11791TIP3   OH256787   0.515   2.455  11.626 -1.0794 -0.9141 -0.3360
11791TIP3    H156788   0.436   2.434  11.675 -1.3335 -1.1904 -0.8490
11791TIP3    H256789   0.560   2.520  11.679 -2.7159  0.8822 -1.0117
11792TIP3   OH256790   0.746   0.869  10.730 -0.2523  0.1803  0.3704
11792TIP3    H156791   0.715   0.960  10.722  1.5566  0.6730 -1.9527
11792TIP3    H256792   0.666   0.818  10.744 -1.2689  2.1427  2.4615
11793TIP3   OH256793   4.089   5.808  13.135 -0.1903 -0.0884  0.2709
11793TIP3    H156794   4.173   5.848  13.159 -0.8954  1.8781 -0.3771
11793TIP3    H256795   4.083   5.822  13.040 -0.4078 -1.9541 -0.0384
11794TIP3   OH256796   5.994   0.652   4.305 -0.3136  0.6638 -0.3602
11794TIP3    H156797   5.976   0.644   4.211  0.1976  0.1068 -0.4179
11794TIP3    H256798   6.001   0.562   4.336  0.9697  0.8331 -0.0833
11795TIP3   OH256799   2.723   1.200  16.984 -0.3157 -0.5820  0.1994
11795TIP3    H156800   2.654   1.262  17.010 -0.2793 -0.7286  0.6640
11795TIP3    H256801   2.755   1.233  16.901 -2.3620 -1.6453 -1.1052
11796TIP3   OH256802   2.431   6.371  16.928 -0.5091  0.1674  0.5294
11796TIP3    H156803   2.396   6.458  16.950 -0.6188  0.2045  0.2103
11796TIP3    H256804   2.476   6.343  17.008 -1.6045 -0.0543  1.0895
11797TIP3   OH256805   6.252   0.475  11.824  0.2923 -0.4832  0.3063
11797TIP3    H156806   6.331   0.480  11.771  0.2423  2.6611  0.3601
11797TIP3    H256807   6.268   0.400  11.882  2.4003 -1.0800 -0.9188
11798TIP3   OH256808   4.433   6.272   0.781 -0.1044  0.4650 -0.1482
11798TIP3    H156809   4.366   6.277   0.850 -0.2025  1.6127 -0.3077
11798TIP3    H256810   4.467   6.362   0.774 -0.7507  0.5993 -2.2446
11799TIP3   OH256811   3.357   2.998   0.500 -0.8323 -0.3355 -0.1945
11799TIP3    H156812   3.376   3.018   0.592 -2.2978  0.6533 -0.0717
11799TIP3    H256813   3.378   2.906   0.491  0.7875 -0.1002  0.7269
11800TIP3   OH256814   0.000   3.570  16.094 -0.5103  0.4770 -0.0307
11800TIP3    H156815  -0.088   3.578  16.131 -1.2805 -1.9367 -1.1476
11800TIP3    H256816   0.007   3.642  16.032 -0.5645  2.3815  2.0308
11801TIP3   OH256817   4.156   3.219   2.473 -0.2574 -0.0508  0.5458
11801TIP3    H156818   4.162   3.295   2.530 -0.7593 -0.3792  1.0451
11801TIP3    H256819   4.239   3.218   2.425 -0.4962  1.1667  0.0712
11802TIP3   OH256820   1.279   1.329  13.060  0.5890  0.2412  0.7077
11802TIP3    H156821   1.185   1.348  13.049  1.0876  2.4813 -0.3636
11802TIP3    H256822   1.288   1.237  13.037 -1.2802  0.1299  0.2543
11803TIP3   OH256823   2.242   3.844   4.534 -0.5299 -0.3420  0.1250
11803TIP3    H156824   2.202   3.860   4.448  0.0488  1.3916  0.1277
11803TIP3    H256825   2.238   3.929   4.578  0.1200 -0.9550  1.4146
11804TIP3   OH256826   0.745   3.039  13.536 -0.1290  0.6973 -0.2602
11804TIP3    H156827   0.736   3.053  13.630  0.7146  1.5462 -0.2901
11804TIP3    H256828   0.780   2.951  13.527 -0.6183  0.4527  0.1931
11805TIP3   OH256829   4.980   1.125  13.672 -0.5708 -0.4212  0.2152
11805TIP3    H156830   5.044   1.195  13.658 -0.6159 -0.1457  1.2356
11805TIP3    H256831   4.908   1.169  13.718 -0.4956 -1.1828  1.0842
11806TIP3   OH256832   6.352   4.111  16.400  0.4327  0.2444 -0.5251
11806TIP3    H156833   6.294   4.173  16.444  0.6669  0.7781 -0.9554
11806TIP3    H256834   6.440   4.138  16.425  0.5443  0.2211 -0.8779
11807TIP3   OH256835   1.075   1.599  13.523  0.3568 -0.5534 -0.5030
11807TIP3    H156836   1.076   1.598  13.619  0.1804 -0.9897 -0.5054
11807TIP3    H256837   1.155   1.646  13.499  0.7630 -1.0556 -0.1517
11808TIP3   OH256838   2.350   0.236   0.270  0.3930 -0.1820 -0.3286
11808TIP3    H156839   2.432   0.189   0.267  0.2719 -0.4997  0.8750
11808TIP3    H256840   2.345   0.271   0.359 -0.1401  0.9885 -0.7888
11809TIP3   OH256841   5.618   2.182   0.750 -0.1531  0.3244  0.5074
11809TIP3    H156842   5.577   2.127   0.817  0.1315  0.8253  1.0951
11809TIP3    H256843   5.674   2.122   0.701  1.1312  0.2993  1.9284
11810TIP3   OH256844   1.725   2.488   2.506 -0.2788 -0.5162  0.2266
11810TIP3    H156845   1.689   2.400   2.517 -1.6033 -0.1920 -1.1954
11810TIP3    H256846   1.665   2.531   2.445 -0.5641  1.9088  2.0517
11811TIP3   OH256847   1.902   5.949  15.282  0.1244 -0.3314  0.0632
11811TIP3    H156848   1.995   5.972  15.275 -1.0235  5.1500 -1.6402
11811TIP3    H256849   1.884   5.952  15.376  0.8617  4.0534  0.2770
11812TIP3   OH256850   2.649   5.598   0.358 -0.7752  0.2810  0.3596
11812TIP3    H156851   2.697   5.596   0.275 -0.4996  1.7415  0.4546
11812TIP3    H256852   2.646   5.506   0.386  0.8715 -0.0099 -0.2730
11813TIP3   OH256853   2.273   5.234   3.605  0.0252 -0.0409 -0.5142
11813TIP3    H156854   2.180   5.213   3.600  0.2931 -1.2277 -0.7112
11813TIP3    H256855   2.310   5.197   3.525  0.8276 -0.4102  0.0193
11814TIP3   OH256856   0.796   1.814  11.124 -0.3075  0.0349 -0.0443
11814TIP3    H156857   0.885   1.837  11.151 -0.2117 -0.9678  0.5181
11814TIP3    H256858   0.755   1.779  11.203 -0.8334 -0.6063 -0.5893
11815TIP3   OH256859   5.272   6.463   1.197 -0.1549 -0.1412  0.1114
11815TIP3    H156860   5.242   6.478   1.107  0.6826  2.0495  0.1306
11815TIP3    H256861   5.194   6.476   1.251 -0.6729 -1.5149 -0.2556
11816TIP3   OH256862   5.456   5.919   5.887 -0.4866 -0.2183 -0.3599
11816TIP3    H156863   5.442   5.835   5.930 -1.8937  0.3308  0.3210
11816TIP3    H256864   5.386   5.975   5.920  0.8515  1.4603 -0.1969
11817TIP3   OH256865   5.239   6.684  16.260 -0.1012  0.7737  0.0060
11817TIP3    H156866   5.229   6.677  16.165 -0.6772  2.1518 -0.0594
11817TIP3    H256867   5.329   6.715  16.272  0.1606  0.0673 -0.0383
11818TIP3   OH256868   0.378   5.753   1.535  0.1118  0.8585  0.1531
11818TIP3    H156869   0.420   5.797   1.462 -1.7764 -0.3822 -1.8260
11818TIP3    H256870   0.447   5.699   1.574  1.1879  1.6120 -0.6654
11819TIP3   OH256871   1.821   2.935  13.586  0.4301  0.0407  0.2010
11819TIP3    H156872   1.799   2.996  13.657 -0.7080  1.8069 -1.5809
11819TIP3    H256873   1.903   2.969  13.550  0.1629  0.1203 -0.3429
11820TIP3   OH256874   2.480   1.934  16.456 -0.3767  0.8007 -0.4736
11820TIP3    H156875   2.465   1.846  16.491  1.6563  0.4977 -0.1952
11820TIP3    H256876   2.400   1.956  16.410 -1.7463 -0.3297  1.2267
11821TIP3   OH256877   5.507   3.088  11.591 -0.9864 -0.3700  0.5920
11821TIP3    H156878   5.577   3.022  11.591 -1.6792 -1.1409 -0.4138
11821TIP3    H256879   5.535   3.153  11.656  0.2802 -1.0565  0.7691
11822TIP3   OH256880   1.976   5.127   5.953  0.2150 -0.8509  0.4185
11822TIP3    H156881   1.953   5.117   6.045  0.7547  0.9376  0.7793
11822TIP3    H256882   2.016   5.213   5.947  0.6258 -1.1227 -1.4174
11823TIP3   OH256883   5.212   4.581  12.618 -0.1974 -0.1750 -0.2652
11823TIP3    H156884   5.233   4.500  12.664 -1.6751 -0.6132 -0.3109
11823TIP3    H256885   5.196   4.554  12.527 -1.9499 -0.0662 -0.0201
11824TIP3   OH256886   3.126   6.744   6.559 -0.0298 -0.6830 -0.0951
11824TIP3    H156887   3.128   6.836   6.532  1.2591 -1.0014 -1.1966
11824TIP3    H256888   3.211   6.728   6.598 -0.0194 -1.5552 -0.4393
11825TIP3   OH256889   0.759   4.070  16.453 -0.1064  0.4089 -0.3275
11825TIP3    H156890   0.772   4.161  16.428 -2.8253  1.2788  1.0047
11825TIP3    H256891   0.705   4.033  16.384  0.1048  0.1180 -0.3381
11826TIP3   OH256892   0.100   3.631  11.340  0.4423  0.1432  0.1244
11826TIP3    H156893   0.156   3.554  11.333  0.3505  0.0789  0.0861
11826TIP3    H256894   0.062   3.641  11.253 -2.5859 -2.0904  1.0123
11827TIP3   OH256895   0.127   1.834   0.055 -0.1826 -0.1192 -0.2082
11827TIP3    H156896   0.100   1.857   0.144  0.0073  0.0252 -0.1855
11827TIP3    H256897   0.076   1.757   0.033 -2.3169  1.4312 -1.0234
11828TIP3   OH256898   6.184   1.009   4.694 -0.1279 -0.2469 -0.6695
11828TIP3    H156899   6.258   1.013   4.633  0.5792  0.7760  0.2239
11828TIP3    H256900   6.165   0.916   4.703  1.6728 -0.5991 -0.1951
11829TIP3   OH256901   4.268   3.052  14.097  0.1161 -0.6179  0.1722
11829TIP3    H156902   4.350   3.089  14.064 -0.3444  0.9378  0.6779
11829TIP3    H256903   4.293   3.006  14.177  0.8108 -2.0786 -0.8338
11830TIP3   OH256904   0.527   1.768  13.481 -0.1125  0.1218 -0.4627
11830TIP3    H156905   0.621   1.782  13.470  0.5015 -0.8834  2.6439
11830TIP3    H256906   0.489   1.855  13.474  1.1473  0.6670 -0.7872
11831TIP3   OH256907   5.244   0.265  12.101  0.6880  0.0758 -0.1762
11831TIP3    H156908   5.262   0.358  12.116  0.4019 -0.0651  1.1818
11831TIP3    H256909   5.317   0.220  12.142  1.5146 -0.2860 -1.9877
11832TIP3   OH256910   3.286   5.164  11.396 -0.1509 -0.4514  0.5962
11832TIP3    H156911   3.262   5.080  11.358  0.9774 -1.0009  1.0620
11832TIP3    H256912   3.257   5.159  11.487 -0.1517 -0.3000  0.6050
11833TIP3   OH256913   5.251   3.929  12.455  0.0675  0.0394 -0.1801
11833TIP3    H156914   5.226   3.838  12.440  1.8927 -0.7966  1.4393
11833TIP3    H256915   5.300   3.953  12.377  1.2089 -1.0393  0.1648
11834TIP3   OH256916   2.303   5.830   1.626 -0.1983  0.2669 -0.1362
11834TIP3    H156917   2.341   5.767   1.564  1.6278 -1.1516  2.2341
11834TIP3    H256918   2.358   5.908   1.619 -0.4370  0.3851 -0.7538
11835TIP3   OH256919   1.653   3.781   5.181  0.3809  1.0570  0.1866
11835TIP3    H156920   1.701   3.699   5.183  0.3239  1.0271  0.4913
11835TIP3    H256921   1.713   3.844   5.142 -0.3912  0.3762 -2.2718
11836TIP3   OH256922   2.744   6.221  16.205  0.3044 -0.1248  0.4546
11836TIP3    H156923   2.823   6.261  16.168  0.1783  2.1044  2.3659
11836TIP3    H256924   2.717   6.281  16.275 -2.1265 -1.6995  0.9944
11837TIP3   OH256925   1.863   5.662  13.841  0.4427  0.2588  0.5931
11837TIP3    H156926   1.923   5.688  13.910  2.5343  3.4929 -2.1216
11837TIP3    H256927   1.802   5.735  13.833  0.3093  0.0157 -0.9768
11838TIP3   OH256928   4.548   2.725  14.830 -0.5973  0.7895  0.0434
11838TIP3    H156929   4.452   2.728  14.836 -0.6187 -1.2000  2.1915
11838TIP3    H256930   4.565   2.667  14.756 -1.1857 -0.8613  1.1228
11839TIP3   OH256931   5.379   4.988   5.836 -0.6289 -0.5200 -0.6303
11839TIP3    H156932   5.299   5.035   5.813  0.1850  0.2752 -1.9643
11839TIP3    H256933   5.355   4.896   5.829 -2.1043 -0.3779  1.5113
11840TIP3   OH256934   1.891   4.802  17.241 -0.0773  0.4623  0.2934
11840TIP3    H156935   1.911   4.888  17.206  0.6082 -0.2692 -1.2025
11840TIP3    H256936   1.862   4.751  17.165  1.7882 -1.2830  0.6613
11841TIP3   OH256937   5.443   1.039   4.761 -0.0648 -0.0624  0.3923
11841TIP3    H156938   5.468   0.956   4.719 -0.5255  0.0916 -0.1948
11841TIP3    H256939   5.524   1.069   4.803  0.8063  0.4609 -1.5360
11842TIP3   OH256940   5.874   2.632  15.836 -0.2296 -0.0454  0.7401
11842TIP3    H156941   5.842   2.556  15.885  1.1828 -0.4884  1.0126
11842TIP3    H256942   5.893   2.598  15.749  0.6229 -0.0714  0.9288
11843TIP3   OH256943   3.261   6.582   3.987 -0.9742  0.5242  0.0207
11843TIP3    H156944   3.339   6.638   3.989 -1.2308  0.8740  0.2790
11843TIP3    H256945   3.192   6.635   4.025 -1.8011  0.8992 -1.8853
11844TIP3   OH256946   3.521   1.585   1.087  0.2316  0.2841  0.1893
11844TIP3    H156947   3.592   1.626   1.037 -0.8646  0.5008 -1.2458
11844TIP3    H256948   3.460   1.553   1.020 -0.2625 -1.3029  1.3498
11845TIP3   OH256949   1.809   1.609   1.805 -0.0123  0.0927 -0.4373
11845TIP3    H156950   1.809   1.595   1.710 -0.2511  2.2102 -0.7990
11845TIP3    H256951   1.732   1.663   1.822 -0.1559 -0.5190  1.0287
11846TIP3   OH256952   0.194   4.750   1.362 -0.4562 -0.3020  0.5499
11846TIP3    H156953   0.239   4.726   1.443  1.1369  1.5349  0.2968
11846TIP3    H256954   0.185   4.846   1.368 -2.0720 -0.3489 -0.5934
11847TIP3   OH256955   6.067   3.996  11.197  0.0154 -0.3406  0.5674
11847TIP3    H156956   6.068   3.955  11.110  2.1622 -0.7342  0.7231
11847TIP3    H256957   6.018   4.077  11.185  1.9817  0.6205 -1.5208
11848TIP3   OH256958   2.788   5.993  16.327  0.1342 -0.9631  0.1431
11848TIP3    H156959   2.768   6.081  16.296  1.9492 -0.8173 -0.7065
11848TIP3    H256960   2.703   5.958  16.356 -0.8018  0.6252 -0.5726
11849TIP3   OH256961   4.546   2.464   5.161  0.2482 -0.5235 -0.5536
11849TIP3    H156962   4.625   2.511   5.137 -0.4080  0.3148 -1.1403
11849TIP3    H256963   4.577   2.378   5.191  1.3336 -0.4116 -1.3003
11850TIP3   OH256964   3.998   1.143   3.134 -0.0742  0.1785  0.4933
11850TIP3    H156965   4.022   1.093   3.055 -1.7916  0.0353  0.0151
11850TIP3    H256966   4.059   1.111   3.201  0.7542 -0.4500 -0.5104
11851TIP3   OH256967   5.263   0.496   4.067 -0.2847 -0.2317 -0.0886
11851TIP3    H156968   5.350   0.489   4.107 -0.2950 -1.8851 -0.3097
11851TIP3    H256969   5.205   0.449   4.126 -1.1245  1.0887  0.2030
11852TIP3   OH256970   0.665   0.809  14.702  0.0184  0.3077 -0.6136
11852TIP3    H156971   0.645   0.887  14.753 -2.4398  0.0737 -1.0954
11852TIP3    H256972   0.674   0.842  14.612 -0.4408  0.1223 -0.7290
11853TIP3   OH256973   0.641   5.540   4.233 -0.0447  0.8373 -0.0510
11853TIP3    H156974   0.716   5.568   4.182 -1.1850  1.8570 -1.2412
11853TIP3    H256975   0.615   5.457   4.193  0.5058  0.4206  0.4421
11854TIP3   OH256976   0.392   5.665  14.767  0.1021 -0.5687  0.0196
11854TIP3    H156977   0.465   5.671  14.829  0.3115 -0.7944 -0.2064
11854TIP3    H256978   0.333   5.735  14.795  0.7820  0.1513 -0.2883
11855TIP3   OH256979   1.793   4.754   6.164  0.0594  0.0771  0.0841
11855TIP3    H156980   1.715   4.797   6.200  1.5295  2.2629  0.8826
11855TIP3    H256981   1.864   4.784   6.220  1.2329 -3.9701  1.0881
11856TIP3   OH256982   1.603   3.218   1.825 -0.1950 -0.3758 -0.2208
11856TIP3    H156983   1.515   3.196   1.855  0.0411 -2.3971 -0.8970
11856TIP3    H256984   1.659   3.148   1.859  1.0573  0.4806 -0.4252
11857TIP3   OH256985   4.462   4.354   3.258 -0.2336  0.3999 -0.2051
11857TIP3    H156986   4.479   4.340   3.165 -1.8607 -0.8304 -0.3579
11857TIP3    H256987   4.529   4.301   3.302 -1.6427 -1.9922 -0.7550
11858TIP3   OH256988   5.963   0.438  13.522 -0.2519  0.6546  0.2826
11858TIP3    H156989   5.946   0.360  13.469 -0.1743  1.3823 -0.8580
11858TIP3    H256990   6.024   0.408  13.589  0.0142 -0.2071 -0.3175
11859TIP3   OH256991   3.001   4.797   5.698 -0.5974 -0.0588  0.0290
11859TIP3    H156992   2.956   4.807   5.782  0.3239 -0.4355  0.5914
11859TIP3    H256993   3.088   4.833   5.714 -0.0820 -1.0522 -0.4699
11860TIP3   OH256994   1.405   4.837   4.764 -0.0530  0.7900 -0.0669
11860TIP3    H156995   1.473   4.850   4.830 -0.0493  1.6725 -0.2302
11860TIP3    H256996   1.336   4.789   4.810  0.7446 -0.2737  0.0490
11861TIP3   OH256997   0.738   1.800   4.174 -0.0982 -0.2818  0.0634
11861TIP3    H156998   0.689   1.826   4.251  0.0115 -1.3877  0.5349
11861TIP3    H256999   0.692   1.841   4.101 -0.5581  0.2915  0.6680
11862TIP3   OH257000   0.948   1.443  13.345  0.6853  0.5616 -0.3352
11862TIP3    H157001   0.965   1.362  13.393  0.4506  0.4717 -0.3996
11862TIP3    H257002   0.979   1.513  13.403  0.4958  0.4479 -0.0932
11863TIP3   OH257003   5.399   6.374   5.525 -0.3790 -0.0973  0.0719
11863TIP3    H157004   5.466   6.326   5.574  1.6418  0.8689 -1.5945
11863TIP3    H257005   5.372   6.314   5.456 -1.3161 -0.5027  0.7693
11864TIP3   OH257006   1.663   2.903   1.262  0.0205 -0.0037 -0.4028
11864TIP3    H157007   1.642   2.876   1.173 -0.4464  1.1178 -0.6622
11864TIP3    H257008   1.609   2.982   1.276 -0.4788 -0.5657  1.1280
11865TIP3   OH257009   3.706   1.872  10.985 -0.4884  0.2988 -0.0872
11865TIP3    H157010   3.725   1.813  10.912  0.0046 -0.1182  0.3649
11865TIP3    H257011   3.777   1.937  10.982 -0.6478  0.4698 -0.1709
11866TIP3   OH257012   3.630   0.803  11.983 -0.7953 -0.1376 -0.3151
11866TIP3    H157013   3.606   0.837  11.896 -0.1663  1.0265 -0.0657
11866TIP3    H257014   3.660   0.881  12.031 -0.3041 -0.9060  0.6585
11867TIP3   OH257015   1.377   6.431   5.948 -0.5113 -0.3124  0.3216
11867TIP3    H157016   1.377   6.486   5.870  0.5400 -0.3147  0.3021
11867TIP3    H257017   1.379   6.341   5.915  1.3690 -0.3054  0.3069
11868TIP3   OH257018   1.757   1.906  13.127 -0.1917  0.2567  0.1102
11868TIP3    H157019   1.689   1.937  13.187 -2.0284 -1.3895 -0.9848
11868TIP3    H257020   1.764   1.812  13.145  0.1326 -0.0275 -1.3640
11869TIP3   OH257021   0.683   6.425  15.150 -0.0054 -0.3647 -0.5277
11869TIP3    H157022   0.663   6.337  15.181  0.6976 -0.3521 -0.0046
11869TIP3    H257023   0.716   6.413  15.061 -2.2730 -0.3799 -1.4126
11870TIP3   OH257024   5.134   1.624  13.537 -0.2147  0.1389 -0.1624
11870TIP3    H157025   5.207   1.673  13.498  0.1061 -0.5097 -0.4008
11870TIP3    H257026   5.069   1.619  13.467  1.0330 -2.4570 -1.2746
11871TIP3   OH257027   4.109   2.582  13.910 -0.4083  0.2105 -0.1099
11871TIP3    H157028   4.094   2.609  14.001  2.4153  0.1041  0.4880
11871TIP3    H257029   4.121   2.665  13.863  3.5865  0.3563  0.8116
11872TIP3   OH257030   4.249   1.786  11.507  0.2955  0.0822 -0.0269
11872TIP3    H157031   4.335   1.770  11.468 -0.1543  0.7477 -1.3589
11872TIP3    H257032   4.188   1.780  11.433 -0.6823  0.6658  0.7069
11873TIP3   OH257033   3.055   2.321  15.897  0.1192 -0.0973 -0.8111
11873TIP3    H157034   2.963   2.334  15.874  0.1815  1.4467 -0.3096
11873TIP3    H257035   3.064   2.226  15.907 -1.3628 -0.2929 -1.0691
11874TIP3   OH257036   2.943   1.174   3.033 -0.7861 -0.0452 -0.2085
11874TIP3    H157037   2.987   1.108   2.980  0.0511 -0.4084  0.9233
11874TIP3    H257038   2.950   1.142   3.123 -0.0591  1.7372  0.4077
11875TIP3   OH257039   2.151   0.533  12.014  0.7034  0.9330  0.3603
11875TIP3    H157040   2.225   0.589  11.990  0.6521  1.1684  0.7563
11875TIP3    H257041   2.191   0.450  12.040  0.8154  1.0095  0.4277
11876TIP3   OH257042   5.808   3.643   2.861  0.4412  0.1267 -0.6152
11876TIP3    H157043   5.834   3.551   2.868 -0.4105 -0.3232 -2.6142
11876TIP3    H257044   5.830   3.681   2.946  1.2285 -1.8093  0.0998
11877TIP3   OH257045   4.929   4.772   2.326 -0.5153  0.3684  0.1005
11877TIP3    H157046   5.002   4.772   2.388  0.2554  0.0458 -0.7878
11877TIP3    H257047   4.894   4.683   2.331  1.2930 -0.5241 -1.8960
11878TIP3   OH257048   2.586   5.800  13.854 -0.0895 -0.0004  0.4577
11878TIP3    H157049   2.506   5.775  13.901  0.1754  0.6612  1.2748
11878TIP3    H257050   2.581   5.895  13.847  0.1411 -0.0440 -0.3943
11879TIP3   OH257051   5.566   6.738   4.373  0.8889 -1.0133  0.4228
11879TIP3    H157052   5.624   6.750   4.298  1.8473 -0.5657  1.2151
11879TIP3    H257053   5.484   6.708   4.335  0.8881  0.5665 -0.9429
11880TIP3   OH257054   3.341   1.274  15.919  0.1383  0.4285 -0.2872
11880TIP3    H157055   3.367   1.257  16.010 -0.6140 -0.7643 -0.2764
11880TIP3    H257056   3.418   1.251  15.867  1.0457  2.3687  0.0963
11881TIP3   OH257057   5.996   0.489  16.345 -0.6657  0.5176  0.5031
11881TIP3    H157058   5.904   0.507  16.364 -1.2494 -0.7590 -0.9114
11881TIP3    H257059   6.008   0.515  16.254  0.3114  0.4142  0.5857
11882TIP3   OH257060   1.127   1.564   0.417 -0.6231  0.2538 -0.0099
11882TIP3    H157061   1.151   1.534   0.330  1.0224 -1.0088  0.8271
11882TIP3    H257062   1.031   1.563   0.416 -0.6646 -1.8470 -1.1515
11883TIP3   OH257063   6.633   3.086   0.357  0.0480 -0.0726 -0.5215
11883TIP3    H157064   6.701   3.048   0.301 -0.5936 -1.0989 -0.6194
11883TIP3    H257065   6.582   3.141   0.298  1.5388  1.7668 -0.1966
11884TIP3   OH257066   2.482   2.483  13.807 -0.2751 -0.1491 -0.3888
11884TIP3    H157067   2.394   2.501  13.841  0.3965  0.1430  1.2854
11884TIP3    H257068   2.469   2.413  13.743 -1.6480 -0.5675  0.3045
11885TIP3   OH257069   2.078   2.598  17.208 -0.2699 -0.1649 -0.4656
11885TIP3    H157070   2.019   2.628  17.276  1.5784 -0.1756  1.2222
11885TIP3    H257071   2.027   2.534  17.158 -1.9137  0.4251  0.4112
11886TIP3   OH257072   3.258   5.789   0.446  0.1439  0.0494 -0.1220
11886TIP3    H157073   3.235   5.707   0.488  0.2345  0.3704  0.5644
11886TIP3    H257074   3.248   5.855   0.515 -2.7968  1.0644 -1.3353
11887TIP3   OH257075   3.123   4.101  13.328  0.1249  0.3574  0.6918
11887TIP3    H157076   3.148   4.088  13.236 -1.6566 -1.4697  0.3892
11887TIP3    H257077   3.175   4.176  13.357  0.4999  1.2116 -1.9140
11888TIP3   OH257078   3.111   5.689   1.299  0.4692 -0.2048 -0.3365
11888TIP3    H157079   3.098   5.762   1.360  3.0487  0.2214 -0.1746
11888TIP3    H257080   3.153   5.621   1.352 -0.6217 -1.2935 -0.8235
11889TIP3   OH257081   5.690   2.333  16.420  0.3542  0.4789 -0.4270
11889TIP3    H157082   5.714   2.288  16.500 -1.0198  1.7789  0.7773
11889TIP3    H257083   5.774   2.349  16.375  1.0730 -0.9033  0.3639
11890TIP3   OH257084   5.389   2.286   5.699 -0.0984 -0.1919  0.0734
11890TIP3    H157085   5.394   2.356   5.764 -0.2830 -0.1850  0.0793
11890TIP3    H257086   5.388   2.206   5.750 -1.5174 -0.1516  0.1368
11891TIP3   OH257087   5.531   0.890  15.169  0.0237 -0.1870 -0.2053
11891TIP3    H157088   5.604   0.873  15.229  1.2202  0.9482 -1.2598
11891TIP3    H257089   5.574   0.918  15.087 -1.6008  0.5499 -0.8420
11892TIP3   OH257090   4.954   1.431   3.577  0.4099  0.5225  0.2450
11892TIP3    H157091   4.886   1.368   3.598  1.5871 -0.3620  1.5864
11892TIP3    H257092   4.963   1.426   3.482 -0.5350 -0.2396  0.1796
11893TIP3   OH257093   1.273   6.226   4.869  0.8965  0.4052 -0.1263
11893TIP3    H157094   1.293   6.255   4.958 -0.1215 -0.6241  0.4693
11893TIP3    H257095   1.177   6.225   4.866  0.8668  2.4013 -1.9263
11894TIP3   OH257096   2.655   2.766   0.766 -0.0061  0.3524  0.3450
11894TIP3    H157097   2.694   2.799   0.685 -2.0585 -0.5105 -1.0895
11894TIP3    H257098   2.560   2.771   0.751 -0.4413 -0.2541  2.5351
11895TIP3   OH257099   4.726   2.111  15.303 -0.1044 -0.3900 -0.4105
11895TIP3    H157100   4.727   2.056  15.225 -1.4322 -1.1750  0.1167
11895TIP3    H257101   4.711   2.200  15.269  0.3063 -0.5804 -1.1143
11896TIP3   OH257102   5.088   3.294  13.540  0.4614  0.3277  0.3714
11896TIP3    H157103   5.108   3.332  13.454  1.9728 -0.8566  0.1471
11896TIP3    H257104   4.994   3.307  13.551  0.2007  0.3518 -1.5383
11897TIP3   OH257105   6.452   4.141   2.122  0.1191  0.1342 -0.2036
11897TIP3    H157106   6.434   4.068   2.181 -0.6483 -0.5348 -1.2332
11897TIP3    H257107   6.395   4.126   2.046  2.7262 -0.3373 -2.2133
11898TIP3   OH257108   3.616   0.946  10.890  0.2671  0.2424 -0.1279
11898TIP3    H157109   3.557   0.882  10.851 -1.1362  1.6968 -0.4968
11898TIP3    H257110   3.559   1.006  10.938  1.5353  1.1616  0.2918
11899TIP3   OH257111   4.352   0.572  14.013  0.0016 -0.3041 -0.1544
11899TIP3    H157112   4.377   0.633  14.082 -1.2095 -1.8441  1.7426
11899TIP3    H257113   4.313   0.627  13.945 -0.9889  1.0719  1.4481
11900TIP3   OH257114   2.630   4.763   3.225 -0.0032  0.2907 -0.4983
11900TIP3    H157115   2.626   4.841   3.280 -0.7730 -0.5441  0.6832
11900TIP3    H257116   2.546   4.719   3.240  0.0195 -0.2823 -1.8909
11901TIP3   OH257117   6.335   2.796  16.682  0.4109 -0.0664  0.1754
11901TIP3    H157118   6.306   2.832  16.765 -0.1679 -1.4304  0.5972
11901TIP3    H257119   6.257   2.752  16.646  0.8434 -0.1188 -0.7274
11902TIP3   OH257120   4.151   0.178   3.970  0.6549 -0.0614  0.2343
11902TIP3    H157121   4.056   0.193   3.973  0.6684  0.2926 -0.7937
11902TIP3    H257122   4.160   0.084   3.959  0.3975 -0.0003 -0.5415
11903TIP3   OH257123   3.319   5.190   0.845  0.4131 -0.1685 -0.2183
11903TIP3    H157124   3.353   5.106   0.815 -0.3233 -0.2488 -0.8684
11903TIP3    H257125   3.395   5.247   0.850  0.6192 -0.2198 -2.0485
11904TIP3   OH257126   1.298   2.309   5.468  0.0052 -0.6318 -0.6687
11904TIP3    H157127   1.378   2.359   5.458 -0.3860 -0.0735 -1.0406
11904TIP3    H257128   1.237   2.368   5.513 -0.2050 -1.0502 -0.3812
11905TIP3   OH257129   0.684   3.830  16.550 -0.3239  0.0065 -0.4998
11905TIP3    H157130   0.728   3.914  16.537 -1.0913  0.7155  1.1205
11905TIP3    H257131   0.734   3.787  16.619  0.1785 -0.9716 -1.4562
11906TIP3   OH257132   4.798   3.127  14.921  0.0832  0.3925 -0.4900
11906TIP3    H157133   4.810   3.106  14.828 -1.4277 -0.2432 -0.5679
11906TIP3    H257134   4.786   3.222  14.922  1.9081  0.6728 -0.7040
11907TIP3   OH257135   3.853   6.271   4.134 -0.5469 -0.0400  0.8628
11907TIP3    H157136   3.898   6.256   4.218 -0.9767  1.4291  1.3907
11907TIP3    H257137   3.776   6.214   4.138  0.9730 -2.2752  0.1201
11908TIP3   OH257138   2.733   0.185   2.659 -0.3809 -0.8438  0.3519
11908TIP3    H157139   2.646   0.161   2.689 -1.0113 -0.4532 -1.0663
11908TIP3    H257140   2.790   0.114   2.689 -1.3684 -1.6261  0.4096
11909TIP3   OH257141   2.294   1.762  12.513 -0.3259 -0.0740  0.2684
11909TIP3    H157142   2.377   1.797  12.480 -0.5002  0.9903  0.8957
11909TIP3    H257143   2.301   1.668  12.500  0.4180  0.1295 -0.9502
11910TIP3   OH257144   4.947   3.233  14.258 -0.0572 -0.3637 -0.3066
11910TIP3    H157145   4.935   3.168  14.328  0.9707  1.3458  1.5660
11910TIP3    H257146   5.035   3.217  14.224  0.3842  0.3074  0.4862
11911TIP3   OH257147   3.648   6.085   4.189  0.3669  0.3329 -0.7869
11911TIP3    H157148   3.644   6.059   4.097 -1.4187 -2.5377 -0.0067
11911TIP3    H257149   3.681   6.007   4.235 -1.1624  0.8233  1.2683
11912TIP3   OH257150   6.579   0.211  16.219  0.2332  0.3727 -0.6999
11912TIP3    H157151   6.633   0.145  16.176 -0.6862 -0.9051  0.0358
11912TIP3    H257152   6.631   0.240  16.294  0.8001  0.7890 -1.2393
11913TIP3   OH257153   2.069   1.897  12.388 -0.2477  0.5329  0.5837
11913TIP3    H157154   2.129   1.850  12.446 -0.5114 -0.2008  0.2710
11913TIP3    H257155   2.124   1.927  12.315 -0.5993 -2.0854 -0.8697
11914TIP3   OH257156   1.514   5.421  12.249  0.0612 -0.4098  0.1190
11914TIP3    H157157   1.519   5.439  12.155  1.7659 -0.9239  0.0850
11914TIP3    H257158   1.433   5.372  12.259 -1.5210  1.8566 -0.6778
11915TIP3   OH257159   2.091   3.832   3.071  0.3038  0.5763 -0.3276
11915TIP3    H157160   2.173   3.880   3.058 -0.1746  1.9380  1.2906
11915TIP3    H257161   2.062   3.810   2.982  1.6439  1.3918 -1.0069
11916TIP3   OH257162   3.544   3.131  11.722 -0.3811 -0.3735  0.1777
11916TIP3    H157163   3.512   3.041  11.728  1.0339 -0.7738  3.1291
11916TIP3    H257164   3.621   3.125  11.665 -1.1816 -0.6841 -0.9176
11917TIP3   OH257165   0.337   4.551  13.112 -0.1018  0.0081  0.3100
11917TIP3    H157166   0.366   4.492  13.043  0.8772  0.2847  0.4820
11917TIP3    H257167   0.248   4.576  13.086  0.9408  1.7200 -1.9582
11918TIP3   OH257168   3.424   1.626   3.394  0.0828 -0.3059 -0.2628
11918TIP3    H157169   3.469   1.543   3.377  1.2320  0.3398 -0.4640
11918TIP3    H257170   3.468   1.663   3.471 -2.3940 -1.2563  1.7624
11919TIP3   OH257171   6.765   2.007   3.589 -0.5118 -0.0704  0.1627
11919TIP3    H157172   6.803   1.947   3.524 -0.3451 -0.0174  0.2092
11919TIP3    H257173   6.673   1.984   3.592 -0.7297  0.6081 -0.8460
11920TIP3   OH257174   4.102   2.375  11.525  0.1895 -0.5479  0.4475
11920TIP3    H157175   4.080   2.283  11.507  0.0099 -0.1935 -1.2584
11920TIP3    H257176   4.025   2.409  11.570  0.6375 -1.4627  1.9803
11921TIP3   OH257177   1.214   4.382   2.707 -0.1001  0.0039  0.0107
11921TIP3    H157178   1.253   4.296   2.716  1.4057  0.7049  0.4210
11921TIP3    H257179   1.125   4.371   2.742 -0.0933 -1.4655 -0.3556
11922TIP3   OH257180   1.579   2.978  13.900 -0.2153 -0.1849  0.3788
11922TIP3    H157181   1.490   2.983  13.937  0.5230  0.8734  2.1542
11922TIP3    H257182   1.635   2.961  13.976  1.2120  0.1521 -0.5725
11923TIP3   OH257183   5.944   1.383   2.296  0.7623  0.1208  0.3589
11923TIP3    H157184   5.935   1.479   2.302 -0.1036  0.0072  1.1288
11923TIP3    H257185   5.973   1.367   2.206 -0.5306  1.0185 -0.2433
11924TIP3   OH257186   2.611   3.061   5.055  0.0575  0.2687 -0.2009
11924TIP3    H157187   2.551   3.112   5.000  0.2960  0.5998 -0.1588
11924TIP3    H257188   2.566   2.977   5.068  0.8383 -0.5981 -2.5464
11925TIP3   OH257189   4.481   2.336   0.903  0.1783 -0.0537  0.1590
11925TIP3    H157190   4.409   2.393   0.876 -0.9076 -1.3739  0.1181
11925TIP3    H257191   4.557   2.393   0.907 -0.3636  0.9557 -2.1075
11926TIP3   OH257192   4.772   0.321  17.017 -0.1239 -0.0262  0.6038
11926TIP3    H157193   4.817   0.257  17.072  1.1560  0.5317  0.2355
11926TIP3    H257194   4.828   0.331  16.940 -0.6508  1.0087  0.3379
11927TIP3   OH257195   3.601   2.724  14.334  0.1018 -0.0007 -0.1807
11927TIP3    H157196   3.654   2.667  14.279  0.1974  0.0861 -0.1780
11927TIP3    H257197   3.642   2.810  14.327  0.0078  0.0502 -0.1171
11928TIP3   OH257198   5.859   3.772   1.125  0.2357 -0.0524 -0.1159
11928TIP3    H157199   5.914   3.693   1.119 -0.1121 -0.2892 -0.1736
11928TIP3    H257200   5.874   3.817   1.042  1.4978  0.6460  0.4638
11929TIP3   OH257201   0.610   2.690  15.057  1.1638  0.3120  0.1307
11929TIP3    H157202   0.673   2.654  14.995  0.6579  0.3564 -0.4116
11929TIP3    H257203   0.525   2.680  15.015  0.7246 -0.3398  1.1309
11930TIP3   OH257204   6.506   3.468   1.061  0.0159  0.0890  0.0856
11930TIP3    H157205   6.586   3.502   1.102 -0.2814  1.5328 -0.4697
11930TIP3    H257206   6.517   3.485   0.968 -1.0704  0.6415  0.0370
11931TIP3   OH257207   4.458   3.761   3.871  0.2044 -0.8665  0.4135
11931TIP3    H157208   4.500   3.846   3.858  0.4882 -1.2727 -1.6068
11931TIP3    H257209   4.366   3.782   3.884  0.5270 -0.1618  1.7481
11932TIP3   OH257210   3.406   0.072   3.844  0.4161  0.2639 -0.4475
11932TIP3    H157211   3.317   0.072   3.808  0.4351 -0.3693 -0.5072
11932TIP3    H257212   3.451   0.142   3.797  0.3074 -0.2410 -1.3136
11933TIP3   OH257213   2.603   6.118  10.522  0.5037  0.0604 -0.1986
11933TIP3    H157214   2.525   6.061  10.520  0.3633  0.2344  0.1679
11933TIP3    H257215   2.644   6.098  10.606  0.4620  0.4871 -0.0756
11934TIP3   OH257216   3.787   1.187  16.894  0.0717 -1.1965  0.0679
11934TIP3    H157217   3.719   1.139  16.941 -0.4337 -0.6071 -0.0603
11934TIP3    H257218   3.746   1.269  16.869  0.9762 -0.6252  0.4182
11935TIP3   OH257219   2.684   4.418   3.163 -0.0312 -0.1648  0.3598
11935TIP3    H157220   2.634   4.457   3.234 -0.8181 -1.9982  0.8663
11935TIP3    H257221   2.759   4.377   3.207 -0.4898 -1.2534  0.1344
11936TIP3   OH257222   4.286   5.088  13.357  0.0336 -0.1137 -0.1820
11936TIP3    H157223   4.284   5.155  13.425 -0.8019 -0.8270  0.5157
11936TIP3    H257224   4.350   5.023  13.389  0.1393 -0.1217 -0.4059
11937TIP3   OH257225   1.322   3.476   1.169  0.6709 -0.1196 -0.4921
11937TIP3    H157226   1.249   3.477   1.232  0.4791  0.0294 -0.7155
11937TIP3    H257227   1.305   3.399   1.115  0.6775 -0.0832 -0.5460
11938TIP3   OH257228   1.187   0.923  15.793  0.1573 -0.2201 -0.7232
11938TIP3    H157229   1.196   0.852  15.857 -0.1415  0.8175  0.5398
11938TIP3    H257230   1.121   0.981  15.832  1.3059  1.3957 -1.0553
11939TIP3   OH257231   4.513   4.843  13.062  0.6921  0.6734  0.0688
11939TIP3    H157232   4.439   4.789  13.035  3.1567 -2.3771 -1.1083
11939TIP3    H257233   4.508   4.920  13.005 -0.6518 -0.2311 -1.0983
11940TIP3   OH257234   0.209   5.405  13.728  0.0559 -0.0038  0.3921
11940TIP3    H157235   0.195   5.487  13.776 -0.9347  1.3616 -2.0378
11940TIP3    H257236   0.302   5.386  13.738  0.4277  1.7520  0.5694
11941TIP3   OH257237   0.634   6.372   6.663 -0.3136  0.0175 -0.3812
11941TIP3    H157238   0.647   6.432   6.589 -0.2592  0.9894  0.3910
11941TIP3    H257239   0.594   6.426   6.731 -0.5986 -0.9205  0.2173
11942TIP3   OH257240   0.596   3.091  11.773  0.5940  0.5715 -0.9016
11942TIP3    H157241   0.556   3.080  11.687 -0.5346 -1.3719 -0.1845
11942TIP3    H257242   0.672   3.032  11.772 -0.2297 -0.5482 -0.1290
11943TIP3   OH257243   3.028   0.939  11.340  0.3933  0.2942 -0.2383
11943TIP3    H157244   3.087   0.928  11.415  1.9638  0.9442 -1.3392
11943TIP3    H257245   2.967   0.866  11.348  1.4628 -0.5325  0.8340
11944TIP3   OH257246   0.018   0.064   1.728  0.3017 -0.4760 -0.1944
11944TIP3    H157247   0.018   0.142   1.784 -1.0240  0.1701 -1.0289
11944TIP3    H257248  -0.054   0.010   1.762  0.7800 -1.0247 -0.0408
11945TIP3   OH257249   2.703   0.240  16.369 -0.7341  0.1821  0.3941
11945TIP3    H157250   2.708   0.237  16.465 -0.1556  0.4096  0.3730
11945TIP3    H257251   2.717   0.149  16.342 -1.5035  0.0094  0.5443
11946TIP3   OH257252   6.595   3.120   4.300  0.2003  0.0284  0.1358
11946TIP3    H157253   6.668   3.177   4.275  1.4786 -1.4181  0.3779
11946TIP3    H257254   6.610   3.101   4.393 -0.6297 -0.0979  0.2520
11947TIP3   OH257255   0.215   6.658   0.165  0.2487  0.6912  0.3095
11947TIP3    H157256   0.250   6.595   0.103 -0.4740  1.4149 -0.8792
11947TIP3    H257257   0.244   6.627   0.250 -1.4053 -2.1625 -0.0510
11948TIP3   OH257258   4.166   4.817   2.964 -0.4194  0.3954 -0.0471
11948TIP3    H157259   4.222   4.764   3.020  0.0999  1.6154  0.6225
11948TIP3    H257260   4.131   4.756   2.900 -1.8290 -1.2804  2.1717
11949TIP3   OH257261   3.510   2.610   5.669  0.0566 -0.0299 -0.2430
11949TIP3    H157262   3.483   2.686   5.720 -0.2004  0.4906 -1.1332
11949TIP3    H257263   3.511   2.641   5.579  0.0847 -1.0534 -0.6045
11950TIP3   OH257264   0.286   3.646   1.244 -0.5257 -0.5023 -0.0540
11950TIP3    H157265   0.249   3.734   1.234  0.7143  0.0189 -0.2381
11950TIP3    H257266   0.251   3.616   1.328 -0.9297  0.1895  0.0386
11951TIP3   OH257267   6.094   1.709  16.734 -0.7755 -0.5790  0.0345
11951TIP3    H157268   6.103   1.756  16.651  1.1634  1.4607  1.2698
11951TIP3    H257269   6.159   1.638  16.729 -0.0177  0.0923  0.1118
11952TIP3   OH257270   6.405   6.309  16.397  0.2349  0.0445 -0.7598
11952TIP3    H157271   6.378   6.289  16.307 -0.8685 -1.0747 -0.2077
11952TIP3    H257272   6.358   6.246  16.451 -0.0817  1.4955  0.7351
11953TIP3   OH257273   2.049   3.413  11.949 -0.1993 -0.0277 -0.8641
11953TIP3    H157274   2.105   3.345  11.911  0.6967 -0.0718  0.4726
11953TIP3    H257275   2.012   3.458  11.873  0.1722 -1.1984 -1.7781
11954TIP3   OH257276   2.005   1.610  16.236 -0.1065 -0.0490  0.4542
11954TIP3    H157277   1.947   1.657  16.297  0.4951 -1.0152  1.8306
11954TIP3    H257278   2.085   1.596  16.285  0.3384 -1.0269 -0.5081
11955TIP3   OH257279   4.113   1.900   1.573  0.3688 -0.4601  0.4089
11955TIP3    H157280   4.052   1.962   1.614  0.7152 -1.0166  1.8247
11955TIP3    H257281   4.094   1.905   1.480 -0.8117  0.4856  0.6861
11956TIP3   OH257282   3.809   3.661  13.737 -0.2244  0.5903 -0.3126
11956TIP3    H157283   3.900   3.691  13.735  0.4440 -1.2945 -0.2269
11956TIP3    H257284   3.810   3.579  13.688 -2.3709  1.6776 -2.3507
11957TIP3   OH257285   0.375   0.407   5.218  0.7884  0.0143  0.3232
11957TIP3    H157286   0.355   0.356   5.140  0.5959  0.2150  0.2428
11957TIP3    H257287   0.462   0.443   5.202  0.5665  0.4205  0.0087
11958TIP3   OH257288   0.221   4.698   2.774  0.1678  0.3239  0.2196
11958TIP3    H157289   0.180   4.770   2.822 -0.6435  0.6618 -0.9323
11958TIP3    H257290   0.150   4.660   2.722  1.1671  0.5265 -1.3506
11959TIP3   OH257291   3.824   1.465  10.475 -0.0783  0.2344 -0.0786
11959TIP3    H157292   3.903   1.484  10.425 -0.7138 -0.5354 -1.4385
11959TIP3    H257293   3.776   1.548  10.476  1.1074  0.9472  1.5084
11960TIP3   OH257294   6.247   2.046  11.054 -0.5195 -0.6606 -0.7082
11960TIP3    H157295   6.320   2.089  11.010 -0.6204 -1.0705 -1.2933
11960TIP3    H257296   6.251   2.077  11.144  0.4978 -0.8302 -0.6845
11961TIP3   OH257297   5.033   0.453   1.738  0.8477 -0.0074  0.5556
11961TIP3    H157298   5.017   0.368   1.778 -1.0780 -0.9373 -1.9817
11961TIP3    H257299   4.962   0.509   1.770  0.8983  0.0462  0.5760
11962TIP3   OH257300   3.631   5.439  13.556 -0.2978  0.4714 -0.2889
11962TIP3    H157301   3.642   5.348  13.584  4.6949  1.0318  0.5479
11962TIP3    H257302   3.629   5.435  13.461  2.8909 -0.5417 -0.4239
11963TIP3   OH257303   2.460   5.472  14.656  0.1395 -0.4531 -0.0474
11963TIP3    H157304   2.543   5.434  14.627 -0.0801  0.4890 -2.0518
11963TIP3    H257305   2.451   5.552  14.604 -2.5266 -1.0970 -0.7037
11964TIP3   OH257306   1.271   0.716   4.905  0.2559  0.4542 -0.3397
11964TIP3    H157307   1.298   0.728   4.997  0.7432  0.0042 -0.4178
11964TIP3    H257308   1.257   0.805   4.873  1.8442  0.7479 -0.3323
11965TIP3   OH257309   6.187   0.249   4.797 -0.5517  0.5774  0.4488
11965TIP3    H157310   6.170   0.199   4.716 -2.0587 -0.4568  1.3503
11965TIP3    H257311   6.227   0.330   4.767  1.9821 -1.0849 -1.1220
11966TIP3   OH257312   5.263   6.089  15.694  0.7097  0.0718 -0.2691
11966TIP3    H157313   5.209   6.036  15.635 -0.9484 -0.1472  1.3614
11966TIP3    H257314   5.325   6.027  15.731  0.1166 -0.3185  0.0880
11967TIP3   OH257315   2.810   0.882  13.801  0.5377 -0.1284  0.1618
11967TIP3    H157316   2.778   0.858  13.888  1.1148 -0.2077  0.3556
11967TIP3    H257317   2.904   0.893  13.812  0.4251  1.3010 -0.1317
11968TIP3   OH257318   3.992   6.240  14.658  0.0645  0.0112 -0.1841
11968TIP3    H157319   3.934   6.164  14.649 -1.1674  0.8299  0.6166
11968TIP3    H257320   4.053   6.214  14.728  0.1694 -0.5547 -0.4799
11969TIP3   OH257321   5.006   6.654   2.737  0.4790  0.2982  0.4388
11969TIP3    H157322   5.079   6.715   2.741  1.1070 -0.3062 -1.1034
11969TIP3    H257323   4.931   6.705   2.770  1.3717  1.2289  1.1055
11970TIP3   OH257324   4.877   5.774  12.971  0.0458  0.1348 -0.1178
11970TIP3    H157325   4.790   5.746  12.999 -0.2789  1.2853  0.0998
11970TIP3    H257326   4.890   5.858  13.016  1.6689 -0.4623  0.6354
11971TIP3   OH257327   0.602   3.957  16.885 -0.3839 -0.5931  0.1557
11971TIP3    H157328   0.671   3.964  16.819  1.4210  0.2468  2.0012
11971TIP3    H257329   0.522   3.981  16.840  0.6875 -0.6228 -1.8436
11972TIP3   OH257330   0.168   0.991  15.204  0.1661 -0.2986 -0.0665
11972TIP3    H157331   0.196   0.901  15.218 -0.7048 -0.3385  1.5824
11972TIP3    H257332   0.169   1.031  15.291 -0.7946  0.8827 -0.5656
11973TIP3   OH257333   6.283   1.010  10.994 -0.2382  0.1635  0.5715
11973TIP3    H157334   6.300   1.047  10.908  1.8547 -0.9939  0.4237
11973TIP3    H257335   6.353   0.946  11.007 -0.9975 -0.3097  2.7754
11974TIP3   OH257336   2.316   0.263  11.104  0.6058  0.2071  0.2875
11974TIP3    H157337   2.320   0.302  11.017  1.8689 -0.8654 -0.1650
11974TIP3    H257338   2.321   0.168  11.089  1.2151  0.0145  1.5356
11975TIP3   OH257339   1.362   1.524  13.681  0.4454 -0.1613 -0.2270
11975TIP3    H157340   1.275   1.500  13.711 -0.0720  1.4342 -0.3706
11975TIP3    H257341   1.363   1.620  13.684  1.9765 -0.1319 -0.8208
11976TIP3   OH257342   3.982   3.013  12.517 -0.2674  0.2999 -0.2915
11976TIP3    H157343   3.937   2.930  12.504 -1.0952  0.6100  0.4159
11976TIP3    H257344   3.914   3.071  12.553  0.1721  1.4090 -1.1862
11977TIP3   OH257345   0.234   3.227  13.419  0.5918 -0.3362  0.5183
11977TIP3    H157346   0.309   3.168  13.416  0.1369 -0.9036 -2.8157
11977TIP3    H257347   0.272   3.315  13.411  0.9371 -0.6018 -0.8657
11978TIP3   OH257348   3.761   3.003   2.636 -0.3948 -0.5783 -0.0917
11978TIP3    H157349   3.806   2.932   2.591 -1.4989 -0.6615 -1.0995
11978TIP3    H257350   3.744   2.969   2.724  1.3927 -0.5758  0.2901
11979TIP3   OH257351   1.158   6.208   2.905  0.0113 -0.0044 -0.0623
11979TIP3    H157352   1.161   6.299   2.935  0.7076 -0.1589  0.3650
11979TIP3    H257353   1.094   6.166   2.963  0.6949 -0.0949  0.6399
11980TIP3   OH257354   3.309   0.833  16.964 -0.1159 -0.0370  0.1418
11980TIP3    H157355   3.365   0.817  17.041 -0.8138 -0.8191  0.5020
11980TIP3    H257356   3.330   0.761  16.905 -0.2851  0.0182  0.0148
11981TIP3   OH257357   3.855   0.703  13.308  0.1724 -0.5089 -0.1000
11981TIP3    H157358   3.900   0.717  13.392 -1.4368 -1.1250  0.9108
11981TIP3    H257359   3.839   0.791  13.274 -0.4830 -0.1829  0.9954
11982TIP3   OH257360   2.102   1.836  15.551  0.4283 -0.1009 -0.3789
11982TIP3    H157361   2.040   1.831  15.624  0.5152 -1.1596 -0.3527
11982TIP3    H257362   2.166   1.767  15.570  1.9824  1.3815 -0.0903
11983TIP3   OH257363   4.107   1.120   0.229  0.2932  0.3761  0.7374
11983TIP3    H157364   4.178   1.056   0.224 -0.5827 -0.7053  1.6064
11983TIP3    H257365   4.074   1.113   0.318 -0.7463  1.0267  0.4291
11984TIP3   OH257366   0.864   2.013   2.369 -0.1845 -0.1559 -0.0901
11984TIP3    H157367   0.933   1.947   2.362  0.7254  0.6462  0.9658
11984TIP3    H257368   0.812   2.002   2.290  0.4526 -1.5676 -0.3414
11985TIP3   OH257369   5.872   5.978   6.605  0.7029 -0.2542 -0.7790
11985TIP3    H157370   5.877   6.073   6.596  0.7843 -0.0905  0.7313
11985TIP3    H257371   5.792   5.953   6.559 -0.1025  0.7248  0.0539
11986TIP3   OH257372   2.433   6.334  13.146  0.0946 -0.2625 -0.3071
11986TIP3    H157373   2.490   6.326  13.069  0.5702 -3.5625  0.2585
11986TIP3    H257374   2.383   6.252  13.148 -2.2313  1.0743  1.1667
11987TIP3   OH257375   2.175   1.242  11.684 -0.1010  0.1408 -0.5700
11987TIP3    H157376   2.135   1.233  11.597  0.4767 -2.6510 -0.6334
11987TIP3    H257377   2.268   1.260  11.666 -0.2444  1.0365 -0.4760
11988TIP3   OH257378   3.519   4.895   4.088 -0.5405 -0.2273  0.3245
11988TIP3    H157379   3.601   4.888   4.137 -0.3938 -0.2504  0.0778
11988TIP3    H257380   3.508   4.990   4.074 -0.0640 -0.2779 -0.4597
11989TIP3   OH257381   2.745   3.268   5.179  0.1967 -0.4086  0.1149
11989TIP3    H157382   2.706   3.200   5.124  0.0543  1.5357 -2.3784
11989TIP3    H257383   2.670   3.318   5.211  0.3264  2.0257 -2.9272
11990TIP3   OH257384   4.643   0.406  14.375 -0.0898  0.4584  0.1396
11990TIP3    H157385   4.660   0.451  14.458  0.1907 -0.5666  0.6450
11990TIP3    H257386   4.721   0.423  14.323 -0.0377  0.6534  0.2766
11991TIP3   OH257387   3.139   0.770   0.665 -0.6330  0.1236 -0.1025
11991TIP3    H157388   3.179   0.840   0.613 -0.6590  0.1928 -0.0305
11991TIP3    H257389   3.203   0.751   0.734 -0.7695  0.3129  0.0803
11992TIP3   OH257390   2.150   4.296   4.770  1.1634  0.1599  0.6888
11992TIP3    H157391   2.119   4.284   4.860  1.7985  0.4356  0.9500
11992TIP3    H257392   2.157   4.391   4.760 -0.6508  0.2476 -0.2712
11993TIP3   OH257393   6.736   5.767  15.144 -0.4403  0.2126 -0.2843
11993TIP3    H157394   6.792   5.832  15.186 -0.1589 -0.8865  1.1286
11993TIP3    H257395   6.716   5.804  15.058  1.2328  1.2986 -0.2499
11994TIP3   OH257396   6.330   2.615  16.047  0.1673  0.0516 -0.4927
11994TIP3    H157397   6.361   2.649  15.963  0.3032 -1.1274 -0.9336
11994TIP3    H257398   6.302   2.525  16.028 -0.1189 -0.1161  0.6546
11995TIP3   OH257399   4.143   6.074  17.076 -0.5621  0.4670 -0.4408
11995TIP3    H157400   4.151   6.139  17.007  0.6866  0.6571 -0.1423
11995TIP3    H257401   4.115   6.123  17.153 -0.7468  0.4594 -0.5042
11996TIP3   OH257402   6.623   4.973   2.400  0.4098  0.3679  0.0650
11996TIP3    H157403   6.561   5.015   2.460 -0.9186  0.9833 -1.6525
11996TIP3    H257404   6.664   5.046   2.354 -1.1675 -0.0875 -2.2207
11997TIP3   OH257405   0.068   1.651  16.036 -0.2089  0.5161 -0.8921
11997TIP3    H157406   0.052   1.561  16.063 -0.4286  0.7174 -0.3360
11997TIP3    H257407   0.003   1.668  15.968  0.3731 -0.0078 -1.5984
11998TIP3   OH257408   4.927   4.446  10.822  0.3304 -0.0967 -0.2575
11998TIP3    H157409   4.864   4.375  10.812  0.7561 -0.3951 -0.9126
11998TIP3    H257410   5.004   4.416  10.774  0.4532  0.8818 -0.6948
11999TIP3   OH257411   5.107   0.582   3.426 -0.0142  0.2379 -0.0297
11999TIP3    H157412   5.122   0.630   3.345  0.8478 -1.5182 -0.9571
11999TIP3    H257413   5.118   0.490   3.403  2.0340 -0.2565  2.4241
12000TIP3   OH257414   4.963   3.832  14.772  0.0331  0.0901 -0.2638
12000TIP3    H157415   5.009   3.758  14.731 -0.4696  0.6689 -1.9639
12000TIP3    H257416   4.985   3.825  14.865  0.1149 -2.0942 -0.3953
12001TIP3   OH257417   4.719   2.751   4.883 -0.8740  0.5768  0.3170
12001TIP3    H157418   4.632   2.751   4.924 -1.1944  0.7075 -0.3471
12001TIP3    H257419   4.701   2.764   4.790 -0.0100  3.6012  0.4673
12002TIP3   OH257420   6.085   1.925  13.183 -0.1501  0.0428 -0.4664
12002TIP3    H157421   6.054   1.869  13.255  0.9676 -1.3765 -1.0350
12002TIP3    H257422   6.128   1.864  13.123  0.8943  1.5012 -1.2448
12003TIP3   OH257423   0.140   4.694   0.741  0.1813 -0.1506  0.2038
12003TIP3    H157424   0.051   4.708   0.709 -0.1519 -0.6231  0.9112
12003TIP3    H257425   0.161   4.773   0.791  0.0632 -0.1513  0.2528
12004TIP3   OH257426   0.186   5.542   0.417  0.5550  0.6847  0.5927
12004TIP3    H157427   0.143   5.620   0.452  0.4053  1.0358 -0.3494
12004TIP3    H257428   0.236   5.574   0.341 -1.4671 -0.4978 -1.3348
12005TIP3   OH257429   0.602   3.704  13.389  0.6438 -0.1697 -0.1788
12005TIP3    H157430   0.577   3.629  13.444  2.2405 -0.4977  0.1355
12005TIP3    H257431   0.641   3.766  13.450  0.8924  0.1810 -0.6923
12006TIP3   OH257432   3.794   4.186  11.169 -0.0868 -0.5036  0.4953
12006TIP3    H157433   3.836   4.112  11.125  1.7977 -0.1296  1.5477
12006TIP3    H257434   3.784   4.252  11.100  1.1518 -0.5902  0.1989
12007TIP3   OH257435   1.465   4.518  16.163  0.1876  0.5675 -0.3208
12007TIP3    H157436   1.418   4.460  16.103  0.3942  0.5996 -0.5146
12007TIP3    H257437   1.480   4.464  16.241  0.8368  0.1891 -0.6974
12008TIP3   OH257438   1.306   4.461   5.278 -0.2415 -0.5139  0.6471
12008TIP3    H157439   1.255   4.531   5.318 -0.9442 -1.5309  1.6056
12008TIP3    H257440   1.365   4.505   5.218 -0.5978  0.9005  1.2978
12009TIP3   OH257441   6.608   2.313  11.710  0.1946 -0.3104  0.3651
12009TIP3    H157442   6.620   2.382  11.644  1.8921 -1.7285 -0.9107
12009TIP3    H257443   6.526   2.270  11.685  0.0767  0.0914  0.0507
12010TIP3   OH257444   3.994   2.109   3.712  0.6002  0.4408  0.4670
12010TIP3    H157445   3.943   2.143   3.787  1.2170  1.1778  0.5706
12010TIP3    H257446   3.934   2.049   3.668 -0.0481  0.5941  1.1052
12011TIP3   OH257447   6.670   0.686   5.059  0.3964  0.0996  0.2617
12011TIP3    H157448   6.750   0.649   5.022 -0.3000 -1.7758  0.4968
12011TIP3    H257449   6.636   0.743   4.990  1.6694  0.5717 -0.0091
12012TIP3   OH257450   4.616   5.353   5.102 -0.0620 -0.2148  0.4466
12012TIP3    H157451   4.624   5.381   5.011  1.2757 -1.7676  0.0428
12012TIP3    H257452   4.557   5.278   5.100 -0.4308  0.0509  0.9468
12013TIP3   OH257453   4.794   3.415   5.473 -0.7300  0.2120 -0.0744
12013TIP3    H157454   4.713   3.434   5.520 -0.5633  1.6275 -0.3398
12013TIP3    H257455   4.857   3.479   5.506  0.9436 -2.1764  1.7270
12014TIP3   OH257456   4.628   6.104   4.672  0.3348 -0.0256  0.2425
12014TIP3    H157457   4.651   6.110   4.579  0.9005  2.9291  0.4775
12014TIP3    H257458   4.536   6.131   4.676  1.0837  2.8035  0.7227
12015TIP3   OH257459   5.599   5.408   2.800  0.7794 -0.5015 -0.5638
12015TIP3    H157460   5.664   5.340   2.785 -0.5172 -1.5389 -1.7291
12015TIP3    H257461   5.643   5.490   2.777  2.0425 -1.0395 -0.1227
12016TIP3   OH257462   2.439   0.965  15.350  0.7283  0.0442 -0.5724
12016TIP3    H157463   2.371   1.025  15.378  1.2164  1.3382 -2.0122
12016TIP3    H257464   2.447   0.902  15.422 -1.7704 -0.0002 -0.2541
12017TIP3   OH257465   4.424   1.252   5.342 -0.0399 -0.4467  0.3031
12017TIP3    H157466   4.380   1.169   5.361 -0.1608 -0.3407  0.4863
12017TIP3    H257467   4.458   1.281   5.426  2.3123 -1.6254 -0.1619
12018TIP3   OH257468   3.987   0.118   2.238  0.3839  0.2716 -0.1710
12018TIP3    H157469   4.058   0.062   2.268  1.9722  2.5066  0.4743
12018TIP3    H257470   3.914   0.098   2.297  1.1111 -0.6495  0.4383
12019TIP3   OH257471   4.785   1.126  14.262 -0.3423 -0.3149 -0.0580
12019TIP3    H157472   4.705   1.141  14.313  0.1130  2.0799  0.0455
12019TIP3    H257473   4.786   1.031  14.247 -2.9250 -0.4722  0.3541
12020TIP3   OH257474   3.328   0.217  11.209 -0.3406 -0.2157 -0.1336
12020TIP3    H157475   3.398   0.161  11.241  0.7523 -0.1901 -2.3352
12020TIP3    H257476   3.366   0.305  11.206 -1.1910  0.2014  0.7394
12021TIP3   OH257477   6.018   6.512   0.238  0.2602  0.0413 -0.7118
12021TIP3    H157478   6.098   6.565   0.248  1.2735 -1.7120  1.2601
12021TIP3    H257479   6.051   6.423   0.225 -1.3971 -0.6117 -0.5894
12022TIP3   OH257480   5.070   5.356  13.245  1.0466  0.4281  0.4712
12022TIP3    H157481   5.165   5.354  13.244  1.1030 -0.6755 -2.5053
12022TIP3    H257482   5.044   5.278  13.196 -1.3431  1.4224  0.0029
12023TIP3   OH257483   4.254   0.719   1.714 -0.2285 -0.2066 -0.0539
12023TIP3    H157484   4.346   0.694   1.720 -0.4586 -0.8459  1.0778
12023TIP3    H257485   4.210   0.639   1.685 -0.3486  0.2926 -1.2905
12024TIP3   OH257486   5.018   0.679   4.674 -0.3018  0.4557  0.4537
12024TIP3    H157487   4.942   0.703   4.727 -0.8458  0.6300 -0.3900
12024TIP3    H257488   5.038   0.758   4.624  0.1001  0.2381  0.2654
12025TIP3   OH257489   3.027   4.807   2.302 -0.0115 -0.4580  0.1321
12025TIP3    H157490   3.055   4.718   2.323 -0.6548 -0.0102  3.3308
12025TIP3    H257491   2.932   4.804   2.305 -0.0413  0.3159  0.1600
12026TIP3   OH257492   4.202   5.008  15.511 -0.1702  0.6117 -0.2670
12026TIP3    H157493   4.257   4.989  15.587  1.2174  0.3677 -1.2890
12026TIP3    H257494   4.191   5.103  15.512  0.5172  0.6923 -0.2089
12027TIP3   OH257495   1.826   3.065  16.327  0.1185  0.6028  0.4413
12027TIP3    H157496   1.808   3.065  16.421  0.2109  1.1813  0.4619
12027TIP3    H257497   1.908   3.115  16.318  0.6045 -0.2163  0.1439
12028TIP3   OH257498   5.906   5.525  15.089  0.2508 -0.2861 -0.0365
12028TIP3    H157499   5.865   5.447  15.126  1.9302 -0.3391  1.8581
12028TIP3    H257500   5.991   5.531  15.132 -0.4744  3.5557  1.2378
12029TIP3   OH257501   6.595   0.986  14.571  0.1007  0.5794 -0.8929
12029TIP3    H157502   6.593   1.076  14.604  1.0929  0.8734 -1.5710
12029TIP3    H257503   6.567   0.994  14.479 -1.3149 -0.0328 -0.5419
12030TIP3   OH257504   1.740   1.945  12.092  0.3512  0.8244  0.6143
12030TIP3    H157505   1.699   1.904  12.168 -0.5417 -0.8099 -0.6848
12030TIP3    H257506   1.699   2.032  12.087 -0.0021  0.7314  1.6594
12031TIP3   OH257507   2.347   2.338  17.124  0.4909  0.2919 -0.5060
12031TIP3    H157508   2.344   2.415  17.182  1.8962 -0.6576  0.9280
12031TIP3    H257509   2.280   2.355  17.058 -1.9545  0.9884  1.9764
12032TIP3   OH257510   1.515   1.326   3.520 -0.1614 -0.2131 -0.0793
12032TIP3    H157511   1.566   1.363   3.448 -0.6322  1.4124  0.3863
12032TIP3    H257512   1.447   1.274   3.477  1.0953 -1.3586 -0.7281
12033TIP3   OH257513   0.280   4.491  13.398  0.4421  0.1984 -0.2998
12033TIP3    H157514   0.318   4.534  13.322 -0.1021 -1.8649 -1.8201
12033TIP3    H257515   0.247   4.408  13.365 -0.9165 -0.2540  1.9637
12034TIP3   OH257516   3.070   2.148   6.192 -0.6318 -0.3813 -0.2013
12034TIP3    H157517   3.162   2.174   6.193 -0.8828  0.5737 -0.9505
12034TIP3    H257518   3.052   2.121   6.282  0.4500 -0.8447 -0.1066
12035TIP3   OH257519   1.933   1.733  16.501 -0.4162  0.4083  0.5963
12035TIP3    H157520   1.954   1.772  16.586 -1.4189  1.2769  0.4662
12035TIP3    H257521   1.926   1.808  16.441 -0.7201 -0.1096 -0.0314
12036TIP3   OH257522   1.396   1.158   5.699 -0.6553  0.1388 -0.4630
12036TIP3    H157523   1.488   1.144   5.677  0.0726  0.2278  2.1525
12036TIP3    H257524   1.367   1.073   5.734 -1.4232  0.2507 -0.8141
12037TIP3   OH257525   0.042   4.368  12.108 -0.5000 -0.0380  0.7024
12037TIP3    H157526   0.061   4.460  12.093  1.7694 -0.8592 -2.4920
12037TIP3    H257527  -0.027   4.347  12.045  0.6948 -1.0010 -0.3311
12038TIP3   OH257528   1.956   3.155   2.620 -0.1858  0.5083 -0.5706
12038TIP3    H157529   2.014   3.205   2.562 -0.2694  0.3056 -0.8329
12038TIP3    H257530   1.873   3.152   2.574  0.0952 -0.7257 -1.0345
12039TIP3   OH257531   1.749   5.340  12.918 -0.3500  0.2729  0.2478
12039TIP3    H157532   1.701   5.286  12.855  0.5432 -1.2828  0.8368
12039TIP3    H257533   1.686   5.405  12.947 -1.3881 -0.2635 -0.7241
12040TIP3   OH257534   4.354   3.443  14.390 -0.0081 -0.2665  0.0032
12040TIP3    H157535   4.416   3.434  14.462 -1.3710 -0.5938  1.1981
12040TIP3    H257536   4.294   3.369  14.401 -2.8328  1.9734  1.2605
12041TIP3   OH257537   1.910   0.182   4.367 -0.0240 -0.4751  0.4814
12041TIP3    H157538   1.946   0.233   4.439 -0.2070 -2.3442  1.9857
12041TIP3    H257539   1.845   0.239   4.328  0.3338  0.7336  1.5596
12042TIP3   OH257540   1.349   1.490  12.458 -0.0956  0.4869  0.2841
12042TIP3    H157541   1.390   1.527  12.536 -1.3446 -1.2490  1.8379
12042TIP3    H257542   1.415   1.499  12.390  2.2529 -0.6446  2.2625
12043TIP3   OH257543   3.421   6.592  16.138  0.0043 -0.2397  0.1146
12043TIP3    H157544   3.346   6.591  16.197 -0.0214 -0.0113  0.0876
12043TIP3    H257545   3.474   6.517  16.165  0.9521  0.9401  1.6785
12044TIP3   OH257546   2.647   4.308   4.207 -0.0855 -0.3853  0.6932
12044TIP3    H157547   2.659   4.252   4.283 -0.6390  0.2816  1.2774
12044TIP3    H257548   2.599   4.384   4.240  0.5828  0.3978 -0.1028
12045TIP3   OH257549   4.618   1.998  17.171 -0.6622  0.0639  0.9819
12045TIP3    H157550   4.580   1.958  17.092  0.5252 -0.0533  0.4457
12045TIP3    H257551   4.584   2.088  17.170 -1.9855 -0.4006  1.2631
12046TIP3   OH257552   1.797   6.141   5.241 -0.0763  0.0911 -0.3659
12046TIP3    H157553   1.758   6.201   5.177 -3.5240 -1.1749  0.3490
12046TIP3    H257554   1.808   6.194   5.320  4.7179  1.8161 -1.8650
12047TIP3   OH257555   0.681   5.955  17.064  0.2358 -0.2208 -0.0874
12047TIP3    H157556   0.710   5.864  17.056 -0.2778 -0.2902 -1.5459
12047TIP3    H257557   0.702   5.994  16.979 -1.9522  0.2918 -0.4564
12048TIP3   OH257558   0.256   1.910  12.617  0.0128  0.2645 -0.3596
12048TIP3    H157559   0.304   1.850  12.674  0.1443  1.0158  0.3405
12048TIP3    H257560   0.315   1.984  12.604 -0.5854  0.7763 -0.2528
12049TIP3   OH257561   0.253   2.681   5.990  0.5598  0.1790  0.2083
12049TIP3    H157562   0.329   2.738   5.977  0.1372  0.7951  0.4297
12049TIP3    H257563   0.241   2.637   5.906  1.4833 -0.3224  0.3252
12050TIP3   OH257564   1.434   3.880   1.715  0.0395  0.3053  0.4815
12050TIP3    H157565   1.445   3.975   1.703  0.8795  0.0682 -0.8595
12050TIP3    H257566   1.451   3.843   1.628  0.5481 -1.1511  1.1760
12051TIP3   OH257567   3.864   3.615  10.432  0.2313 -0.2022  0.1440
12051TIP3    H157568   3.811   3.570  10.366  0.5176  2.0004 -1.7131
12051TIP3    H257569   3.804   3.676  10.474  0.8933  1.2164 -0.8990
12052TIP3   OH257570   5.171   3.425   3.746  0.7903 -0.1230  0.8049
12052TIP3    H157571   5.232   3.471   3.803 -0.3243  0.3363  1.6632
12052TIP3    H257572   5.224   3.397   3.671  1.5154  2.5076  0.2630
12053TIP3   OH257573   5.417   2.122  14.486 -0.5705  0.5600 -0.2778
12053TIP3    H157574   5.397   2.028  14.481 -0.2081  0.4137  0.7818
12053TIP3    H257575   5.418   2.141  14.580  0.8806  1.2916 -0.4176
12054TIP3   OH257576   6.374   4.056  14.379  0.6854  0.4133 -0.7668
12054TIP3    H157577   6.399   4.140  14.419  0.7865  0.9402 -1.8794
12054TIP3    H257578   6.289   4.074  14.338 -1.5087 -1.2209  2.5635
12055TIP3   OH257579   0.601   3.800  12.212  0.2737 -0.8060 -0.2171
12055TIP3    H157580   0.552   3.718  12.208 -1.0610 -0.0553  0.4077
12055TIP3    H257581   0.681   3.778  12.261  0.3608 -1.9241 -0.8298
12056TIP3   OH257582   3.169   3.797   1.022  0.0378 -0.4151 -0.2987
12056TIP3    H157583   3.174   3.792   1.118 -0.9887  0.9505 -0.1403
12056TIP3    H257584   3.097   3.858   1.005  1.4325  0.9095 -1.8991
12057TIP3   OH257585   3.627   0.367  12.805 -0.1565  0.3365 -0.0817
12057TIP3    H157586   3.571   0.290  12.796 -1.5418  1.4751 -1.9763
12057TIP3    H257587   3.589   0.416  12.877 -0.2122  0.0183  0.1081
12058TIP3   OH257588   2.249   6.580   2.129 -0.7483 -0.7140 -0.1672
12058TIP3    H157589   2.327   6.535   2.161 -0.4180 -0.4929 -0.6380
12058TIP3    H257590   2.220   6.634   2.202 -0.3725 -0.6837 -0.0404
12059TIP3   OH257591   0.085   5.878  15.944 -0.6958  0.1497  0.0013
12059TIP3    H157592   0.076   5.973  15.950 -1.3138  0.2166 -1.3953
12059TIP3    H257593   0.178   5.862  15.958 -0.1161  1.2409 -2.0326
12060TIP3   OH257594   4.497   0.369   5.039 -0.3972  0.5496  0.1071
12060TIP3    H157595   4.411   0.392   5.072 -1.7052 -0.4191 -2.3444
12060TIP3    H257596   4.506   0.420   4.958  0.7320 -0.4034 -0.3957
12061TIP3   OH257597   1.045   2.942  15.883 -0.4087 -0.0251  0.4169
12061TIP3    H157598   0.950   2.947  15.870 -0.7385 -1.1427  2.0938
12061TIP3    H257599   1.074   3.033  15.880 -1.8485  0.5340  1.8052
12062TIP3   OH257600   2.277   5.891  12.006 -0.1783 -0.0209  0.0926
12062TIP3    H157601   2.249   5.900  11.915  0.9068  0.9621 -0.1633
12062TIP3    H257602   2.252   5.802  12.030 -0.4914 -0.2885 -1.1580
12063TIP3   OH257603   6.096   6.688   2.530 -0.3551  0.0560  0.1682
12063TIP3    H157604   6.154   6.709   2.457 -0.2544  0.3866  0.3405
12063TIP3    H257605   6.029   6.756   2.527  0.8841  1.4471  1.7360
12064TIP3   OH257606   6.500   2.001   5.244 -0.0558 -0.2644 -0.2718
12064TIP3    H157607   6.550   1.935   5.195 -1.8171 -3.0410  1.3901
12064TIP3    H257608   6.478   2.068   5.179  1.8626 -1.2649 -2.0664
12065TIP3   OH257609   2.979   4.308  11.129  1.1441  0.0163  0.0065
12065TIP3    H157610   3.019   4.222  11.119  0.8601 -0.0972 -0.1637
12065TIP3    H257611   2.998   4.333  11.220 -0.8551 -1.2925  0.8418
12066TIP3   OH257612   5.903   1.508   1.747  0.3867  0.5094  0.0508
12066TIP3    H157613   5.920   1.589   1.794  1.2779  1.9242 -2.4861
12066TIP3    H257614   5.988   1.483   1.710 -0.5698  0.7135 -2.5053
12067TIP3   OH257615   2.337   2.525   0.085 -0.4664 -0.7993  0.3445
12067TIP3    H157616   2.367   2.608   0.123  0.4628 -0.0876 -1.8148
12067TIP3    H257617   2.245   2.541   0.064 -0.2211 -0.1826 -0.3233
12068TIP3   OH257618   2.402   2.738  16.183  0.4120 -0.3326 -0.5191
12068TIP3    H157619   2.367   2.707  16.267  1.6193 -0.2960  0.0321
12068TIP3    H257620   2.329   2.732  16.122 -0.0594 -1.8999  0.1595
12069TIP3   OH257621   0.289   3.130   0.762 -0.1296  0.7778 -0.6023
12069TIP3    H157622   0.264   3.174   0.843  1.6551 -1.7924  1.5295
12069TIP3    H257623   0.206   3.101   0.724 -0.9750  1.4759  0.6369
12070TIP3   OH257624   4.570   1.051  13.949 -0.2778 -0.1090  0.0938
12070TIP3    H157625   4.578   1.039  13.855  2.0251  0.5010  0.1430
12070TIP3    H257626   4.654   1.020  13.984 -0.6563  0.7051  1.8261
12071TIP3   OH257627   5.451   6.298   4.522  0.3479  0.1136  0.5749
12071TIP3    H157628   5.476   6.206   4.522 -0.3238 -0.0727  0.3496
12071TIP3    H257629   5.534   6.345   4.533  0.6336 -0.5270  1.2782
12072TIP3   OH257630   1.506   0.462   5.054 -0.1418  0.5495  0.3291
12072TIP3    H157631   1.516   0.550   5.017 -1.2034  1.2290  1.5229
12072TIP3    H257632   1.451   0.476   5.132  1.2944 -0.8948  1.6806
12073TIP3   OH257633   0.047   4.865  12.458  0.4343 -0.1251  0.1617
12073TIP3    H157634  -0.031   4.850  12.511  0.3285 -0.0685  0.0223
12073TIP3    H257635   0.112   4.899  12.520  0.4622 -0.5086  0.3455
12074TIP3   OH257636   4.572   3.154  12.219 -0.4817 -0.2626  0.2422
12074TIP3    H157637   4.514   3.140  12.145 -0.3921 -1.1118  0.3303
12074TIP3    H257638   4.514   3.158  12.295 -0.6550  1.3989  0.0645
12075TIP3   OH257639   3.473   2.607  15.562 -0.6073 -0.3433  0.1463
12075TIP3    H157640   3.442   2.572  15.646 -0.2482 -1.7932 -0.3010
12075TIP3    H257641   3.414   2.568  15.497 -1.8188  1.8965 -0.2176
12076TIP3   OH257642   5.869   2.740  16.549  0.2842 -0.1446  0.6166
12076TIP3    H157643   5.960   2.753  16.522 -0.1526 -0.0946 -0.9386
12076TIP3    H257644   5.875   2.704  16.638  1.8200 -0.3592  0.4533
12077TIP3   OH257645   0.350   5.615  15.757  0.4347  0.1063 -0.2164
12077TIP3    H157646   0.368   5.654  15.843  0.8013 -0.2509 -0.1279
12077TIP3    H257647   0.344   5.690  15.698 -0.4398  0.3960  0.2275
12078TIP3   OH257648   1.858   3.123  14.505 -0.2069  0.1201 -0.0949
12078TIP3    H157649   1.853   3.039  14.459 -1.8633 -0.5757  1.2040
12078TIP3    H257650   1.865   3.188  14.435  2.5699 -1.0980 -1.1045
12079TIP3   OH257651   2.230   0.778  12.479 -0.7567  0.1838  0.8607
12079TIP3    H157652   2.188   0.863  12.467 -0.9228 -0.0046  0.0665
12079TIP3    H257653   2.178   0.735  12.547 -1.7633  0.0239  0.0170
12080TIP3   OH257654   1.952   5.137   5.608  0.7069 -0.0676 -0.1878
12080TIP3    H157655   1.921   5.177   5.527  1.7129  0.7412 -0.1957
12080TIP3    H257656   1.957   5.044   5.588  0.8887  0.1183 -1.0484
12081TIP3   OH257657   4.654   1.101   2.760 -0.3227 -0.4682  0.7179
12081TIP3    H157658   4.654   1.009   2.785 -0.8674 -0.7194 -0.1702
12081TIP3    H257659   4.716   1.106   2.687 -1.8685 -0.5439 -0.6317
12082TIP3   OH257660   2.989   1.641  11.500  0.3382  1.0272 -0.4215
12082TIP3    H157661   2.924   1.588  11.547  3.6213 -2.0691  1.1458
12082TIP3    H257662   2.939   1.686  11.432 -3.5886  0.0939  1.5511
12083TIP3   OH257663   6.601   5.739  15.948  0.5636 -0.6698  0.4965
12083TIP3    H157664   6.681   5.787  15.928 -0.0839 -0.7256 -2.5955
12083TIP3    H257665   6.531   5.793  15.913 -0.6580 -1.4529  1.6098
12084TIP3   OH257666   2.891   3.725   2.848 -0.1013  0.1720 -0.5168
12084TIP3    H157667   2.972   3.776   2.843  1.2329 -1.7430  0.4376
12084TIP3    H257668   2.912   3.643   2.804  0.0183 -2.1523  3.4388
12085TIP3   OH257669   6.174   3.000  11.036  0.1346  0.3908  0.0311
12085TIP3    H157670   6.258   2.978  11.074 -0.5228  0.0605  1.3733
12085TIP3    H257671   6.151   3.085  11.076 -0.5837  0.0248  0.4287
12086TIP3   OH257672   2.545   6.503  12.128 -0.8850 -0.4908  0.4042
12086TIP3    H157673   2.624   6.480  12.079  0.5286 -3.3604  3.6249
12086TIP3    H257674   2.559   6.593  12.155  1.1146 -0.7932  0.5001
12087TIP3   OH257675   4.716   5.813   4.696 -0.5013  0.5434 -0.2232
12087TIP3    H157676   4.683   5.797   4.784 -0.4445 -1.0263 -0.4554
12087TIP3    H257677   4.691   5.903   4.677 -0.6636  0.8473  1.3210
12088TIP3   OH257678   1.714   1.472   2.532 -0.6262  0.1600 -0.2380
12088TIP3    H157679   1.637   1.429   2.570  0.4489 -1.3334  0.3299
12088TIP3    H257680   1.786   1.451   2.591  0.7771 -0.8131 -2.1790
12089TIP3   OH257681   0.329   4.499   5.158  0.1010  0.0379  0.0188
12089TIP3    H157682   0.266   4.532   5.093 -0.8734 -1.4685  0.1457
12089TIP3    H257683   0.275   4.466   5.230  0.8787 -2.5952 -0.4727
12090TIP3   OH257684   3.982   0.673   4.948  0.2153  0.0123 -0.2029
12090TIP3    H157685   3.896   0.712   4.934  0.7906  2.0528  1.3893
12090TIP3    H257686   3.968   0.607   5.016 -0.1082  0.3019  0.0165
12091TIP3   OH257687   1.422   5.137  13.442 -0.0710 -0.4562 -0.5938
12091TIP3    H157688   1.403   5.230  13.431 -0.0478 -0.3849 -0.0282
12091TIP3    H257689   1.514   5.128  13.416  0.6705  0.1097  1.6329
12092TIP3   OH257690   5.277   0.181   5.937 -0.1991 -0.1277  0.8244
12092TIP3    H157691   5.309   0.259   5.893  0.0344 -0.1563  0.9423
12092TIP3    H257692   5.292   0.197   6.030  1.6527 -1.1073  0.7406
12093TIP3   OH257693   2.075   3.009   2.306  0.4288 -0.3781 -0.1041
12093TIP3    H157694   1.999   3.025   2.250  0.2536 -1.5351 -0.2211
12093TIP3    H257695   2.149   3.001   2.245  0.4876 -0.2034 -0.0578
12094TIP3   OH257696   2.204   2.819  12.747 -0.0928 -0.0410  0.5852
12094TIP3    H157697   2.230   2.884  12.682 -0.7603  0.9411  1.2711
12094TIP3    H257698   2.286   2.796  12.792 -0.0382  1.5407  1.3997
12095TIP3   OH257699   1.561   5.543   3.431 -0.1988  0.3740 -0.3721
12095TIP3    H157700   1.475   5.514   3.401 -0.5343 -0.9487  1.7240
12095TIP3    H257701   1.569   5.509   3.520  2.6799  0.0978 -0.6399
12096TIP3   OH257702   5.929   5.949   1.358 -0.1518  0.1762 -0.2100
12096TIP3    H157703   5.917   5.865   1.314 -0.1623  0.2046 -0.2630
12096TIP3    H257704   5.859   5.952   1.423  1.6347 -1.1663  1.8918
12097TIP3   OH257705   1.404   1.832  15.290  0.0378  0.1856 -0.5773
12097TIP3    H157706   1.396   1.927  15.283 -2.7126  0.0795  0.0428
12097TIP3    H257707   1.420   1.803  15.200 -0.1586  1.1588 -0.9453
12098TIP3   OH257708   0.628   1.399  12.249 -0.2455 -0.0751 -0.8298
12098TIP3    H157709   0.568   1.377  12.320 -1.1822  1.1122 -1.2236
12098TIP3    H257710   0.605   1.338  12.179 -1.6241  0.9376 -1.2903
12099TIP3   OH257711   2.570   2.781   1.499 -0.2954 -0.5954  0.3752
12099TIP3    H157712   2.660   2.791   1.468 -0.5757 -0.5587 -0.4670
12099TIP3    H257713   2.572   2.703   1.555  0.0484 -1.2432 -0.5139
12100TIP3   OH257714   0.817   2.161   3.046 -0.2806  0.3723 -0.0879
12100TIP3    H157715   0.830   2.090   2.983 -1.8952  1.0600 -1.2679
12100TIP3    H257716   0.832   2.241   2.995 -0.2745  0.9114  0.7499
12101TIP3   OH257717   6.607   4.329  17.186  0.1843  0.5199 -0.4201
12101TIP3    H157718   6.643   4.412  17.157  0.5058  0.1278 -1.1652
12101TIP3    H257719   6.583   4.283  17.106  0.4578 -0.3065 -0.0477
12102TIP3   OH257720   2.804   0.977  13.523  0.0184  0.1547  0.2204
12102TIP3    H157721   2.857   1.056  13.517  1.1400 -0.6252 -0.6563
12102TIP3    H257722   2.805   0.954  13.616  2.7629 -0.8132  0.0436
12103TIP3   OH257723   1.195   5.283  13.144  0.2544 -0.1008 -0.8737
12103TIP3    H157724   1.218   5.296  13.236  2.3039 -0.4045 -1.3090
12103TIP3    H257725   1.268   5.321  13.095 -0.1136 -1.2351 -2.3652
12104TIP3   OH257726   3.086   1.338  16.017  0.0428  0.0790 -0.1566
12104TIP3    H157727   3.100   1.328  16.111  0.1409  1.7745  0.0400
12104TIP3    H257728   3.171   1.315  15.978  1.0035  2.3257  0.4326
12105TIP3   OH257729   2.770   3.576  14.839  0.0271  0.5201 -1.0705
12105TIP3    H157730   2.774   3.509  14.908  1.5077 -0.5282 -2.1186
12105TIP3    H257731   2.859   3.609  14.832 -0.7899  3.1608 -0.1323
12106TIP3   OH257732   5.206   1.893  14.227 -0.1750  0.5380 -0.2570
12106TIP3    H157733   5.162   1.855  14.303  1.1486 -0.6760 -0.0682
12106TIP3    H257734   5.179   1.838  14.153  0.7022  0.0294 -0.2029
12107TIP3   OH257735   0.864   0.382  12.559  0.6671 -0.5745  0.0240
12107TIP3    H157736   0.919   0.317  12.604 -1.4224 -1.9075  0.7904
12107TIP3    H257737   0.808   0.330  12.501  0.4705  0.7753 -1.0383
12108TIP3   OH257738   3.411   0.246  13.217 -0.8060 -0.3488 -0.0396
12108TIP3    H157739   3.433   0.248  13.311 -1.1194  0.9040  0.0228
12108TIP3    H257740   3.496   0.248  13.173 -0.6183 -1.7988  0.1909
12109TIP3   OH257741   3.765   2.531  12.251  0.7345  0.1492 -0.3613
12109TIP3    H157742   3.743   2.454  12.303  2.1215 -0.9283 -1.3025
12109TIP3    H257743   3.836   2.574  12.299  0.8227  0.1353 -0.4794
12110TIP3   OH257744   0.352   2.255  17.015  0.9032 -0.2333  0.0607
12110TIP3    H157745   0.306   2.176  17.042 -2.5894  1.1583 -1.2193
12110TIP3    H257746   0.285   2.323  17.015  2.7131  1.7914 -3.0146
12111TIP3   OH257747   5.616   3.199  14.598  0.3187 -0.8709  0.1932
12111TIP3    H157748   5.588   3.117  14.639 -4.3487 -0.0100 -0.6509
12111TIP3    H257749   5.637   3.257  14.671 -1.4316 -1.3221  1.1063
12112TIP3   OH257750   0.397   4.077   1.105  0.5605 -0.0598 -0.1159
12112TIP3    H157751   0.349   4.141   1.158 -0.0389 -0.4223 -0.2019
12112TIP3    H257752   0.417   4.123   1.024 -1.9295 -0.6500 -1.1555
12113TIP3   OH257753   2.629   0.621  15.333  0.0732  0.3898 -0.5592
12113TIP3    H157754   2.535   0.634  15.323 -0.1771 -1.4206 -0.9509
12113TIP3    H257755   2.655   0.683  15.401 -1.4600  0.6771 -0.2060
12114TIP3   OH257756   4.028   2.821  15.908 -0.1813  0.0970  0.1674
12114TIP3    H157757   4.005   2.735  15.872  1.0333 -0.3496  0.4148
12114TIP3    H257758   4.044   2.875  15.831  0.4955 -0.3161  0.0076
12115TIP3   OH257759   6.330   1.223   0.956  0.0520 -0.2980  0.2482
12115TIP3    H157760   6.363   1.179   0.878  2.1983  1.1992  0.2180
12115TIP3    H257761   6.315   1.313   0.929  2.8645  0.8153  1.9372
12116TIP3   OH257762   2.936   5.355   3.136  0.1707 -0.0520 -0.0541
12116TIP3    H157763   2.946   5.264   3.164 -1.8556  0.3284  2.2927
12116TIP3    H257764   3.023   5.393   3.146  0.4505 -1.0649  1.7133
12117TIP3   OH257765   0.118   4.848   4.807 -0.8022  0.7069  0.5775
12117TIP3    H157766   0.200   4.866   4.762 -0.8553 -2.1835 -0.8694
12117TIP3    H257767   0.053   4.901   4.760 -0.4816 -0.5857 -1.4125
12118TIP3   OH257768   4.157   6.529   3.134 -0.5088 -0.0189 -0.4064
12118TIP3    H157769   4.199   6.608   3.166  0.1823 -0.6614  0.3290
12118TIP3    H257770   4.222   6.489   3.075 -0.2681 -0.7572  0.3389
12119TIP3   OH257771   3.884   4.165  15.151  0.5350  0.1815 -0.2792
12119TIP3    H157772   3.819   4.104  15.117 -0.4719  0.0457  1.7583
12119TIP3    H257773   3.963   4.147  15.100 -0.5903 -0.6834 -1.7870
12120TIP3   OH257774   2.679   0.419  11.959  0.2270 -0.2718 -0.3459
12120TIP3    H157775   2.680   0.324  11.966  0.3821 -0.2181  0.5370
12120TIP3    H257776   2.770   0.443  11.943 -0.0658 -0.3651 -2.3703
12121TIP3   OH257777   1.502   5.359   4.452 -0.4883  0.6721 -0.4695
12121TIP3    H157778   1.424   5.411   4.434 -0.5306  0.6259 -0.4221
12121TIP3    H257779   1.524   5.379   4.543 -1.8227 -1.0894  0.2827
12122TIP3   OH257780   6.757   4.135   2.374 -0.3084  0.2719  0.6027
12122TIP3    H157781   6.784   4.158   2.286 -0.7121  0.5103  0.5383
12122TIP3    H257782   6.806   4.193   2.431 -0.6720  0.6943  0.4884
12123TIP3   OH257783   5.009   3.076   1.185 -0.7406  0.4989 -0.6807
12123TIP3    H157784   4.990   3.169   1.196 -1.3048  0.3228 -0.1088
12123TIP3    H257785   5.099   3.073   1.154 -0.8897  1.2602 -1.1994
12124TIP3   OH257786   1.772   5.849   0.655 -0.0766 -0.3552  0.0245
12124TIP3    H157787   1.749   5.773   0.600 -1.2336 -0.1727  0.2368
12124TIP3    H257788   1.812   5.911   0.594 -0.5362 -0.5147 -0.4508
12125TIP3   OH257789   1.227   1.313   1.078 -0.0258 -0.2628  0.3688
12125TIP3    H157790   1.220   1.218   1.088  0.9194 -0.4174 -0.2739
12125TIP3    H257791   1.314   1.327   1.040 -0.3482  0.8236 -0.0179
12126TIP3   OH257792   0.355   2.250   5.613 -0.6237  0.2726  0.6712
12126TIP3    H157793   0.263   2.278   5.609 -0.9125 -0.7324 -0.5326
12126TIP3    H257794   0.358   2.190   5.688 -1.0556  0.0134  0.4883
12127TIP3   OH257795   6.210   6.199   2.191  0.6232 -0.4643  0.3567
12127TIP3    H157796   6.284   6.230   2.243  0.1576  0.9099  0.2253
12127TIP3    H257797   6.137   6.193   2.254 -0.0152  1.4761 -0.1458
12128TIP3   OH257798   1.495   4.528  14.043 -0.0504  0.2890 -0.2796
12128TIP3    H157799   1.515   4.487  13.959 -1.4305 -0.5571 -0.2138
12128TIP3    H257800   1.405   4.559  14.035  0.4697  2.0803  0.1803
12129TIP3   OH257801   4.242   4.579   5.540  0.2223  0.1333  0.1830
12129TIP3    H157802   4.190   4.522   5.484  1.7911 -1.1575 -0.0534
12129TIP3    H257803   4.181   4.646   5.570 -1.1490 -0.3370 -1.3914
12130TIP3   OH257804   4.723   3.735  11.614 -0.4905 -0.5914  0.4704
12130TIP3    H157805   4.782   3.694  11.552 -0.6595 -0.7559  0.4168
12130TIP3    H257806   4.637   3.698  11.594 -0.6060 -0.3839  0.5719
12131TIP3   OH257807   3.657   5.566  12.523 -0.5638  0.0942 -0.3987
12131TIP3    H157808   3.673   5.654  12.558  0.2760 -0.1046 -0.2679
12131TIP3    H257809   3.562   5.562  12.513 -0.7613  0.4656  1.0686
12132TIP3   OH257810   4.712   0.754   4.076  0.1108  0.5449  0.2398
12132TIP3    H157811   4.678   0.833   4.033  0.4490  0.4186 -0.2664
12132TIP3    H257812   4.680   0.682   4.022 -1.8346  0.1813  1.7649
12133TIP3   OH257813   6.335   3.058   1.612  0.4546  0.6396  0.3344
12133TIP3    H157814   6.390   3.045   1.535  0.6257 -0.7897  0.6695
12133TIP3    H257815   6.385   3.021   1.684 -0.6498 -0.0664  0.7574
12134TIP3   OH257816   2.355   2.301  15.515  0.2246  0.2621 -0.8703
12134TIP3    H157817   2.361   2.213  15.478 -0.7767 -0.7493  1.1972
12134TIP3    H257818   2.373   2.360  15.441 -0.3539 -1.6292 -2.6055
12135TIP3   OH257819   2.083   5.249   0.873 -0.3896 -0.3553 -0.2250
12135TIP3    H157820   2.112   5.339   0.857 -0.1863 -0.5677 -1.1376
12135TIP3    H257821   2.004   5.240   0.821 -0.6866 -0.5589  0.2556
12136TIP3   OH257822   2.859   4.021  13.551  0.5998 -0.7111  0.3536
12136TIP3    H157823   2.827   4.092  13.495  1.5184  0.1534  0.8936
12136TIP3    H257824   2.844   4.052  13.640 -0.2561 -1.8043  0.6111
12137TIP3   OH257825   1.244   1.614  10.448 -0.0339  0.1076 -0.1372
12137TIP3    H157826   1.339   1.625  10.439 -0.1176  2.0553  0.8000
12137TIP3    H257827   1.210   1.703  10.446 -2.1321 -0.6581 -2.8197
12138TIP3   OH257828   6.322   1.385   4.431  0.7107  0.1101 -0.5519
12138TIP3    H157829   6.393   1.421   4.484  0.6630 -1.4874  0.6906
12138TIP3    H257830   6.287   1.459   4.382  2.6331  1.0944 -0.4976
12139TIP3   OH257831   5.437   3.828   4.268 -0.4608 -0.1321  0.1914
12139TIP3    H157832   5.515   3.881   4.253  0.6471 -1.2551  1.7015
12139TIP3    H257833   5.453   3.784   4.351 -2.6571 -0.5096  0.4755
12140TIP3   OH257834   0.268   5.401  16.611 -0.9599 -0.2412 -0.0244
12140TIP3    H157835   0.243   5.488  16.643 -1.4135 -0.5955  0.6096
12140TIP3    H257836   0.282   5.350  16.691  0.8694 -0.3288 -0.3678
12141TIP3   OH257837   0.779   0.010   2.565  0.3060  0.0976  0.3617
12141TIP3    H157838   0.769  -0.028   2.653  0.6638 -1.6147 -0.2927
12141TIP3    H257839   0.865   0.053   2.568 -0.8233  2.4634  1.6375
12142TIP3   OH257840   1.854   2.687   1.634 -0.1785  0.6024 -0.0399
12142TIP3    H157841   1.867   2.771   1.678 -1.1349  0.6553  0.1673
12142TIP3    H257842   1.940   2.645   1.637  0.4319  1.7608 -0.5669
12143TIP3   OH257843   1.298   6.258   5.470  0.2909  0.3081 -0.1897
12143TIP3    H157844   1.359   6.237   5.541  1.4011  0.2802 -1.1219
12143TIP3    H257845   1.300   6.353   5.463 -0.8871  0.4219  0.7087
12144TIP3   OH257846   5.594   4.313  15.672 -0.3073  0.2167  0.0188
12144TIP3    H157847   5.587   4.217  15.670  0.1946  0.1778 -0.0117
12144TIP3    H257848   5.511   4.342  15.709 -0.0292 -0.2793  1.0504
12145TIP3   OH257849   4.248   5.649   1.942  0.0855  0.4502 -0.3821
12145TIP3    H157850   4.300   5.587   1.993  0.5595  1.5225  0.4527
12145TIP3    H257851   4.204   5.703   2.007  1.9176  2.8780 -1.0458
12146TIP3   OH257852   0.253   5.315  15.370  0.4954 -0.7723  0.1492
12146TIP3    H157853   0.170   5.364  15.369  0.5605 -0.6062  1.4943
12146TIP3    H257854   0.234   5.236  15.419  1.0052 -0.9974 -0.0119
12147TIP3   OH257855   6.069   3.817  16.481 -0.6490 -0.2046 -0.1738
12147TIP3    H157856   6.025   3.772  16.554 -1.4310  0.6637 -0.0918
12147TIP3    H257857   6.157   3.833  16.512 -1.2466  1.0225  0.9879
12148TIP3   OH257858   1.281   6.648   0.583  0.3814 -0.6847 -0.0196
12148TIP3    H157859   1.214   6.661   0.516  0.7784 -1.6197 -0.6169
12148TIP3    H257860   1.360   6.687   0.545  0.7512 -1.7471 -0.3618
12149TIP3   OH257861   1.262   6.349  14.658  0.6471 -0.5366 -0.1772
12149TIP3    H157862   1.184   6.379  14.610  0.3439  2.0561  1.7059
12149TIP3    H257863   1.227   6.304  14.734  1.0278 -0.7102 -0.1034
12150TIP3   OH257864   0.628   1.119   2.073  0.2171 -0.3811  0.2135
12150TIP3    H157865   0.586   1.089   2.154 -0.2736 -1.1729 -0.3150
12150TIP3    H257866   0.673   1.042   2.039 -1.0910 -0.5956 -1.1861
12151TIP3   OH257867   0.991   4.466  14.312  0.0459 -0.5341  0.4632
12151TIP3    H157868   1.034   4.518  14.381  1.4937 -0.6348 -0.3193
12151TIP3    H257869   0.910   4.513  14.293 -0.2591 -0.3665  2.0538
12152TIP3   OH257870   3.362   3.936   0.369 -0.1997 -0.1227  0.1750
12152TIP3    H157871   3.407   3.865   0.325 -1.3489 -0.3169 -0.7181
12152TIP3    H257872   3.276   3.901   0.392 -0.0133  0.3000  1.6729
12153TIP3   OH257873   2.029   1.872  15.053  0.2813 -0.1773  0.4456
12153TIP3    H157874   2.027   1.829  15.139 -3.4885 -1.0865  0.0669
12153TIP3    H257875   1.979   1.952  15.065  1.0251  0.4728 -0.6084
12154TIP3   OH257876   6.593   5.792  13.867 -0.1989  0.3747  0.3192
12154TIP3    H157877   6.567   5.884  13.870  0.7536  0.6359  2.0973
12154TIP3    H257878   6.576   5.760  13.956 -1.2360 -1.4080 -0.4613
12155TIP3   OH257879   0.465   6.675  17.215 -0.3778 -0.1430 -0.2960
12155TIP3    H157880   0.465   6.731  17.292  1.4926  2.3014 -1.9111
12155TIP3    H257881   0.551   6.634  17.215 -0.7326 -0.9052 -0.5713
12156TIP3   OH257882   5.984   5.153  14.604 -0.0201  0.6069 -0.4702
12156TIP3    H157883   5.973   5.060  14.585  1.5840  0.2679  0.0646
12156TIP3    H257884   6.065   5.157  14.656 -1.0638  2.0959  1.1554
12157TIP3   OH257885   1.132   0.359   5.581  0.5644  0.2900 -0.2956
12157TIP3    H157886   1.161   0.446   5.555  2.3378  0.2538  1.3874
12157TIP3    H257887   1.098   0.370   5.669 -2.3403 -0.1750 -1.2577
12158TIP3   OH257888   3.079   5.489  13.013  0.5309  0.4597  0.0967
12158TIP3    H157889   2.999   5.508  13.062  0.5189  0.3274  0.1298
12158TIP3    H257890   3.062   5.521  12.924  0.6868  1.0274  0.2684
12159TIP3   OH257891   6.759   6.391   4.060  0.1685  0.1621 -0.4898
12159TIP3    H157892   6.849   6.421   4.068 -0.2254  1.2107  0.1439
12159TIP3    H257893   6.721   6.448   3.993 -0.0174 -0.3129 -0.7924
12160TIP3   OH257894   6.412   6.717   3.554 -0.6786 -0.1533 -0.1714
12160TIP3    H157895   6.360   6.682   3.626 -0.4015  1.2964  0.7706
12160TIP3    H257896   6.503   6.708   3.584 -0.4495 -1.1099 -1.0856
12161TIP3   OH257897   3.442   0.465  11.286 -0.1350 -0.1235  0.2068
12161TIP3    H157898   3.425   0.548  11.332 -1.1962 -0.5560  0.6285
12161TIP3    H257899   3.516   0.426  11.333 -0.7848 -0.2505  1.1502
12162TIP3   OH257900   2.221   2.077   0.896  0.0133  0.0792  0.0918
12162TIP3    H157901   2.227   2.043   0.986  0.1829 -0.1449 -0.0036
12162TIP3    H257902   2.277   2.019   0.845 -0.5301 -0.1371 -0.2602
12163TIP3   OH257903   6.729   4.943   1.224  0.4839  0.1186  0.2759
12163TIP3    H157904   6.761   4.992   1.299 -0.4109 -0.7424  1.2508
12163TIP3    H257905   6.656   4.995   1.190  1.0455  0.6316 -0.1694
12164TIP3   OH257906   3.578   1.703   0.617 -0.7197 -0.0337 -0.8050
12164TIP3    H157907   3.569   1.756   0.537 -0.2760 -1.3042 -1.7346
12164TIP3    H257908   3.552   1.615   0.590 -0.7835 -0.4416  0.5260
12165TIP3   OH257909   0.484   3.520  15.291  0.1868  0.3990  0.3760
12165TIP3    H157910   0.442   3.460  15.230 -1.0759  1.0265  0.5923
12165TIP3    H257911   0.429   3.518  15.369  1.0215  0.6359  0.9921
12166TIP3   OH257912   4.935   4.497   5.247 -0.5806 -0.2420 -0.0590
12166TIP3    H157913   4.960   4.467   5.335  0.1232  0.8142  0.1248
12166TIP3    H257914   5.001   4.562   5.225  0.3013 -1.7430 -2.1283
12167TIP3   OH257915   3.943   1.497  11.514 -0.0882 -0.0641 -0.4801
12167TIP3    H157916   3.936   1.530  11.604 -0.6230 -0.2029 -0.4700
12167TIP3    H257917   3.856   1.463  11.494  0.2029 -0.6211 -0.8234
12168TIP3   OH257918   6.540   5.990  11.987 -0.0926  0.2848  0.2778
12168TIP3    H157919   6.565   5.920  11.927 -1.3988 -1.5074  1.7176
12168TIP3    H257920   6.510   6.061  11.931  1.5232 -0.1544 -1.2326
12169TIP3   OH257921   6.389   0.800  17.038 -0.6681 -0.5775 -0.4916
12169TIP3    H157922   6.390   0.777  16.945 -1.2935 -0.3291 -0.5601
12169TIP3    H257923   6.479   0.785  17.067  0.2296  1.8077 -1.7534
12170TIP3   OH257924   5.175   4.728   3.095 -0.5473  0.6706  0.7382
12170TIP3    H157925   5.164   4.657   3.157 -0.0159  0.1301  0.2284
12170TIP3    H257926   5.264   4.760   3.110 -0.7435  1.1544  0.8861
12171TIP3   OH257927   5.420   3.566  14.925  0.2217 -0.0334  0.1029
12171TIP3    H157928   5.489   3.537  14.866 -0.2609 -1.3709  0.1776
12171TIP3    H257929   5.467   3.603  15.000  0.8520 -0.4326 -0.0893
12172TIP3   OH257930   3.573   5.299  14.442 -0.0522 -0.3117 -0.3582
12172TIP3    H157931   3.619   5.340  14.368  0.6537 -1.9572 -0.8755
12172TIP3    H257932   3.597   5.207  14.437 -0.4312 -0.5581  1.6391
12173TIP3   OH257933   4.818   0.809  12.018 -0.3262  0.2795 -0.0599
12173TIP3    H157934   4.728   0.786  12.044  0.2716 -0.0383  1.8766
12173TIP3    H257935   4.866   0.726  12.022  0.1237  0.4985 -0.8001
12174TIP3   OH257936   2.108   0.655   1.093  0.4499  0.5552 -0.6622
12174TIP3    H157937   2.101   0.573   1.042 -0.9047 -1.0611  1.9164
12174TIP3    H257938   2.036   0.709   1.061 -0.0021 -0.1677 -0.8871
12175TIP3   OH257939   3.283   1.333  16.389 -1.1737 -0.1550  0.1418
12175TIP3    H157940   3.332   1.406  16.352 -0.8416  0.4035  1.5936
12175TIP3    H257941   3.284   1.350  16.484 -0.3629 -2.4933  0.6121
12176TIP3   OH257942   3.529   6.133   4.549 -0.0877 -0.2669 -0.4533
12176TIP3    H157943   3.504   6.168   4.634  0.0417  2.1483 -1.3286
12176TIP3    H257944   3.621   6.158   4.539 -0.6047  1.2136 -2.0452
12177TIP3   OH257945   1.412   5.804   5.978  0.0664 -0.2485 -0.4997
12177TIP3    H157946   1.404   5.888   6.023  0.8897  0.0984 -0.9865
12177TIP3    H257947   1.500   5.773   6.001  0.3717 -0.2233 -1.5946
12178TIP3   OH257948   5.822   1.029  13.310  0.3081  0.0745  0.2890
12178TIP3    H157949   5.845   1.092  13.378  1.1854 -1.4216  1.4467
12178TIP3    H257950   5.769   0.963  13.356  0.0451 -0.4352 -0.7236
12179TIP3   OH257951   6.002   4.907  14.920  0.8174 -0.1313 -0.5074
12179TIP3    H157952   6.013   4.903  15.015 -0.2329  2.3358 -0.2140
12179TIP3    H257953   6.044   4.989  14.894  1.1144 -0.7775 -2.1993
12180TIP3   OH257954   6.121   3.802   1.406 -0.1206  0.4831 -0.5749
12180TIP3    H157955   6.192   3.858   1.436 -0.4559  0.6640 -0.0891
12180TIP3    H257956   6.141   3.716   1.444 -0.4390  0.6641  0.0205
12181TIP3   OH257957   4.246   3.981  13.017 -0.2035 -0.1166 -0.1469
12181TIP3    H157958   4.287   4.063  13.044  1.8105 -1.4787  1.1532
12181TIP3    H257959   4.160   3.983  13.059 -0.7353  1.8638 -1.1962
12182TIP3   OH257960   3.575   2.397   0.540  0.2273 -0.0268 -0.4832
12182TIP3    H157961   3.520   2.334   0.494  0.8855  0.8321 -2.5418
12182TIP3    H257962   3.665   2.370   0.522  0.5077  0.5611 -0.0210
12183TIP3   OH257963   2.313   3.092  12.615 -0.6258  0.5444  0.1317
12183TIP3    H157964   2.330   3.084  12.709 -0.5074  2.0138  0.2591
12183TIP3    H257965   2.391   3.135  12.580 -0.2731 -0.8223 -0.8121
12184TIP3   OH257966   4.273   1.523  15.560  0.5389  0.1269  0.8011
12184TIP3    H157967   4.315   1.471  15.629  0.3089 -0.8193  0.2508
12184TIP3    H257968   4.212   1.579  15.607  1.2137  0.3254  1.4609
12185TIP3   OH257969   3.518   2.786  12.038 -0.1977  0.2651  0.0044
12185TIP3    H157970   3.528   2.870  11.993 -0.9731  1.0344  1.2124
12185TIP3    H257971   3.436   2.795  12.086  1.0680 -0.1034  2.3817
12186TIP3   OH257972   0.995   1.068  15.920  0.3486 -0.0896  0.2417
12186TIP3    H157973   0.940   1.042  15.993  0.7570 -0.7626  0.3156
12186TIP3    H257974   1.031   1.153  15.947 -1.4502  0.8884 -0.2638
12187TIP3   OH257975   4.778   1.332  13.825  0.0225  0.0173 -0.5262
12187TIP3    H157976   4.742   1.319  13.913 -1.4166 -0.4801 -1.1565
12187TIP3    H257977   4.820   1.418  13.829 -0.8733  0.4332  0.3808
12188TIP3   OH257978   4.723   3.559   3.293  0.0153  0.0297  0.2599
12188TIP3    H157979   4.649   3.589   3.346 -1.0165 -1.3629 -0.3421
12188TIP3    H257980   4.745   3.472   3.329  1.7256  0.6174  0.7692
12189TIP3   OH257981   1.580   5.415   3.676  0.1562 -0.0350  0.4530
12189TIP3    H157982   1.577   5.319   3.669 -1.9991  0.0141  0.1017
12189TIP3    H257983   1.575   5.432   3.770  0.7511 -0.2416  0.5306
12190TIP3   OH257984   1.804   0.592  17.225  0.1114 -0.2431  0.3942
12190TIP3    H157985   1.712   0.586  17.248 -0.3481  1.1926 -0.9076
12190TIP3    H257986   1.850   0.594  17.309 -1.0876 -0.3397  1.0659
12191TIP3   OH257987   6.297   0.994   0.386 -0.2174 -0.6298 -0.0041
12191TIP3    H157988   6.224   1.050   0.360 -0.6099 -1.2886 -0.3654
12191TIP3    H257989   6.303   0.929   0.316 -1.7351 -2.8583  1.7438
12192TIP3   OH257990   5.287   4.931  13.057  0.1329 -0.7958 -0.2834
12192TIP3    H157991   5.281   4.851  13.006 -1.0743 -1.4235  0.7974
12192TIP3    H257992   5.199   4.945  13.092  0.8489 -0.3089  1.4781
12193TIP3   OH257993   1.688   2.198  11.274 -0.1794 -0.0338 -0.2787
12193TIP3    H157994   1.763   2.140  11.273 -1.5254 -1.8735 -0.4317
12193TIP3    H257995   1.629   2.160  11.339 -1.1393  1.1403 -0.4209
12194TIP3   OH257996   0.821   3.389  15.589 -0.7452  0.4433  0.3549
12194TIP3    H157997   0.771   3.357  15.664 -0.3841  1.4543  1.0614
12194TIP3    H257998   0.807   3.484  15.590  1.2107  0.7627  0.6053
12195TIP3   OH257999   2.530   3.774   0.459 -0.0929 -0.2258  0.2600
12195TIP3    H158000   2.601   3.822   0.500  0.2214 -0.2481 -0.2552
12195TIP3    H258001   2.454   3.833   0.467  0.4768  0.7422 -1.1200
12196TIP3   OH258002   5.369   2.632  11.644  0.7071  0.0157 -0.3382
12196TIP3    H158003   5.298   2.676  11.691 -0.3278 -0.5851 -1.2668
12196TIP3    H258004   5.430   2.605  11.712  1.0913  2.3462  0.3049
12197TIP3   OH258005   6.062   1.575  11.014 -0.4004 -0.1806  0.3096
12197TIP3    H158006   6.126   1.641  10.990  1.0336 -0.3333  3.2006
12197TIP3    H258007   5.990   1.624  11.053 -0.6875 -0.1798 -0.2131
12198TIP3   OH258008   6.382   5.500   2.764  0.2618 -0.1523  0.3508
12198TIP3    H158009   6.304   5.528   2.811 -0.9570  0.3021 -1.7867
12198TIP3    H258010   6.393   5.565   2.694  1.0676 -1.5603 -0.9086
12199TIP3   OH258011   6.153   0.232  13.041  0.6623  0.3464 -0.1933
12199TIP3    H158012   6.204   0.173  12.985 -0.8274 -0.6281 -0.6063
12199TIP3    H258013   6.117   0.174  13.108  0.5807  1.1078  0.4235
12200TIP3   OH258014   0.639   2.931  14.072 -0.1427  0.3671  0.2373
12200TIP3    H158015   0.586   2.977  14.007 -0.2642 -1.0161 -0.6833
12200TIP3    H258016   0.698   2.875  14.021  1.0123  0.5620  1.2847
12201TIP3   OH258017   2.339   1.689   2.393  0.3114  0.4956  0.1378
12201TIP3    H158018   2.417   1.676   2.339 -0.3013 -1.4894 -0.3379
12201TIP3    H258019   2.268   1.650   2.342 -1.3612  3.5798 -0.1583
12202TIP3   OH258020   4.427   0.037   2.531 -0.0665  0.4775  0.0339
12202TIP3    H158021   4.426  -0.049   2.490  1.6853  0.3364  0.2145
12202TIP3    H258022   4.518   0.066   2.524 -0.2226  1.4917  1.6798
12203TIP3   OH258023   1.190   2.881   3.498  0.1138 -0.0637  0.1019
12203TIP3    H158024   1.279   2.854   3.477  0.6438  2.7587 -1.9512
12203TIP3    H258025   1.199   2.943   3.571 -0.2829 -0.4580  0.4923
12204TIP3   OH258026   6.202   0.377   2.161  0.1019 -0.1379  0.3876
12204TIP3    H158027   6.144   0.409   2.231  0.5592  1.0661  0.2377
12204TIP3    H258028   6.245   0.456   2.128  0.7720 -0.8457 -0.4634
12205TIP3   OH258029   0.420   2.002  13.442  0.5671  0.2173 -0.4026
12205TIP3    H158030   0.461   2.075  13.394 -1.6057  0.7042 -1.6352
12205TIP3    H258031   0.337   1.988  13.398  0.0224 -1.6951  1.1043
12206TIP3   OH258032   2.329   4.526   1.804 -0.0515  0.4340 -0.5085
12206TIP3    H158033   2.377   4.548   1.725  0.2612  0.7494 -0.2314
12206TIP3    H258034   2.390   4.542   1.876  0.6904 -2.6230 -0.3259
12207TIP3   OH258035   5.133   6.338  13.639  0.0504  0.1716 -0.0997
12207TIP3    H158036   5.123   6.380  13.724  1.2117 -1.7667  1.0901
12207TIP3    H258037   5.218   6.367  13.607  0.4879 -0.5904  0.3411
12208TIP3   OH258038   2.290   3.642   0.120 -0.2523 -0.7583  0.3576
12208TIP3    H158039   2.239   3.572   0.080 -0.2875 -0.3284 -0.3546
12208TIP3    H258040   2.378   3.605   0.131  0.7653  0.1830 -3.3446
12209TIP3   OH258041   0.011   1.468  15.608 -0.0213 -0.0388  0.5336
12209TIP3    H158042   0.064   1.417  15.547  0.2961  0.2740  0.5478
12209TIP3    H258043   0.072   1.495  15.676 -0.2251  0.2229  0.6125
12210TIP3   OH258044   4.228   5.753  16.619 -0.5707  0.0265 -0.3474
12210TIP3    H158045   4.242   5.684  16.555 -1.2187  0.6957 -1.2188
12210TIP3    H258046   4.228   5.834  16.568  0.9982  0.7723  0.7473
12211TIP3   OH258047   6.145   3.709  13.787  0.7132 -0.0699  0.1417
12211TIP3    H158048   6.051   3.722  13.805  0.1771 -1.4235 -1.4344
12211TIP3    H258049   6.188   3.739  13.866 -1.1129 -0.1278  1.2318
12212TIP3   OH258050   6.233   5.927   5.545  0.8009 -0.3891  0.2525
12212TIP3    H158051   6.326   5.903   5.539  0.5838 -1.3241  0.3919
12212TIP3    H258052   6.230   5.996   5.611  1.3994 -0.3278  0.2228
12213TIP3   OH258053   2.831   6.578  13.412 -0.0050 -0.4146  0.1484
12213TIP3    H158054   2.926   6.583  13.421  0.0944 -2.0409  0.4000
12213TIP3    H258055   2.816   6.497  13.363 -1.1109  1.9683 -3.9480
12214TIP3   OH258056   0.900   5.330  14.390  0.1479  0.5901  0.0911
12214TIP3    H158057   0.863   5.418  14.401 -2.7737 -0.4685 -0.3408
12214TIP3    H258058   0.862   5.299  14.308  1.8518 -0.7711 -0.2274
12215TIP3   OH258059   1.910   0.055  14.488 -0.0422  0.0386  0.5288
12215TIP3    H158060   1.972   0.128  14.482  1.3726 -1.1001  0.6016
12215TIP3    H258061   1.924   0.019  14.575  0.0295 -0.9493  0.1168
12216TIP3   OH258062   6.542   1.151   2.380  0.3245 -0.1107 -0.0662
12216TIP3    H158063   6.565   1.081   2.440 -0.4203 -1.2470 -1.0627
12216TIP3    H258064   6.446   1.154   2.381  0.3405  1.2429  0.3299
12217TIP3   OH258065   4.126   2.801  13.743  0.1552 -0.2416  0.2597
12217TIP3    H158066   4.196   2.864  13.758  0.4303 -0.7989  1.4413
12217TIP3    H258067   4.112   2.803  13.648  1.4793  0.1773  0.0492
12218TIP3   OH258068   3.827   1.429   3.955 -0.2418  0.2981  0.2662
12218TIP3    H158069   3.920   1.407   3.966 -0.4916 -1.0219 -0.0974
12218TIP3    H258070   3.813   1.500   4.017  0.3748 -1.3526  2.4466
12219TIP3   OH258071   3.594   0.244   5.452 -0.2420 -0.3159 -0.0303
12219TIP3    H158072   3.591   0.340   5.452  1.3368 -0.2294  1.4013
12219TIP3    H258073   3.555   0.219   5.368 -0.3176  1.5875 -0.6067
12220TIP3   OH258074   2.913   0.201  13.999 -0.2469  0.3854  0.4894
12220TIP3    H158075   2.842   0.227  14.057  0.0414 -0.0745  1.0642
12220TIP3    H258076   2.992   0.242  14.036 -0.1209  0.4144  0.1958
12221TIP3   OH258077   3.540   4.061   2.482  0.8312  0.4360 -0.1252
12221TIP3    H158078   3.558   4.145   2.524  3.2337 -0.5013  0.9044
12221TIP3    H258079   3.455   4.034   2.519  0.8381  1.6234  0.8127
12222TIP3   OH258080   3.391   2.799   6.200 -0.0819 -0.2618 -0.3783
12222TIP3    H158081   3.418   2.891   6.195  1.9261 -0.7652  0.2338
12222TIP3    H258082   3.390   2.779   6.294 -0.4243 -0.8925 -0.5086
12223TIP3   OH258083   6.542   1.457  11.671  0.3635  0.5179 -0.1043
12223TIP3    H158084   6.515   1.392  11.606  2.2080 -2.9560  2.2623
12223TIP3    H258085   6.470   1.459  11.734  0.2046  0.9446 -0.3013
12224TIP3   OH258086   3.493   2.103  15.605  0.3697  0.5707 -0.4913
12224TIP3    H158087   3.433   2.172  15.631 -0.3343 -0.2043  0.0139
12224TIP3    H258088   3.579   2.134  15.632 -0.1785  0.3229  1.7577
12225TIP3   OH258089   2.839   5.158  15.576  0.4309  0.7776 -0.0440
12225TIP3    H158090   2.821   5.230  15.516 -0.1621  1.1128  0.5202
12225TIP3    H258091   2.932   5.167  15.599  0.9994 -0.0829 -1.8382
12226TIP3   OH258092   2.091   5.850   3.497  0.2889  0.5400  0.6079
12226TIP3    H158093   2.085   5.775   3.556 -0.0080 -0.8142 -1.0913
12226TIP3    H258094   2.006   5.893   3.504  0.5522  0.9342  1.7911
12227TIP3   OH258095   4.005   3.147   0.014  0.5023 -0.4393  0.1199
12227TIP3    H158096   4.045   3.144   0.101  0.7077  1.3308  0.1218
12227TIP3    H258097   3.961   3.062   0.005  0.7684 -0.7934  1.7994
12228TIP3   OH258098   4.786   3.937   5.193 -0.2555 -0.1642  0.1727
12228TIP3    H158099   4.851   3.983   5.140  0.5253 -0.9570  0.4219
12228TIP3    H258100   4.747   4.006   5.248  0.3753  0.3201  0.0289
12229TIP3   OH258101   0.956   6.445  16.140  0.5142 -0.0797 -0.6648
12229TIP3    H158102   0.995   6.361  16.118 -0.7802 -0.4847 -1.5110
12229TIP3    H258103   1.023   6.510  16.117  1.5905 -0.8493  0.1551
12230TIP3   OH258104   0.546   2.153  15.986  0.2100 -0.3867 -0.1120
12230TIP3    H158105   0.610   2.125  16.052 -1.9754 -2.3949  1.3218
12230TIP3    H258106   0.470   2.180  16.037 -0.6544  0.4997 -1.7890
12231TIP3   OH258107   1.827   2.275  13.405 -0.1049 -0.3761 -0.3883
12231TIP3    H158108   1.915   2.287  13.370 -0.1386  0.0882 -0.3114
12231TIP3    H258109   1.801   2.188  13.374 -0.3703  0.2661 -2.0540
12232TIP3   OH258110   5.110   4.526   4.280  0.3194  0.4177 -0.0174
12232TIP3    H158111   5.121   4.435   4.308  1.1870  0.5947  0.2469
12232TIP3    H258112   5.199   4.556   4.260  0.3620  1.9021  2.1236
12233TIP3   OH258113   0.848   6.383   2.416  0.2387 -0.0997 -0.1437
12233TIP3    H158114   0.835   6.478   2.425  0.1623  0.0198 -1.3495
12233TIP3    H258115   0.899   6.358   2.493  2.2419  1.3152 -0.9434
12234TIP3   OH258116   2.848   1.390  13.234 -0.8165  0.1779 -0.2876
12234TIP3    H158117   2.894   1.373  13.151  0.1676  0.9003  0.0889
12234TIP3    H258118   2.877   1.320  13.292 -0.6338  0.3060 -0.2233
12235TIP3   OH258119   5.203   2.625  11.421 -0.4252 -0.1037  1.0465
12235TIP3    H158120   5.243   2.604  11.337  0.2899 -3.9309  2.1624
12235TIP3    H258121   5.272   2.671  11.469 -0.1637  0.3676  0.2382
12236TIP3   OH258122   1.604   4.129   3.786  0.0234  0.1200  0.2184
12236TIP3    H158123   1.664   4.086   3.847 -1.0059  0.5430  1.5758
12236TIP3    H258124   1.631   4.221   3.787  0.4959  0.0065 -0.6003
12237TIP3   OH258125   0.916   4.136   0.753  0.2874 -0.2351 -0.2998
12237TIP3    H158126   0.932   4.087   0.673 -0.9434 -1.5579  0.2302
12237TIP3    H258127   0.886   4.071   0.816 -2.4892  1.2893  0.1280
12238TIP3   OH258128   2.611   4.716  10.399 -0.1956 -0.2874  0.2168
12238TIP3    H158129   2.647   4.775  10.466  0.1629 -1.3950  1.0212
12238TIP3    H258130   2.537   4.673  10.441 -0.0637 -0.8838 -0.1478
12239TIP3   OH258131   4.967   5.709   5.259 -0.2521  0.6742 -0.2557
12239TIP3    H158132   5.049   5.737   5.301  0.4482 -0.6643 -0.6587
12239TIP3    H258133   4.996   5.652   5.187 -1.5433  0.1761 -0.4021
12240TIP3   OH258134   1.245   0.520   6.374  0.1036  0.3951 -0.5064
12240TIP3    H158135   1.284   0.460   6.310 -3.1329 -0.6643 -1.6949
12240TIP3    H258136   1.197   0.463   6.434  0.2594  1.5953  0.8041
12241TIP3   OH258137   0.197   4.143   3.103 -0.3440  0.0450 -0.3059
12241TIP3    H158138   0.205   4.119   3.196 -1.2122  1.0638  0.0556
12241TIP3    H258139   0.245   4.225   3.096  1.5011 -1.0605 -1.2434
12242TIP3   OH258140   2.092   1.097   0.995 -0.1422  0.0305  0.3020
12242TIP3    H158141   2.124   1.034   1.060 -0.0717 -2.2660 -1.8487
12242TIP3    H258142   1.997   1.097   1.006 -0.3087 -1.8552 -0.8391
12243TIP3   OH258143   6.362   0.803  12.973  0.3505  0.1875 -0.2424
12243TIP3    H158144   6.267   0.801  12.967  0.2589 -0.3013  1.1647
12243TIP3    H258145   6.381   0.873  13.035  0.6871 -2.0864  2.4248
12244TIP3   OH258146   1.122   2.094   5.999  0.1746 -0.3551  0.1366
12244TIP3    H158147   1.065   2.160   6.038  2.5753  1.1789  1.2465
12244TIP3    H258148   1.118   2.020   6.059 -0.0416  0.0395  0.6101
12245TIP3   OH258149   0.532   0.753  10.839 -0.1598 -1.0259  0.9520
12245TIP3    H158150   0.493   0.665  10.842 -1.8368 -0.3784 -0.4823
12245TIP3    H258151   0.458   0.813  10.841  0.6181  0.2540 -2.2272
12246TIP3   OH258152   2.215   5.544   2.142 -0.0268  0.4421 -0.1202
12246TIP3    H158153   2.306   5.539   2.172  0.5343  1.5977 -1.5183
12246TIP3    H258154   2.210   5.627   2.094 -1.4705 -0.2151 -1.1729
12247TIP3   OH258155   1.140   4.438   1.274  0.4875 -0.8126  0.1007
12247TIP3    H158156   1.187   4.365   1.313 -0.2894 -0.8859  0.9177
12247TIP3    H258157   1.048   4.414   1.280  0.3174 -0.6575 -1.4551
12248TIP3   OH258158   3.108   3.893  14.581 -0.0247  0.0291 -0.6185
12248TIP3    H158159   3.057   3.837  14.523  0.9031 -0.8949 -0.5810
12248TIP3    H258160   3.083   3.865  14.669  0.6940 -0.5988 -0.5993
12249TIP3   OH258161   2.354   4.641   2.978  0.1378 -0.2647  0.0454
12249TIP3    H158162   2.395   4.602   2.901 -1.2644  2.6834 -2.4234
12249TIP3    H258163   2.274   4.591   2.991 -0.1855 -0.1028 -1.1856
12250TIP3   OH258164   4.710   0.536  12.657 -0.2611  0.5051  0.6915
12250TIP3    H158165   4.803   0.557  12.643 -0.1723 -0.6107 -0.5971
12250TIP3    H258166   4.699   0.450  12.617 -1.8490  0.5761  0.9118
12251TIP3   OH258167   2.620   5.887   2.221  0.4475  0.2599 -0.2837
12251TIP3    H158168   2.539   5.910   2.176  0.0573 -0.1876  0.1744
12251TIP3    H258169   2.681   5.958   2.201  0.2051  0.1862 -1.3112
12252TIP3   OH258170   0.937   1.231  13.553 -0.4329 -0.5497 -0.1069
12252TIP3    H158171   1.017   1.258  13.598  0.3796  1.0080 -2.2903
12252TIP3    H258172   0.930   1.137  13.570  0.4012 -0.2463  2.2432
12253TIP3   OH258173   5.607   6.520  12.015  0.0185 -0.1696 -0.0020
12253TIP3    H158174   5.587   6.564  11.932 -1.1113 -2.9988 -1.3617
12253TIP3    H258175   5.548   6.559  12.079 -1.1381  0.1172 -1.2117
12254TIP3   OH258176   1.586   1.700   4.752 -0.3449 -0.2310  0.4501
12254TIP3    H158177   1.511   1.676   4.806 -0.4359  0.9265  0.8854
12254TIP3    H258178   1.651   1.731   4.815 -0.2679  0.6764 -0.0604
12255TIP3   OH258179   2.117   6.772   5.852  0.1466  0.1077  0.0018
12255TIP3    H158180   2.153   6.856   5.823 -0.9406  0.7384  0.4062
12255TIP3    H258181   2.028   6.770   5.816  0.1166 -0.8181  0.1002
12256TIP3   OH258182   3.761   6.646  11.316  0.5668 -0.1343  0.3273
12256TIP3    H158183   3.841   6.689  11.287 -0.9623  0.9056 -2.8118
12256TIP3    H258184   3.746   6.578  11.251 -1.0350 -0.3614  0.8997
12257TIP3   OH258185   2.126   5.334   5.906 -0.2285 -0.1790 -0.1497
12257TIP3    H158186   2.177   5.358   5.829  0.8970  1.1608  0.9572
12257TIP3    H258187   2.061   5.403   5.915 -0.8145 -0.7068 -0.2942
12258TIP3   OH258188   0.301   5.840   0.560 -0.0192 -0.4207  0.4314
12258TIP3    H158189   0.278   5.932   0.573  0.8231 -0.0870 -0.3319
12258TIP3    H258190   0.261   5.817   0.476  1.6832 -0.0706 -0.5059
12259TIP3   OH258191   4.053   1.808   1.911  0.3448 -0.3177  0.5870
12259TIP3    H158192   4.146   1.794   1.929  0.1801 -0.5603  1.2979
12259TIP3    H258193   4.041   1.903   1.917  0.5162 -0.3007  0.6597
12260TIP3   OH258194   0.627   5.120  12.280 -0.0617 -1.3127  0.3407
12260TIP3    H158195   0.583   5.066  12.345 -0.2646  0.1252  1.4380
12260TIP3    H258196   0.699   5.162  12.327  0.0820 -0.6081 -0.4756
12261TIP3   OH258197   6.147   5.130   4.265  0.6630 -1.1864 -0.1446
12261TIP3    H158198   6.234   5.146   4.228  1.3815  0.2628  1.9472
12261TIP3    H258199   6.159   5.140   4.360 -2.0929  0.6300  0.1255
12262TIP3   OH258200   2.793   5.707   2.136  0.0519 -0.0140  0.2286
12262TIP3    H158201   2.720   5.762   2.165  1.2769  1.1924  1.1774
12262TIP3    H258202   2.836   5.680   2.217  1.7532  0.8783 -0.3217
12263TIP3   OH258203   2.373   3.419  15.757  0.0590  0.2569 -0.6333
12263TIP3    H158204   2.315   3.352  15.794 -0.2741 -0.0358 -1.6608
12263TIP3    H258205   2.316   3.494  15.742  0.3217  0.5927  0.0078
12264TIP3   OH258206   5.337   6.108  16.718  0.3774 -0.1365  0.1268
12264TIP3    H158207   5.395   6.154  16.658 -1.1981  0.1210 -1.2563
12264TIP3    H258208   5.352   6.015  16.699 -0.6749 -0.0478 -1.2684
12265TIP3   OH258209   2.346   1.114   3.845  0.4048  0.0015  0.5978
12265TIP3    H158210   2.364   1.178   3.777  0.5029 -2.1882 -1.5822
12265TIP3    H258211   2.404   1.138   3.917  1.3940  1.5433 -0.6603
12266TIP3   OH258212   3.440   0.768  17.224 -0.1739 -0.7066 -0.0357
12266TIP3    H158213   3.404   0.695  17.274 -2.2391  0.1170 -0.2343
12266TIP3    H258214   3.403   0.846  17.265 -0.8872  0.0566 -1.9924
12267TIP3   OH258215   0.897   2.831   5.199 -0.3908 -0.4745  0.1005
12267TIP3    H158216   0.940   2.877   5.126 -1.3454 -0.7200 -0.6346
12267TIP3    H258217   0.935   2.871   5.277 -0.0340  0.4541 -0.5222
12268TIP3   OH258218   1.955   3.770   3.890 -0.0829  0.1658 -0.0729
12268TIP3    H158219   1.876   3.822   3.908 -1.4418 -1.4394 -1.0940
12268TIP3    H258220   1.994   3.755   3.976  0.0034  2.2820  0.3112
12269TIP3   OH258221   5.162   4.946  13.761 -0.0897  0.4652  0.3174
12269TIP3    H158222   5.185   4.853  13.753  1.4689  0.7960  0.6248
12269TIP3    H258223   5.193   4.986  13.679 -0.0814  0.8337  0.4979
12270TIP3   OH258224   6.002   5.271  11.580 -0.2320 -0.6481  0.1254
12270TIP3    H158225   5.965   5.197  11.629 -0.4935 -0.0806  0.7985
12270TIP3    H258226   5.947   5.279  11.503 -1.1048 -0.2593  0.7654
12271TIP3   OH258227   1.639   4.365  11.928  0.3509  0.1910 -0.5150
12271TIP3    H158228   1.574   4.412  11.876  0.1036 -0.7518 -1.0766
12271TIP3    H258229   1.710   4.348  11.866  0.6956  0.3184 -0.1627
12272TIP3   OH258230   0.951   1.710   2.072 -0.3705  0.4016 -0.4634
12272TIP3    H158231   0.897   1.773   2.120 -2.6227 -1.4230 -0.4095
12272TIP3    H258232   1.007   1.671   2.139  0.2836  1.5671 -0.3127
12273TIP3   OH258233   1.185   4.121   0.832 -0.0117 -0.1816  0.0605
12273TIP3    H158234   1.108   4.157   0.789 -0.0513 -0.4855 -0.1234
12273TIP3    H258235   1.256   4.183   0.811 -0.4697  0.8037  1.3047
12274TIP3   OH258236   1.909   4.920   4.153  0.2628  0.0034  0.0273
12274TIP3    H158237   1.837   4.952   4.207  0.1787  0.5711 -0.4140
12274TIP3    H258238   1.876   4.925   4.063  0.5172 -0.6264 -0.1034
12275TIP3   OH258239   3.245   2.949   3.437  0.1832 -0.1245 -0.3927
12275TIP3    H158240   3.321   2.984   3.485 -0.6663 -1.7462  2.3552
12275TIP3    H258241   3.279   2.871   3.394  0.6919  0.7094 -1.5411
12276TIP3   OH258242   2.629   5.103   0.136  0.2202  0.2960 -0.4097
12276TIP3    H158243   2.720   5.133   0.125  0.2058  0.1707 -0.9063
12276TIP3    H258244   2.626   5.019   0.089 -0.4109  0.7873 -1.2785
12277TIP3   OH258245   5.451   0.198  13.111  0.6869 -0.0800  0.0988
12277TIP3    H158246   5.451   0.135  13.039  1.8555  0.5849 -0.5183
12277TIP3    H258247   5.370   0.247  13.101  0.8049 -0.0463 -0.7203
12278TIP3   OH258248   2.459   1.461   2.691 -0.6675 -0.3963  0.0240
12278TIP3    H158249   2.376   1.424   2.661 -0.9766 -2.7912  3.2831
12278TIP3    H258250   2.523   1.433   2.625 -1.6135 -3.3433  0.1946
12279TIP3   OH258251   1.070   3.745  12.113  0.2479 -0.4485  0.0760
12279TIP3    H158252   1.143   3.772  12.058  0.2425  1.1838  0.8137
12279TIP3    H258253   1.109   3.691  12.181  0.4062 -1.5623 -0.8675
12280TIP3   OH258254   1.615   3.159   0.108  0.8672  0.1774 -0.1417
12280TIP3    H158255   1.556   3.127   0.176  1.8671 -0.8772  0.2527
12280TIP3    H258256   1.590   3.251   0.097 -0.1780  0.0176  0.7117
12281TIP3   OH258257   6.145   5.564  13.933 -0.2754 -0.3208 -0.6552
12281TIP3    H158258   6.154   5.623  13.858  1.1417 -0.8872 -0.9624
12281TIP3    H258259   6.155   5.476  13.896 -2.7232 -0.8342 -0.2619
12282TIP3   OH258260   2.398   1.709   3.710  0.5953 -0.2635  0.3974
12282TIP3    H158261   2.364   1.737   3.625 -0.1412 -1.0678  0.4145
12282TIP3    H258262   2.327   1.658   3.749  1.0669 -0.2262  1.3325
12283TIP3   OH258263   2.853   1.240   4.768  0.4235  0.0191 -0.2166
12283TIP3    H158264   2.777   1.206   4.816  0.2365 -1.0228 -1.1946
12283TIP3    H258265   2.902   1.291   4.833 -0.5785 -0.1372  0.6898
12284TIP3   OH258266   6.613   1.781  15.784  0.4154 -0.3695  0.5980
12284TIP3    H158267   6.579   1.861  15.822  0.5843  0.1018 -0.2119
12284TIP3    H258268   6.699   1.806  15.750  1.3735 -1.3969  2.1247
12285TIP3   OH258269   5.205   2.682  16.176 -0.0991 -0.0758 -0.6963
12285TIP3    H158270   5.268   2.667  16.246 -0.3222 -0.1047 -0.4982
12285TIP3    H258271   5.126   2.710  16.222 -0.7828 -1.7071 -0.7886
12286TIP3   OH258272   4.743   4.413   5.615 -0.0921 -0.1181  0.0321
12286TIP3    H158273   4.685   4.444   5.546  0.0766 -1.5630 -0.8025
12286TIP3    H258274   4.700   4.334   5.648 -0.5026  0.8766  2.0723
12287TIP3   OH258275   3.001   0.380  14.651 -0.3937 -0.0374  0.2929
12287TIP3    H158276   3.069   0.432  14.694 -0.9335  1.6094 -0.7337
12287TIP3    H258277   3.043   0.296  14.633  0.0546 -0.6091  3.3681
12288TIP3   OH258278   0.220   3.510   5.055  0.5551  0.1547 -0.3225
12288TIP3    H158279   0.166   3.583   5.086 -1.2108 -0.5707 -1.5113
12288TIP3    H258280   0.246   3.536   4.967 -0.9189 -0.9935 -1.1530
12289TIP3   OH258281   1.876   6.744  11.902 -0.6206 -0.0527  0.0052
12289TIP3    H158282   1.913   6.832  11.910  0.5639 -0.5196 -0.0819
12289TIP3    H258283   1.861   6.717  11.993  1.1471 -0.6092  0.1563
12290TIP3   OH258284   2.950   6.169  17.073 -0.1558 -0.3020 -0.3952
12290TIP3    H158285   2.939   6.187  16.979  0.8671 -1.5214 -0.7829
12290TIP3    H258286   2.934   6.075  17.081 -1.6486  0.0240  0.9129
12291TIP3   OH258287   4.375   6.128  13.298  0.2157  0.4248 -0.4551
12291TIP3    H158288   4.458   6.158  13.260  0.2138  0.2711 -0.5819
12291TIP3    H258289   4.310   6.150  13.231  0.3429 -0.7980 -1.0113
12292TIP3   OH258290   2.108   0.210  12.197 -0.2334 -0.0740  0.0553
12292TIP3    H158291   2.197   0.182  12.180 -0.4693  0.0570 -1.5022
12292TIP3    H258292   2.116   0.278  12.264  0.6990 -0.9290  0.8345
12293TIP3   OH258293   1.640   0.398  16.635  0.0996 -0.1240 -0.0284
12293TIP3    H158294   1.566   0.450  16.605  1.3549  0.7854 -1.7071
12293TIP3    H258295   1.620   0.379  16.727 -1.4780  1.3708 -0.0134
12294TIP3   OH258296   5.362   6.219  16.961 -0.3619 -0.3539  0.1169
12294TIP3    H158297   5.359   6.149  16.896  1.7291  0.5828 -1.0925
12294TIP3    H258298   5.408   6.291  16.917  1.2219  0.3010  2.6299
12295TIP3   OH258299   6.039   3.570   3.204 -0.5577 -0.3924  0.4759
12295TIP3    H158300   6.090   3.651   3.203 -0.6287 -0.3166  1.7033
12295TIP3    H258301   6.073   3.520   3.130 -0.3494  0.6505 -0.1553
12296TIP3   OH258302   0.765   5.136  15.489  0.0891  0.5172  0.1337
12296TIP3    H158303   0.832   5.080  15.527  0.3235  1.5226  1.2459
12296TIP3    H258304   0.724   5.082  15.421  1.1551 -0.5417  0.3116
12297TIP3   OH258305   1.296   2.733  12.916 -0.5956 -0.4839  0.0143
12297TIP3    H158306   1.354   2.760  12.986  0.6025  1.7641 -1.7057
12297TIP3    H258307   1.221   2.792  12.922 -0.9816 -0.9668  0.0172
12298TIP3   OH258308   6.368   5.357  15.508 -0.0588 -0.0562 -0.3147
12298TIP3    H158309   6.312   5.433  15.493  1.0909  0.7188 -0.8998
12298TIP3    H258310   6.411   5.375  15.592  1.5793  0.8825 -1.2898
12299TIP3   OH258311   3.468   6.638   0.022 -0.5470 -0.2865 -0.2841
12299TIP3    H158312   3.511   6.714  -0.018  0.1910 -0.9318 -0.7562
12299TIP3    H258313   3.403   6.610  -0.043  1.5994 -2.1863 -1.7730
12300TIP3   OH258314   4.357   5.765   1.254  0.1431 -0.3539 -0.1483
12300TIP3    H158315   4.284   5.738   1.198 -0.7809  3.3349 -1.0171
12300TIP3    H258316   4.334   5.731   1.340 -0.6532 -2.4356 -1.1192
12301TIP3   OH258317   2.415   2.281  12.427  0.0936  0.2824 -0.1742
12301TIP3    H158318   2.321   2.265  12.437  0.0630  1.3140  1.8303
12301TIP3    H258319   2.456   2.199  12.453 -0.2386  0.5582  1.3135
12302TIP3   OH258320   2.439   2.254  13.677 -0.0537 -0.2041  0.1786
12302TIP3    H158321   2.490   2.270  13.598 -0.2609  0.5394  0.1837
12302TIP3    H258322   2.352   2.229  13.645 -0.0667 -0.1427  0.1643
12303TIP3   OH258323   3.671   0.741   2.291  0.4705 -0.4585 -0.7460
12303TIP3    H158324   3.684   0.774   2.202  0.8013  0.5404 -0.3462
12303TIP3    H258325   3.598   0.792   2.324  1.1002  0.0200 -0.0553
12304TIP3   OH258326   3.014   1.131  13.788  0.5930 -0.2160  0.6595
12304TIP3    H158327   3.075   1.173  13.726  0.7768 -0.6206  0.5654
12304TIP3    H258328   3.070   1.085  13.849  0.3660 -1.1187  0.1978
12305TIP3   OH258329   4.084   6.009   4.445 -0.2971 -0.1452 -0.6705
12305TIP3    H158330   4.163   5.954   4.443  0.1163  0.4600 -1.3190
12305TIP3    H258331   4.089   6.055   4.528 -0.2271 -0.4746 -0.4879
12306TIP3   OH258332   0.556   1.418   6.287  0.4091  0.2862  0.4286
12306TIP3    H158333   0.625   1.475   6.321  0.1945  0.8504 -0.0647
12306TIP3    H258334   0.476   1.470   6.295  0.3619  0.4725 -0.9931
12307TIP3   OH258335   6.357   2.728  12.104  0.2335  0.3290 -0.0469
12307TIP3    H158336   6.299   2.690  12.170 -0.5281 -0.8707 -1.3432
12307TIP3    H258337   6.297   2.760  12.036  1.0314  0.3163 -0.7683
12308TIP3   OH258338   5.731   6.340   5.568  0.6353 -0.2620 -0.3521
12308TIP3    H158339   5.713   6.417   5.622  0.3322 -0.4918 -0.1192
12308TIP3    H258340   5.823   6.320   5.585  1.0000  0.6398 -1.1864
12309TIP3   OH258341   2.204   5.928  14.205 -0.4541 -0.0314 -0.1684
12309TIP3    H158342   2.261   5.963  14.137  0.4486 -0.5275  0.3194
12309TIP3    H258343   2.190   6.001  14.265  2.0837 -0.5945  1.2873
12310TIP3   OH258344   1.813   3.885   4.708 -0.3208  0.6019  0.1477
12310TIP3    H158345   1.731   3.842   4.732 -0.2815  0.5254  0.1469
12310TIP3    H258346   1.869   3.813   4.677  0.0687  0.5209  1.0173
12311TIP3   OH258347   4.948   1.805  12.099  0.2342 -0.3641  0.0904
12311TIP3    H158348   5.022   1.774  12.047 -1.4490 -2.9706 -1.0125
12311TIP3    H258349   4.967   1.776  12.188  1.2555  0.4574  0.1514
12312TIP3   OH258350   6.575   2.671   4.846 -0.3234 -0.7051  0.0123
12312TIP3    H158351   6.646   2.636   4.900 -0.4995 -1.3396 -0.1512
12312TIP3    H258352   6.618   2.695   4.764 -0.0068  0.5162  0.5098
12313TIP3   OH258353   3.759   4.920  11.528  0.3256 -0.2946 -0.1866
12313TIP3    H158354   3.796   4.931  11.616 -0.4841 -0.8687  0.2413
12313TIP3    H258355   3.713   4.836  11.532 -3.6929  1.6986  0.3129
12314TIP3   OH258356   0.737   5.635   4.999 -0.3729 -0.2613 -0.6581
12314TIP3    H158357   0.662   5.681   5.039 -0.1069 -0.4144  0.0431
12314TIP3    H258358   0.699   5.585   4.927 -0.8239  0.2698 -0.7996
12315TIP3   OH258359   3.467   2.352  14.646 -0.0421 -1.0194  0.0608
12315TIP3    H158360   3.561   2.340  14.657  0.2148 -1.1036 -1.8557
12315TIP3    H258361   3.429   2.266  14.666  0.1467 -0.7119  1.8670
12316TIP3   OH258362   0.173   3.977  14.829  0.0532  0.0528  0.2671
12316TIP3    H158363   0.176   3.909  14.762 -0.5611 -0.1123  0.4094
12316TIP3    H258364   0.264   3.988  14.856  0.0544 -1.3965  0.9385
12317TIP3   OH258365   1.041   6.271   5.881  0.7820  0.3928  0.3638
12317TIP3    H158366   0.969   6.251   5.822 -0.1561 -0.7713  1.8178
12317TIP3    H258367   1.106   6.314   5.826 -0.2702 -0.1262 -1.3714
12318TIP3   OH258368   6.777   6.547  13.543 -0.3361  0.4087  0.1642
12318TIP3    H158369   6.737   6.634  13.547  0.6566  0.8789  0.3311
12318TIP3    H258370   6.705   6.488  13.521 -0.9666  1.3121 -0.2563
12319TIP3   OH258371   4.117   0.010   0.324 -0.3069  0.2201 -0.3214
12319TIP3    H158372   4.149  -0.029   0.242 -2.9864  1.6874 -2.2233
12319TIP3    H258373   4.067  -0.061   0.366  0.2756 -0.2654 -0.4376
12320TIP3   OH258374   4.175   1.383   5.461 -0.2354 -0.2449  0.6373
12320TIP3    H158375   4.236   1.310   5.448 -0.8204 -0.6651  0.1926
12320TIP3    H258376   4.183   1.435   5.381 -0.6097 -0.4199  0.4829
12321TIP3   OH258377   3.176   5.212   0.008 -0.2758 -0.7345 -0.0301
12321TIP3    H158378   3.188   5.267  -0.070 -1.9518  0.1668  0.2978
12321TIP3    H258379   3.263   5.207   0.047  0.1072  0.9374 -0.5818
12322TIP3   OH258380   5.359   6.736  14.905 -0.2668  0.0825 -0.3230
12322TIP3    H158381   5.362   6.795  14.830 -1.2434  1.6111  0.7858
12322TIP3    H258382   5.356   6.648  14.866  0.8887  0.7480 -2.0156
12323TIP3   OH258383   0.247   1.624  15.676 -0.0975  0.2953  0.1382
12323TIP3    H158384   0.280   1.602  15.588  0.2938 -0.4250  0.4521
12323TIP3    H258385   0.319   1.600  15.735 -0.4924  0.4368  0.6832
12324TIP3   OH258386   5.474   5.954   3.834  0.3742  0.3756  0.0243
12324TIP3    H158387   5.452   5.970   3.925 -1.2755 -0.4210 -0.1945
12324TIP3    H258388   5.399   5.987   3.785 -0.0362 -1.7006 -0.8522
12325TIP3   OH258389   0.599   0.446  16.401  0.0622  0.8126  0.4980
12325TIP3    H158390   0.603   0.508  16.329  1.8617  0.3578  0.1436
12325TIP3    H258391   0.514   0.404  16.393 -0.0614  1.2992 -0.9182
12326TIP3   OH258392   6.526   1.027   5.494 -0.1152  0.1558 -0.4805
12326TIP3    H158393   6.516   0.974   5.573  2.4691 -0.5243 -0.5422
12326TIP3    H258394   6.452   1.002   5.439 -1.2508 -0.2869  1.1811
12327TIP3   OH258395   0.549   0.441   4.025  0.3675  0.8658  0.4185
12327TIP3    H158396   0.542   0.403   4.113 -1.3611  0.2576  0.0489
12327TIP3    H258397   0.626   0.498   4.030  1.5109 -0.7007  1.7361
12328TIP3   OH258398   5.754   4.567   6.345 -0.1266 -0.1186  0.3119
12328TIP3    H158399   5.706   4.639   6.385  0.9613 -0.1410  1.7532
12328TIP3    H258400   5.720   4.561   6.256  0.9386  3.3350 -0.4734
12329TIP3   OH258401   0.064   6.787  15.313 -0.4281  0.4048 -0.8299
12329TIP3    H158402   0.120   6.824  15.381 -0.7819  1.4789 -1.1030
12329TIP3    H258403   0.120   6.783  15.236 -0.2634 -0.0478 -0.6887
12330TIP3   OH258404   0.169   3.001  15.841  0.4291 -0.0765  0.6915
12330TIP3    H158405   0.085   3.029  15.877  1.8969  2.3370  2.5118
12330TIP3    H258406   0.221   2.976  15.917  2.1511  0.8199 -0.1414
12331TIP3   OH258407   0.509   3.321   5.230 -0.1033 -0.2876 -0.0764
12331TIP3    H158408   0.485   3.361   5.314 -0.8884  0.0415 -0.4446
12331TIP3    H258409   0.465   3.235   5.232 -1.4211  0.3453 -0.7829
12332TIP3   OH258410   3.881   5.150  11.700  0.5753  0.3016  0.2169
12332TIP3    H158411   3.790   5.175  11.686  0.5632  0.0829 -0.0828
12332TIP3    H258412   3.903   5.187  11.786  0.4867  1.1678 -0.1244
12333TIP3   OH258413   5.609   5.112   5.844  0.0267 -0.8455 -0.6440
12333TIP3    H158414   5.593   5.160   5.926 -1.9540 -1.1897 -0.7662
12333TIP3    H258415   5.530   5.059   5.833  1.6552 -3.3083 -1.0922
12334TIP3   OH258416   3.042   5.127  13.023 -0.1949  0.0440  0.1737
12334TIP3    H158417   3.077   5.177  12.949  1.4627  0.4336  1.1792
12334TIP3    H258418   3.003   5.049  12.982 -0.2430  0.7359 -1.1735
12335TIP3   OH258419   6.116   5.404  16.073 -0.1403  0.3316  0.0618
12335TIP3    H158420   6.080   5.480  16.119  0.4222  0.5257  0.1907
12335TIP3    H258421   6.041   5.363  16.030 -0.5121  0.7139  0.3514
12336TIP3   OH258422   5.852   0.319   0.208  0.1171  0.2666  0.1888
12336TIP3    H158423   5.850   0.255   0.279 -1.6968  1.0932  0.9339
12336TIP3    H258424   5.862   0.403   0.252 -2.0238  0.8848 -0.4071
12337TIP3   OH258425   5.943   0.806  15.730 -0.1793  0.2711 -0.6464
12337TIP3    H158426   5.898   0.873  15.782 -0.2308 -0.5274  0.3512
12337TIP3    H258427   5.890   0.727  15.742 -0.1957  0.0641 -1.9286
12338TIP3   OH258428   5.527   6.091   2.639  0.4858 -0.4391  0.4682
12338TIP3    H158429   5.596   6.078   2.574 -0.6773 -1.7513 -0.5648
12338TIP3    H258430   5.531   6.013   2.694  0.4155 -0.0813  0.9887
12339TIP3   OH258431   0.227   5.228   3.009  0.2269 -0.0655  0.4923
12339TIP3    H158432   0.204   5.222   3.101  2.5219 -3.1572  1.0429
12339TIP3    H258433   0.323   5.231   3.009  0.3841 -2.0417 -1.7437
12340TIP3   OH258434   5.963   6.367   2.035 -0.2152  0.3903 -0.2097
12340TIP3    H158435   6.016   6.353   1.956  2.6102 -1.2395  1.7814
12340TIP3    H258436   6.005   6.439   2.081 -0.7619  0.1956  0.6341
12341TIP3   OH258437   5.922   4.230   3.686  0.1541 -0.0940 -0.0841
12341TIP3    H158438   5.837   4.258   3.651  0.8388  0.2772 -1.5271
12341TIP3    H258439   5.986   4.260   3.621  1.5539  0.9886  1.6897
12342TIP3   OH258440   4.119   4.228   4.720 -0.4988 -0.1447  0.3622
12342TIP3    H158441   4.194   4.281   4.692 -1.3795  0.8806 -0.1516
12342TIP3    H258442   4.122   4.231   4.816  0.0903 -0.0759  0.3442
12343TIP3   OH258443   4.861   3.192  16.835 -0.1111  0.0642  0.0753
12343TIP3    H158444   4.904   3.110  16.861 -1.3723 -1.2173 -1.6440
12343TIP3    H258445   4.930   3.244  16.795  0.5384 -0.4939  0.4443
12344TIP3   OH258446   6.378   0.765   4.541 -0.2328 -0.0613 -0.6630
12344TIP3    H158447   6.423   0.717   4.471 -1.6536  0.1270 -1.7584
12344TIP3    H258448   6.410   0.855   4.534 -1.1442  0.2052 -1.8238
12345TIP3   OH258449   6.769   3.302  11.951 -0.2585 -0.1009 -0.1270
12345TIP3    H158450   6.815   3.385  11.965 -0.1090 -0.4913  1.9645
12345TIP3    H258451   6.694   3.325  11.896 -2.1523  2.1496  3.0601
12346TIP3   OH258452   2.792   4.838   0.676 -0.7643 -0.5435 -0.3435
12346TIP3    H158453   2.847   4.904   0.634  0.9142 -0.2976  2.0349
12346TIP3    H258454   2.707   4.845   0.632  0.3439  0.8148 -2.4377
12347TIP3   OH258455   1.745   4.476  12.817 -0.2014  0.4815  0.0754
12347TIP3    H158456   1.670   4.424  12.845  0.0178  0.4046  0.5278
12347TIP3    H258457   1.757   4.454  12.725  0.6165 -1.1790  0.5368
12348TIP3   OH258458   1.104   3.347   4.758  0.6502 -0.4320 -0.2212
12348TIP3    H158459   1.018   3.304   4.765  1.0586 -1.0777  1.2193
12348TIP3    H258460   1.163   3.277   4.731  0.8065 -0.0765 -0.8155
12349TIP3   OH258461   2.285   5.692  16.458 -0.3825 -0.9332 -0.5771
12349TIP3    H158462   2.210   5.644  16.493  0.2752 -0.8431  1.0448
12349TIP3    H258463   2.344   5.625  16.426 -0.3843 -1.0933 -0.2456
12350TIP3   OH258464   4.282   2.442  14.846  0.1843  0.2382  0.7496
12350TIP3    H158465   4.369   2.482  14.846 -0.3096  1.3534  1.0213
12350TIP3    H258466   4.244   2.467  14.929 -1.4191  2.1244 -0.4756
12351TIP3   OH258467   4.844   2.485  15.272 -0.1171  0.1423  0.4495
12351TIP3    H158468   4.768   2.455  15.223 -0.4349  0.7938  0.5231
12351TIP3    H258469   4.908   2.509  15.205  0.6171 -1.8121  0.3917
12352TIP3   OH258470   6.458   2.176   5.471  0.3400 -0.4044 -0.7623
12352TIP3    H158471   6.370   2.211   5.458  0.6765  0.4912 -0.7491
12352TIP3    H258472   6.464   2.102   5.410 -0.4845 -0.5976 -0.6137
12353TIP3   OH258473   5.337   4.758  15.317 -0.2826  0.6227 -0.3871
12353TIP3    H158474   5.251   4.754  15.275 -0.7282  0.7819  0.4882
12353TIP3    H258475   5.344   4.848  15.349 -1.6041 -0.3509  3.1842
12354TIP3   OH258476   3.676   3.523  12.792 -0.2079 -0.5387  0.3591
12354TIP3    H158477   3.682   3.445  12.737 -0.6455 -1.0808  1.0567
12354TIP3    H258478   3.589   3.517  12.833  0.2776 -0.3929  1.4573
12355TIP3   OH258479   4.453   3.734   4.994 -0.6390 -0.3348  0.0523
12355TIP3    H158480   4.524   3.714   4.932 -0.4877 -2.4246  0.8430
12355TIP3    H258481   4.407   3.808   4.954 -0.2785 -1.3049 -2.3350
12356TIP3   OH258482   1.911   0.316  15.007  0.4946  0.2778  0.2389
12356TIP3    H158483   1.994   0.299  14.961 -0.3541  0.5035 -1.4340
12356TIP3    H258484   1.922   0.405  15.043 -0.7642  2.5641 -4.2995
12357TIP3   OH258485   4.168   2.659  11.623  0.0484 -0.4278  0.0151
12357TIP3    H158486   4.111   2.608  11.680 -0.3986  1.1270  1.0418
12357TIP3    H258487   4.123   2.743  11.613  1.0316 -0.0076 -1.0964
12358TIP3   OH258488   2.856   6.737   6.454 -0.3306 -0.1816  0.1331
12358TIP3    H158489   2.867   6.801   6.383 -2.3344  0.6589  0.5183
12358TIP3    H258490   2.943   6.733   6.495  0.3788  0.7341 -1.1678
12359TIP3   OH258491   0.796   4.595  11.862 -0.3995  0.1318  0.4580
12359TIP3    H158492   0.813   4.517  11.808 -1.8247 -1.1336  1.7188
12359TIP3    H258493   0.716   4.633  11.825 -0.4124  0.2571  0.6131
12360TIP3   OH258494   1.351   2.009   2.584  0.2065 -0.1498  0.1031
12360TIP3    H158495   1.317   2.059   2.658  1.5119  0.9827 -0.0176
12360TIP3    H258496   1.439   1.981   2.612  0.9293  0.7411 -1.1897
12361TIP3   OH258497   0.169   6.438  12.368 -0.2808  0.3330  0.2253
12361TIP3    H158498   0.082   6.466  12.341 -0.9919 -0.4879  1.5520
12361TIP3    H258499   0.228   6.476  12.303 -1.6561  0.5790 -0.9210
12362TIP3   OH258500   6.567   5.219  11.717 -0.4527 -0.1352 -0.3572
12362TIP3    H158501   6.613   5.165  11.782 -0.6836 -1.8548 -1.5302
12362TIP3    H258502   6.628   5.289  11.695  0.7055 -1.0609 -0.2031
12363TIP3   OH258503   3.406   1.898  14.091  0.1014 -0.4466 -0.0067
12363TIP3    H158504   3.466   1.888  14.166 -0.8812 -1.3663  0.6804
12363TIP3    H258505   3.452   1.858  14.018  0.3597 -1.1041  0.5015
12364TIP3   OH258506   3.200   6.540  15.969  0.4741  0.7908 -0.4889
12364TIP3    H158507   3.133   6.546  16.037  0.1357 -0.7693 -0.6565
12364TIP3    H258508   3.280   6.572  16.012  0.2976 -0.2873  0.6990
12365TIP3   OH258509   5.332   6.071   5.667 -0.5260 -0.3693 -0.0832
12365TIP3    H158510   5.288   6.049   5.749 -1.4802  1.3026 -0.0985
12365TIP3    H258511   5.407   6.124   5.694  0.0650 -1.1187 -0.2182
12366TIP3   OH258512   2.725   3.063   2.953  0.6085 -0.5296  0.3330
12366TIP3    H158513   2.800   3.077   3.011 -0.0690  0.0068  1.1028
12366TIP3    H258514   2.738   3.125   2.882  1.1632 -0.8078  0.1834
12367TIP3   OH258515   5.386   0.525   4.660  0.4037 -0.1914 -0.1397
12367TIP3    H158516   5.355   0.557   4.575  0.0134  1.9729  0.7463
12367TIP3    H258517   5.312   0.542   4.719  1.5190  0.6036  1.0734
12368TIP3   OH258518   0.345   5.213  13.026  0.0459  0.1018  0.0840
12368TIP3    H158519   0.314   5.180  13.110 -1.5878  0.0390 -0.5033
12368TIP3    H258520   0.410   5.149  12.998 -0.7494 -0.9104  0.4596
12369TIP3   OH258521   4.552   1.873  15.500 -0.2247 -0.0152  0.0803
12369TIP3    H158522   4.464   1.890  15.466 -0.0692  0.6505 -0.0079
12369TIP3    H258523   4.611   1.915  15.438  0.2874 -2.1091 -0.9299
12370TIP3   OH258524   3.003   4.400  10.753 -0.0745  0.3956  0.6206
12370TIP3    H158525   2.987   4.311  10.784  1.4648  0.5133  1.8476
12370TIP3    H258526   3.055   4.388  10.673  1.1106  0.1975  1.4043
12371TIP3   OH258527   2.999   0.717  15.570  0.4909 -0.5047 -0.3225
12371TIP3    H158528   2.967   0.671  15.648 -0.9905 -0.6303 -0.9712
12371TIP3    H258529   3.086   0.748  15.594 -1.2786  2.7916  2.8266
12372TIP3   OH258530   4.632   1.651   4.285 -0.4651 -0.2007 -0.3428
12372TIP3    H158531   4.696   1.722   4.285  0.5435 -1.0781  0.2677
12372TIP3    H258532   4.547   1.694   4.273  0.0512  1.1706  0.7373
12373TIP3   OH258533   5.055   1.474   0.209 -0.0891 -0.1732  0.0859
12373TIP3    H158534   5.047   1.440   0.120 -0.3462  0.6873 -0.2382
12373TIP3    H258535   5.110   1.552   0.198 -2.5334  1.6764  0.1837
12374TIP3   OH258536   0.914   5.342  15.750  0.3242 -0.3022 -0.4974
12374TIP3    H158537   0.879   5.271  15.803  0.4871 -0.4317 -0.5656
12374TIP3    H258538   0.840   5.403  15.741  0.0952 -0.6077 -0.6959
12375TIP3   OH258539   5.133   5.150   5.146  0.5269  0.0178  0.1004
12375TIP3    H158540   5.221   5.152   5.109  0.5832 -3.2127 -0.2239
12375TIP3    H258541   5.075   5.148   5.069  0.4299 -1.8868  0.1670
12376TIP3   OH258542   3.971   3.744   5.846 -0.3848  0.2743  0.3752
12376TIP3    H158543   3.886   3.753   5.889 -0.2663 -0.5282  0.7991
12376TIP3    H258544   4.002   3.657   5.872 -0.3750 -0.3200 -1.4466
12377TIP3   OH258545   6.465   0.480  16.835 -0.0004  0.0514  0.1651
12377TIP3    H158546   6.472   0.441  16.748  1.8425 -0.2327  0.3990
12377TIP3    H258547   6.477   0.574  16.820  0.8784 -0.0517  0.1398
12378TIP3   OH258548   5.114   0.996   5.973  0.2507 -0.1565 -0.1255
12378TIP3    H158549   5.147   1.067   6.030 -0.4805 -0.9508  1.3413
12378TIP3    H258550   5.067   1.042   5.904  0.5560  0.8291  0.2884
12379TIP3   OH258551   1.552   3.305   3.862  0.1168 -0.0976  0.1097
12379TIP3    H158552   1.468   3.330   3.824 -0.1929 -1.4094 -0.1175
12379TIP3    H258553   1.600   3.387   3.872 -1.1986  0.6682  0.2723
12380TIP3   OH258554   1.810   1.061  13.242  0.7282 -0.0338  0.1065
12380TIP3    H158555   1.740   0.996  13.251  1.1545 -0.8878 -2.2188
12380TIP3    H258556   1.789   1.127  13.309 -1.2664 -1.1576  0.6895
12381TIP3   OH258557   5.263   3.009  11.685 -0.4488  0.3630  0.4028
12381TIP3    H158558   5.231   2.960  11.609  0.1816 -0.9883  0.9793
12381TIP3    H258559   5.353   3.030  11.664 -0.4744  0.5687  0.4976
12382TIP3   OH258560   5.909   1.529   4.331 -0.4314  0.1936 -0.6772
12382TIP3    H158561   5.997   1.530   4.293 -0.2162  0.4945 -0.1723
12382TIP3    H258562   5.865   1.604   4.291 -0.4574  0.0478 -0.9239
12383TIP3   OH258563   6.160   6.001   4.979  0.0571 -0.2416 -0.2127
12383TIP3    H158564   6.235   5.976   5.034  0.5206  2.2662  0.4466
12383TIP3    H258565   6.084   5.965   5.024  0.5937  0.2333  1.1579
12384TIP3   OH258566   6.409   0.136  15.542  0.0592  0.2201 -0.3722
12384TIP3    H158567   6.463   0.202  15.585  2.3916 -0.4867 -2.0186
12384TIP3    H258568   6.379   0.179  15.461 -1.7868  0.5435  0.4371
12385TIP3   OH258569   5.989   5.736   1.068 -0.1819  0.5764 -0.5689
12385TIP3    H158570   5.972   5.692   0.985 -0.9908  0.1608 -0.1882
12385TIP3    H258571   6.083   5.725   1.082 -0.4753 -1.6910 -0.1139
12386TIP3   OH258572   1.339   6.276   0.518  0.1602  0.4007 -0.1083
12386TIP3    H158573   1.406   6.208   0.527  1.7170  1.9162  0.4228
12386TIP3    H258574   1.315   6.298   0.608  0.3242  1.1531 -0.2403
12387TIP3   OH258575   6.686   6.685   4.960  0.1620 -0.5074  0.3537
12387TIP3    H158576   6.771   6.707   4.922  0.9947 -2.7999  0.7504
12387TIP3    H258577   6.638   6.645   4.888  0.6493 -2.1357  0.8847
12388TIP3   OH258578   2.708   3.600  12.884  0.0693 -0.5625 -0.0113
12388TIP3    H158579   2.728   3.576  12.794 -0.5916 -0.4837 -0.1869
12388TIP3    H258580   2.679   3.691  12.880 -2.8819 -1.3845 -0.2154
12389TIP3   OH258581   3.483   1.033  13.200  0.0794  0.0916 -0.1209
12389TIP3    H158582   3.501   0.980  13.122  0.3659 -0.5713  0.3910
12389TIP3    H258583   3.420   0.982  13.250  0.5773  0.0936  0.5242
12390TIP3   OH258584   4.138   3.404   4.695  0.4045  0.6712 -0.3603
12390TIP3    H158585   4.048   3.422   4.722  0.0598 -3.1320  1.6678
12390TIP3    H258586   4.191   3.460   4.751 -0.6350  2.0387 -0.6939
12391TIP3   OH258587   5.470   5.066   4.402  0.0561  0.2082  0.0190
12391TIP3    H158588   5.383   5.037   4.431 -0.0625  0.4832 -0.0620
12391TIP3    H258589   5.531   5.004   4.443 -0.0626  0.9683  1.3832
12392TIP3   OH258590   2.144   3.047  13.153  0.6815 -0.2321  0.2424
12392TIP3    H158591   2.081   2.980  13.128 -0.1385  0.4724  0.3409
12392TIP3    H258592   2.100   3.130  13.133  1.3996  0.2840  0.7305
12393TIP3   OH258593   5.657   1.829  13.809  0.2264  0.4134  0.6864
12393TIP3    H158594   5.603   1.775  13.753  0.4448  0.7670  0.1283
12393TIP3    H258595   5.604   1.841  13.889  0.1681 -0.5764  0.8076
12394TIP3   OH258596   5.319   3.925  14.923  0.3083 -0.3352 -0.2151
12394TIP3    H158597   5.404   3.966  14.932 -0.1440  1.0593 -1.7323
12394TIP3    H258598   5.318   3.891  14.833 -1.1962  0.9260 -0.7394
12395TIP3   OH258599   2.821   5.437  12.857  0.1272 -0.5381  0.1001
12395TIP3    H158600   2.817   5.389  12.940  0.8862 -0.0991  0.3980
12395TIP3    H258601   2.828   5.369  12.791  1.5574 -0.8689  0.5441
12396TIP3   OH258602   1.405   5.494  15.580 -0.0912  0.0887  0.1066
12396TIP3    H158603   1.310   5.488  15.589 -0.1099 -2.4600 -0.7737
12396TIP3    H258604   1.427   5.425  15.516  2.4069  0.1510  0.7914
12397TIP3   OH258605   4.278   5.997   1.066 -0.1699 -0.1391 -0.2820
12397TIP3    H158606   4.241   5.921   1.020  0.7565 -0.5670 -0.3544
12397TIP3    H258607   4.246   6.072   1.017 -1.7232 -0.4168  0.2294
12398TIP3   OH258608   5.552   6.246  15.978  0.3411 -0.3694  0.0393
12398TIP3    H158609   5.473   6.207  16.015 -0.1547  0.2737 -0.3223
12398TIP3    H258610   5.545   6.339  15.998  1.5330 -0.4368  0.9350
12399TIP3   OH258611   2.156   2.716  16.758  0.5551  0.8286  0.2696
12399TIP3    H158612   2.168   2.807  16.731 -0.5169  1.4280  1.6633
12399TIP3    H258613   2.085   2.720  16.822  0.4212 -1.0140  0.2772
12400TIP3   OH258614   4.189   2.920   2.952  0.1141 -0.5276  0.0281
12400TIP3    H158615   4.139   2.943   2.874 -0.2614 -2.9828 -0.5211
12400TIP3    H258616   4.250   2.993   2.963 -2.5373  1.8892 -0.1032
12401TIP3   OH258617   4.385   5.928   3.693 -0.2218  0.0114 -0.0634
12401TIP3    H158618   4.367   5.983   3.769 -0.7665  0.1710 -0.3053
12401TIP3    H258619   4.329   5.964   3.624 -1.5666 -1.6533  0.1164
12402TIP3   OH258620   3.115   1.864   1.307  0.0223 -0.0948  0.3626
12402TIP3    H158621   3.074   1.933   1.359 -0.1796  0.4184 -0.4577
12402TIP3    H258622   3.048   1.796   1.300 -0.7222  0.7316 -0.9568
12403TIP3   OH258623   5.714   1.216  16.723 -0.1092 -0.1734  0.3238
12403TIP3    H158624   5.661   1.252  16.794  1.0298  2.2165  0.0692
12403TIP3    H258625   5.738   1.292  16.670  1.8023 -1.4247 -0.7370
12404TIP3   OH258626   0.354   6.523   6.312  0.2640 -0.1056 -0.4964
12404TIP3    H158627   0.266   6.529   6.348  0.0527 -0.0700 -1.0098
12404TIP3    H258628   0.409   6.569   6.375  0.0653 -0.9649  0.3097
12405TIP3   OH258629   3.964   6.453  17.146  0.1258  0.1457  0.2041
12405TIP3    H158630   3.952   6.382  17.082 -0.2008 -0.0490  0.4742
12405TIP3    H258631   3.969   6.408  17.230 -0.8663  0.4887  0.4619
12406TIP3   OH258632   4.772   0.982  14.585  0.6128  0.1328 -0.1981
12406TIP3    H158633   4.745   0.992  14.676 -0.4405  0.2723 -0.5071
12406TIP3    H258634   4.703   1.026  14.535  1.2146  0.1183 -1.0580
12407TIP3   OH258635   0.897   6.786   0.038 -0.3158  0.3271  0.2734
12407TIP3    H158636   0.917   6.711  -0.019  0.6085  1.2860 -0.6999
12407TIP3    H258637   0.819   6.825  -0.001  0.6103  1.2842 -0.6796
12408TIP3   OH258638   3.703   3.502  12.125 -0.2400  0.3255  0.4014
12408TIP3    H158639   3.637   3.527  12.190 -0.4664  0.1288  0.2481
12408TIP3    H258640   3.667   3.531  12.041 -0.3759 -0.2732  0.2551
12409TIP3   OH258641   6.383   3.679  11.361  0.2456  0.6424 -0.2362
12409TIP3    H158642   6.464   3.686  11.412 -0.0036  1.2188  0.0831
12409TIP3    H258643   6.313   3.686  11.425 -0.0623  0.2007 -0.5213
12410TIP3   OH258644   6.521   4.712  14.950  0.5204 -0.0283 -0.4282
12410TIP3    H158645   6.599   4.665  14.979  0.9808  0.4702 -0.8220
12410TIP3    H258646   6.538   4.803  14.977 -0.7679 -0.2089  1.1825
12411TIP3   OH258647   5.414   6.351  15.072  0.4400 -0.5598  0.0708
12411TIP3    H158648   5.456   6.409  15.136 -0.4997 -1.2903  1.4158
12411TIP3    H258649   5.437   6.263  15.103 -1.7901 -0.9793  0.6919
12412TIP3   OH258650   2.953   0.616   4.476 -0.0245 -0.0343  0.2598
12412TIP3    H158651   2.959   0.565   4.396 -0.3486 -1.4783  1.1184
12412TIP3    H258652   3.043   0.644   4.494 -0.0044  0.6031 -0.7730
12413TIP3   OH258653   1.663   1.514   4.194 -0.4144  0.1453 -0.2777
12413TIP3    H158654   1.598   1.497   4.126 -0.6650 -1.2648  0.2605
12413TIP3    H258655   1.747   1.506   4.149 -0.5817  1.3068 -0.8352
12414TIP3   OH258656   0.030   1.771  14.927 -0.6163  0.2435 -0.1313
12414TIP3    H158657   0.016   1.809  14.841  2.4124  0.0793 -0.8253
12414TIP3    H258658   0.123   1.787  14.945 -0.7712 -1.1466  2.4065
12415TIP3   OH258659   2.430   3.057  11.546  0.1199 -0.0711 -0.0791
12415TIP3    H158660   2.367   3.035  11.476 -0.0383 -0.2923  0.1303
12415TIP3    H258661   2.440   3.152  11.540 -0.5251  0.0201  0.1218
12416TIP3   OH258662   2.767   5.477   2.849  0.1821  0.1236 -0.1215
12416TIP3    H158663   2.732   5.429   2.773  1.4260 -1.4458  0.2500
12416TIP3    H258664   2.724   5.437   2.924  1.5342 -0.7380  0.2224
12417TIP3   OH258665   0.858   2.974  11.828 -0.0728  0.2555 -0.0597
12417TIP3    H158666   0.923   2.908  11.852 -0.2446  0.2165  0.3066
12417TIP3    H258667   0.854   2.970  11.733 -0.3453 -0.5212 -0.0250
12418TIP3   OH258668   6.283   2.136  10.098  0.0006 -0.0854 -0.3101
12418TIP3    H158669   6.331   2.181  10.029  0.0328 -0.1893 -0.3561
12418TIP3    H258670   6.270   2.202  10.166 -2.4980  0.8442 -1.5751
12419TIP3   OH258671   5.561   2.464   4.642 -0.4192 -0.1444  0.0178
12419TIP3    H158672   5.556   2.381   4.593  0.2526 -0.5498  0.6141
12419TIP3    H258673   5.470   2.492   4.650 -0.6169 -0.5602 -0.6407
12420TIP3   OH258674   5.592   5.198  16.011 -0.0230  0.5485  0.2599
12420TIP3    H158675   5.610   5.146  16.090  0.4081  1.3962  0.7375
12420TIP3    H258676   5.547   5.276  16.044 -0.3667  0.6451 -0.4115
12421TIP3   OH258677   0.868   1.136   2.803  0.2700  0.1721 -0.1547
12421TIP3    H158678   0.805   1.101   2.739 -1.0613  0.8326  0.7458
12421TIP3    H258679   0.899   1.218   2.764  0.2598  0.0514 -0.4187
12422TIP3   OH258680   1.789   1.158  15.314 -0.2120 -0.2092 -0.0392
12422TIP3    H158681   1.836   1.180  15.234 -0.6727  1.7625  0.1757
12422TIP3    H258682   1.746   1.240  15.340 -1.7539 -1.3083  1.1015
12423TIP3   OH258683   2.646   1.903  11.519  0.1314 -0.0487 -0.7004
12423TIP3    H158684   2.629   1.963  11.447  1.1763  0.8756 -0.1972
12423TIP3    H258685   2.591   1.826  11.500  0.3298  0.2087 -2.4148
12424TIP3   OH258686   2.541   5.240   1.400 -0.0061  0.1345  0.3518
12424TIP3    H158687   2.602   5.178   1.440 -0.2508 -0.5332 -0.2962
12424TIP3    H258688   2.598   5.309   1.364  0.4056 -0.6520 -0.5431
12425TIP3   OH258689   6.082   1.781  13.398 -0.1628 -0.1765  0.0824
12425TIP3    H158690   6.028   1.772  13.477 -1.5996 -1.1140 -0.9587
12425TIP3    H258691   6.167   1.745  13.423 -0.0629  1.0797  1.6875
12426TIP3   OH258692   3.218   1.300  11.868 -0.2088 -0.2281 -0.8297
12426TIP3    H158693   3.212   1.255  11.952 -0.3502 -0.8450 -1.1643
12426TIP3    H258694   3.140   1.272  11.820  1.1780 -1.9977 -2.1779
12427TIP3   OH258695   2.586   1.321  13.320  0.5027 -0.0068  0.2275
12427TIP3    H158696   2.613   1.311  13.411  1.5606 -1.1599 -0.1895
12427TIP3    H258697   2.664   1.352  13.274  0.3676 -0.7340 -0.5235
12428TIP3   OH258698   5.181   5.265  14.763  0.1589 -0.2046 -0.0642
12428TIP3    H158699   5.200   5.285  14.671 -1.3746 -4.5727 -1.6026
12428TIP3    H258700   5.106   5.320  14.785 -0.5139 -0.2228 -2.0900
12429TIP3   OH258701   3.773   5.001   5.860 -0.0922 -0.2132  0.3570
12429TIP3    H158702   3.697   4.970   5.911 -0.1836  0.1896  0.4664
12429TIP3    H258703   3.735   5.038   5.780 -0.0340  0.2779  0.5552
12430TIP3   OH258704   6.197   6.125   4.042  0.2394  0.0693  0.4491
12430TIP3    H158705   6.276   6.070   4.041  0.5823  0.5468 -0.5258
12430TIP3    H258706   6.212   6.187   4.113  0.8612  0.3077  0.1170
12431TIP3   OH258707   0.532   5.793  13.979 -0.0113 -0.0685 -0.4330
12431TIP3    H158708   0.608   5.823  13.928  1.3673  0.6295  1.8431
12431TIP3    H258709   0.527   5.856  14.051 -1.8612 -0.9861  0.2825
12432TIP3   OH258710   2.570   0.155  14.517 -0.8133 -0.2449  0.1905
12432TIP3    H158711   2.484   0.194  14.500 -1.0310 -0.2054  1.3011
12432TIP3    H258712   2.618   0.223  14.564 -0.8253 -0.8934  1.1844
12433TIP3   OH258713   0.684   6.113   0.511 -0.9861 -0.0401 -0.1444
12433TIP3    H158714   0.695   6.207   0.497 -1.8537 -0.0016 -0.5996
12433TIP3    H258715   0.654   6.105   0.601 -0.0549  0.0513  0.1817
12434TIP3   OH258716   5.731   5.243   4.028  0.0180  0.2761 -0.4903
12434TIP3    H158717   5.807   5.238   4.085  1.0089 -1.1763 -1.8404
12434TIP3    H258718   5.767   5.264   3.942 -0.7880 -2.4974 -1.6203
12435TIP3   OH258719   4.044   6.436   5.591  0.0613 -0.2008  0.4574
12435TIP3    H158720   4.099   6.357   5.596  0.0174 -0.1942  1.0888
12435TIP3    H258721   4.037   6.466   5.681 -0.5791  0.0811  0.3150
12436TIP3   OH258722   2.676   0.247  16.016 -0.0794 -0.2145 -0.2004
12436TIP3    H158723   2.740   0.178  16.031  0.1169 -0.1458 -0.7147
12436TIP3    H258724   2.715   0.303  15.948 -0.0406  0.6543  0.5131
12437TIP3   OH258725   0.527   5.692  12.135  0.2572 -0.0165  0.0851
12437TIP3    H158726   0.495   5.604  12.113 -1.2048  0.0197  1.8176
12437TIP3    H258727   0.582   5.679  12.212 -1.4739  0.7088  1.5418
12438TIP3   OH258728   1.212   3.569  16.259  0.6230  0.0717 -0.8555
12438TIP3    H158729   1.142   3.532  16.313  1.0944 -1.0321 -0.9695
12438TIP3    H258730   1.292   3.542  16.303  0.9961  0.8504 -1.0419
12439TIP3   OH258731   1.688   3.547  14.976  0.0783 -0.8005 -0.2234
12439TIP3    H158732   1.703   3.571  14.884 -0.4688 -1.8538 -0.6073
12439TIP3    H258733   1.752   3.477  14.993  0.9103  0.1247  0.5411
12440TIP3   OH258734   4.253   0.986   1.642 -0.0404  0.2938  0.3446
12440TIP3    H158735   4.244   0.898   1.680  0.3926  0.1820  0.1900
12440TIP3    H258736   4.228   0.975   1.551 -0.1777  0.3723  0.3729
12441TIP3   OH258737   3.949   1.787  16.359 -0.4416  0.0364 -0.1882
12441TIP3    H158738   3.883   1.773  16.426 -1.3634  0.7529 -0.9359
12441TIP3    H258739   4.032   1.770  16.404 -1.1737 -2.4631  0.3642
12442TIP3   OH258740   6.410   1.302   3.689 -0.2226 -0.4363 -0.1123
12442TIP3    H158741   6.316   1.284   3.689 -0.3163 -0.6291 -3.6764
12442TIP3    H258742   6.451   1.218   3.667  0.6680 -0.0027 -0.1655
12443TIP3   OH258743   2.543   2.672   1.794 -0.3257  0.4789 -0.0383
12443TIP3    H158744   2.514   2.599   1.848  0.7546 -0.3673 -0.5689
12443TIP3    H258745   2.582   2.733   1.855 -2.2476  1.1904  0.5636
12444TIP3   OH258746   6.578   0.770   4.806 -0.1002  0.2739  0.3460
12444TIP3    H158747   6.600   0.682   4.776  1.1289  0.8976 -0.6841
12444TIP3    H258748   6.632   0.828   4.751 -1.2207  1.6847  0.6834
12445TIP3   OH258749   1.158   0.895  11.318  0.7626 -0.0264 -0.0050
12445TIP3    H158750   1.215   0.862  11.249  0.3361 -0.0143 -0.3648
12445TIP3    H258751   1.137   0.984  11.292  1.0386  0.1689  0.4218
12446TIP3   OH258752   1.198   1.480  16.492  0.4447 -0.0222  0.2356
12446TIP3    H158753   1.202   1.457  16.399 -1.2526  3.8410 -1.0035
12446TIP3    H258754   1.106   1.473  16.515  0.7888 -0.5534  1.5751
12447TIP3   OH258755   4.764   0.306  12.928 -0.4411  0.2340 -0.1689
12447TIP3    H158756   4.782   0.228  12.982 -0.0339  0.9139  0.7016
12447TIP3    H258757   4.690   0.348  12.971  0.9480  1.6926  0.8883
12448TIP3   OH258758   5.609   6.615   2.107 -0.3823  0.1625 -0.3942
12448TIP3    H158759   5.572   6.532   2.078  1.6038 -0.6124 -0.8700
12448TIP3    H258760   5.675   6.636   2.042  0.1369  1.3955  0.4870
12449TIP3   OH258761   6.284   6.484  13.998 -0.4269  0.1887 -0.0148
12449TIP3    H158762   6.234   6.540  14.057 -1.0597 -1.0085  0.6302
12449TIP3    H258763   6.260   6.395  14.023  1.6618 -0.4279 -0.0289
12450TIP3   OH258764   4.652   5.899   6.094  0.1966 -0.0063  0.1446
12450TIP3    H158765   4.623   5.900   6.002  0.8309 -1.5579 -0.0996
12450TIP3    H258766   4.571   5.910   6.144 -0.2497  0.1692 -0.5907
12451TIP3   OH258767   5.543   3.341  14.018  0.1601 -0.7387  0.3249
12451TIP3    H158768   5.616   3.289  14.052  0.8322  1.0857  1.8923
12451TIP3    H258769   5.472   3.278  14.006  1.8554 -2.5195 -0.9696
12452TIP3   OH258770   5.765   5.575   1.827 -0.3600 -0.2557  0.0807
12452TIP3    H158771   5.813   5.497   1.856 -0.2672 -0.2150  0.0372
12452TIP3    H258772   5.781   5.580   1.733 -0.4302 -0.2285  0.0702
12453TIP3   OH258773   2.274   5.444  13.316  0.2560  0.0191 -0.5708
12453TIP3    H158774   2.269   5.529  13.273  0.8001  1.1721  1.5042
12453TIP3    H258775   2.196   5.439  13.370  1.3281  0.2669  1.0778
12454TIP3   OH258776   6.616   4.311  13.046  0.0629 -0.4613 -0.6285
12454TIP3    H158777   6.522   4.328  13.051  0.0218 -0.6562 -0.7529
12454TIP3    H258778   6.643   4.303  13.137  0.1287  0.5281 -0.5538
12455TIP3   OH258779   2.339   6.130  11.338  0.4614  0.0962 -0.7434
12455TIP3    H158780   2.431   6.147  11.318  0.3945 -0.0332 -1.1598
12455TIP3    H258781   2.290   6.188  11.280  0.2592 -0.4738 -1.1469
12456TIP3   OH258782   5.555   5.128  12.455  0.5748 -0.2361  0.1397
12456TIP3    H158783   5.586   5.043  12.486 -1.0171  0.0556  2.8249
12456TIP3    H258784   5.490   5.107  12.388  1.6787 -1.0090 -0.7339
12457TIP3   OH258785   4.183   3.192   1.475  0.1304 -0.8868 -0.0795
12457TIP3    H158786   4.169   3.200   1.569 -1.4672  0.1239 -0.3712
12457TIP3    H258787   4.133   3.115   1.449 -0.3515 -0.5185 -0.2608
12458TIP3   OH258788   0.017   5.982  12.151 -0.3136 -0.0089 -0.5716
12458TIP3    H158789   0.039   5.971  12.058  0.6568 -2.1658 -0.1677
12458TIP3    H258790  -0.078   5.987  12.153 -0.3590 -0.1407 -1.6714
12459TIP3   OH258791   1.462   1.219  15.125  0.4769 -0.2190 -0.1492
12459TIP3    H158792   1.544   1.252  15.090 -0.2500  0.2615 -1.4581
12459TIP3    H258793   1.427   1.293  15.176  0.5379 -0.1939 -0.1432
12460TIP3   OH258794   3.831   4.975   4.541 -0.1133 -0.2376 -0.1837
12460TIP3    H158795   3.736   4.964   4.545 -0.0281 -0.9768  0.0730
12460TIP3    H258796   3.845   5.052   4.486 -0.9045  0.7901  1.0044
12461TIP3   OH258797   6.605   4.021  16.447  0.1055  0.2761 -0.3942
12461TIP3    H158798   6.619   3.962  16.373 -1.0886 -2.5208  1.4618
12461TIP3    H258799   6.693   4.042  16.478  0.5561 -0.3661 -1.1911
12462TIP3   OH258800   0.690   4.533   0.190  0.0029 -0.5882 -0.5276
12462TIP3    H158801   0.739   4.567   0.265  2.7560  0.5655 -2.6872
12462TIP3    H258802   0.601   4.523   0.223  0.8214  0.9414  2.5617
12463TIP3   OH258803   2.728   3.600   2.195 -0.3274 -0.2259  0.2147
12463TIP3    H158804   2.768   3.672   2.244  0.8636 -0.6812 -0.0451
12463TIP3    H258805   2.740   3.624   2.104 -1.7096  0.1759  0.1250
12464TIP3   OH258806   0.124   6.127  15.056 -0.0220 -0.3010  0.2189
12464TIP3    H158807   0.202   6.105  15.005  1.0794  1.6024  0.9719
12464TIP3    H258808   0.120   6.061  15.125  0.0045 -1.3204 -0.7300
12465TIP3   OH258809   3.035   0.627   5.905 -0.0209 -0.1684 -0.2400
12465TIP3    H158810   2.971   0.567   5.944  0.3485 -0.9856 -0.8660
12465TIP3    H258811   2.986   0.673   5.837 -0.5366  0.9040  0.8124
12466TIP3   OH258812   6.414   0.328  13.430 -0.4039 -0.5721 -0.1287
12466TIP3    H158813   6.356   0.252  13.431 -0.5002 -0.5554 -2.0690
12466TIP3    H258814   6.442   0.337  13.521 -2.8286 -1.0336  0.7454
12467TIP3   OH258815   2.083   6.419   4.033  0.4930 -0.0586 -0.2361
12467TIP3    H158816   2.001   6.383   4.068  0.8258 -0.6122 -0.0129
12467TIP3    H258817   2.055   6.471   3.957  0.0364 -1.1864 -0.8703
12468TIP3   OH258818   5.641   5.282  14.252 -0.2096  0.1310  0.2868
12468TIP3    H158819   5.550   5.293  14.224 -0.1505  1.4753  0.5339
12468TIP3    H258820   5.637   5.289  14.348  0.2720  1.4459  0.2418
12469TIP3   OH258821   6.034   5.474   6.496  0.5799 -0.5996  0.4253
12469TIP3    H158822   6.089   5.542   6.535  1.3600 -1.9921  1.9070
12469TIP3    H258823   5.950   5.481   6.542  0.9027 -1.0846  1.1032
12470TIP3   OH258824   2.366   3.661  11.765  0.5761  0.5003  0.3874
12470TIP3    H158825   2.366   3.715  11.686 -0.8189  0.7166  0.5107
12470TIP3    H258826   2.347   3.572  11.733 -1.0008  0.7474  0.5335
12471TIP3   OH258827   5.672   0.202  15.106  0.6684  0.5845 -0.6931
12471TIP3    H158828   5.614   0.130  15.081  0.4712  0.2619  0.6175
12471TIP3    H258829   5.621   0.281  15.088 -0.5260  0.2981  1.0816
12472TIP3   OH258830   1.551   6.784  12.181  0.4566  0.5581 -0.0220
12472TIP3    H158831   1.576   6.862  12.132 -1.6488  0.4756 -1.3853
12472TIP3    H258832   1.459   6.798  12.203 -0.5116 -2.1337 -1.7666
12473TIP3   OH258833   5.747   4.387   3.536  0.0323 -0.8560  0.2736
12473TIP3    H158834   5.703   4.471   3.524  0.9895 -0.5136 -1.1034
12473TIP3    H258835   5.798   4.374   3.456  2.1562 -1.3831  1.6102
12474TIP3   OH258836   0.907   1.807   2.939 -0.5797  0.2798  0.3114
12474TIP3    H158837   0.920   1.715   2.962  0.0921  0.8837  2.5672
12474TIP3    H258838   0.812   1.817   2.930 -0.6211 -0.7332 -0.4855
12475TIP3   OH258839   0.066   0.962  15.445  0.2403  0.6926  0.3961
12475TIP3    H158840  -0.002   0.917  15.395  1.6350  0.1192 -1.0613
12475TIP3    H258841   0.100   0.895  15.505  0.3536  0.6315  0.2634
12476TIP3   OH258842   1.730   3.341   5.371 -0.1649  0.3702  0.4445
12476TIP3    H158843   1.725   3.269   5.309 -0.8175 -0.0447  0.9573
12476TIP3    H258844   1.640   3.374   5.376  0.0903  1.0900  0.3671
12477TIP3   OH258845   1.940   6.733   5.100 -0.1058  0.1856 -0.1951
12477TIP3    H158846   1.864   6.771   5.145 -1.2627 -0.4680 -1.5180
12477TIP3    H258847   1.922   6.747   5.007  1.1890 -0.3910 -0.5539
12478TIP3   OH258848   1.645   2.359  13.734  0.0553 -0.2855  0.2090
12478TIP3    H158849   1.556   2.325  13.745 -0.6521  0.5361 -2.3832
12478TIP3    H258850   1.637   2.452  13.753  0.5531 -0.3535  0.7590
12479TIP3   OH258851   6.789   0.573  11.857 -0.0784  0.0517  0.2122
12479TIP3    H158852   6.865   0.608  11.810 -0.0201 -1.2512 -0.7136
12479TIP3    H258853   6.717   0.631  11.833  0.5413  1.1345  0.8742
12480TIP3   OH258854   6.745   5.428  13.489  0.2531  0.2064 -0.7438
12480TIP3    H158855   6.838   5.434  13.469  0.7196 -0.5463  0.9864
12480TIP3    H258856   6.735   5.478  13.570 -0.4320 -1.4284  0.2269
12481TIP3   OH258857   0.600   2.447   4.706  0.2815  0.2097 -1.1368
12481TIP3    H158858   0.507   2.436   4.727  0.6341  0.0743  0.5379
12481TIP3    H258859   0.611   2.542   4.699  0.4446  0.4212  1.1405
12482TIP3   OH258860   1.973   6.649   2.690  1.5417  0.0035 -0.1951
12482TIP3    H158861   1.976   6.575   2.751  1.5218  0.7423  0.7390
12482TIP3    H258862   2.056   6.644   2.642  1.4090 -0.7912 -0.3529
12483TIP3   OH258863   2.337   6.767  12.194 -0.2687  0.2076 -1.0078
12483TIP3    H158864   2.325   6.792  12.285  1.3461 -0.3349 -0.6165
12483TIP3    H258865   2.272   6.699  12.178  0.0649 -0.3700  0.0286
12484TIP3   OH258866   2.115   0.649   0.497 -0.5011 -0.3642 -0.2445
12484TIP3    H158867   2.201   0.617   0.470 -0.6920 -0.9118 -0.2152
12484TIP3    H258868   2.126   0.744   0.505 -0.0354 -0.3719 -0.7316
12485TIP3   OH258869   0.024   1.439   5.558 -0.6189 -0.6033  0.1736
12485TIP3    H158870  -0.033   1.367   5.532 -0.0214 -1.3419  0.8581
12485TIP3    H258871   0.113   1.402   5.555 -0.1646  0.4883 -0.7758
12486TIP3   OH258872   3.031   2.145  14.643  0.2229 -0.0782  0.3543
12486TIP3    H158873   3.073   2.231  14.632  0.6832 -0.0237  2.1691
12486TIP3    H258874   2.943   2.156  14.608  0.5447  0.8896 -0.1869
12487TIP3   OH258875   5.040   5.391  13.740 -0.5095  0.9624  0.6950
12487TIP3    H158876   5.057   5.344  13.659  2.8484  1.1307  1.1747
12487TIP3    H258877   5.057   5.483  13.719 -1.2943  1.2264  1.1787
12488TIP3   OH258878   2.101   1.114  17.071  0.1407  0.2820 -0.1215
12488TIP3    H158879   2.166   1.077  17.131 -0.6524 -1.3697 -0.1963
12488TIP3    H258880   2.101   1.054  16.996 -1.8933 -0.1700  0.1740
12489TIP3   OH258881   4.018   6.546   5.319  0.1393  0.0374  0.4034
12489TIP3    H158882   4.095   6.601   5.332  0.3732 -0.2418  0.1813
12489TIP3    H258883   4.014   6.491   5.398  0.2921 -0.1040  0.3113
12490TIP3   OH258884   2.923   0.229  12.564  0.0191  0.2600  0.2130
12490TIP3    H158885   2.896   0.278  12.486  3.0021 -0.8365 -1.6616
12490TIP3    H258886   2.854   0.164  12.577 -1.2281  1.3677 -0.6201
12491TIP3   OH258887   2.782   5.915   4.362 -0.0850 -0.2171 -0.2934
12491TIP3    H158888   2.792   5.820   4.359 -2.6672 -0.5779  0.0632
12491TIP3    H258889   2.762   5.935   4.453  0.8534  0.7540 -0.2734
12492TIP3   OH258890   4.700   4.830   0.303 -0.1668 -0.2722  0.3119
12492TIP3    H158891   4.740   4.743   0.300  0.5108 -0.0082  1.1374
12492TIP3    H258892   4.772   4.888   0.326 -0.2958  0.7357 -1.6268
12493TIP3   OH258893   5.821   6.475   3.877  0.1667  0.6002 -0.0940
12493TIP3    H158894   5.728   6.476   3.902  0.3286  0.7236  0.4928
12493TIP3    H258895   5.825   6.411   3.805 -0.0661 -0.7865  1.0803
12494TIP3   OH258896   1.181   4.352  13.240  0.3663  0.2007  0.2810
12494TIP3    H158897   1.266   4.395  13.231  0.9375 -1.0013 -0.3217
12494TIP3    H258898   1.175   4.296  13.163 -1.5220  1.1470 -0.3274
12495TIP3   OH258899   0.413   3.662   2.659 -0.1689  0.7625  0.2772
12495TIP3    H158900   0.365   3.696   2.734 -0.9237  0.4882 -0.0722
12495TIP3    H258901   0.389   3.569   2.654 -0.3373  0.8345 -0.4511
12496TIP3   OH258902   1.826   4.491   3.083  0.4681 -0.1771  1.2169
12496TIP3    H158903   1.853   4.438   3.158  0.7862  1.3624  2.2451
12496TIP3    H258904   1.895   4.557   3.074  1.0058 -0.9597 -1.1464
12497TIP3   OH258905   3.335   2.851  12.694 -0.6663  0.1508 -0.2201
12497TIP3    H158906   3.310   2.774  12.643 -3.3067  1.7536 -1.5948
12497TIP3    H258907   3.253   2.881  12.734  0.3879  1.9090  0.7602
12498TIP3   OH258908   6.500   4.403  15.457 -0.2949 -0.3212  0.1601
12498TIP3    H158909   6.415   4.363  15.474 -0.3412 -1.0241 -1.5453
12498TIP3    H258910   6.484   4.464  15.385  0.2294  1.1869  1.2637
12499TIP3   OH258911   3.447   4.507  11.269 -0.0940 -0.2330 -0.3367
12499TIP3    H158912   3.431   4.447  11.196 -4.0286  0.3631 -0.2176
12499TIP3    H258913   3.415   4.592  11.238  1.4016  0.8462  0.9376
12500TIP3   OH258914   5.243   2.848   1.915 -0.0791 -0.6527  0.0498
12500TIP3    H158915   5.336   2.870   1.905 -0.1636 -0.7528 -1.1092
12500TIP3    H258916   5.226   2.856   2.009  1.1352 -0.7598  0.2943
12501TIP3   OH258917   5.068   3.605  16.618 -0.2972 -0.2856 -0.3020
12501TIP3    H158918   5.154   3.587  16.656  0.8461  1.1043 -2.0143
12501TIP3    H258919   5.086   3.671  16.550 -2.7388  0.0851 -0.6735
12502TIP3   OH258920   3.062   6.675  14.600 -0.0025  0.0342 -0.0682
12502TIP3    H158921   3.080   6.596  14.651 -0.7983 -0.3485 -0.3567
12502TIP3    H258922   2.976   6.704  14.629 -1.2116 -1.1123 -2.2614
12503TIP3   OH258923   6.335   3.776   0.203 -0.1721  0.8249  0.2256
12503TIP3    H158924   6.385   3.857   0.207 -0.0607  0.7248  1.1695
12503TIP3    H258925   6.399   3.707   0.221 -0.8686  0.8110  3.1053
12504TIP3   OH258926   3.424   4.595  16.965 -0.2055  0.9416 -0.4727
12504TIP3    H158927   3.457   4.631  17.047  0.9700 -1.8981  0.4129
12504TIP3    H258928   3.492   4.616  16.901  0.8170 -0.1917  0.1883
12505TIP3   OH258929   6.161   2.918   2.153  0.0265 -0.1937 -0.0114
12505TIP3    H158930   6.102   2.844   2.146 -0.6355  0.2834  0.4323
12505TIP3    H258931   6.135   2.977   2.082  0.7739 -0.5310 -0.5792
12506TIP3   OH258932   6.503   2.071   2.090 -0.1711 -0.3138 -0.8849
12506TIP3    H158933   6.503   2.006   2.160 -0.3370 -1.5935 -2.0324
12506TIP3    H258934   6.448   2.142   2.123  0.4820 -0.4667  0.6308
12507TIP3   OH258935   5.398   6.617   1.853 -0.7714  0.3364  0.0481
12507TIP3    H158936   5.310   6.641   1.825 -1.9585 -0.1813  3.0303
12507TIP3    H258937   5.446   6.699   1.855 -1.8587  0.9756  0.5152
12508TIP3   OH258938   2.588   3.244   1.084 -0.1184  0.2575  0.7040
12508TIP3    H158939   2.576   3.194   1.003 -1.6735  1.0308  0.4196
12508TIP3    H258940   2.669   3.210   1.121 -0.3684 -1.4370 -0.2079
12509TIP3   OH258941   6.572   0.232   4.652  0.1288 -0.7516 -0.0525
12509TIP3    H158942   6.502   0.239   4.716  0.3960 -1.0443  0.2774
12509TIP3    H258943   6.548   0.157   4.598 -0.5772  0.0558 -0.9080
12510TIP3   OH258944   1.205   2.569   4.711  0.5170  0.4420  0.2885
12510TIP3    H158945   1.109   2.573   4.709  0.5525  1.2147 -0.4996
12510TIP3    H258946   1.225   2.516   4.788 -0.5337  0.7434  0.7885
12511TIP3   OH258947   4.143   1.045   3.343  0.3528  0.4271 -0.1362
12511TIP3    H158948   4.192   0.962   3.346 -1.4830 -0.6938  0.5291
12511TIP3    H258949   4.082   1.039   3.417 -0.8385  1.7136 -0.9753
12512TIP3   OH258950   4.807   5.496  14.250  0.0419  0.4192  0.1680
12512TIP3    H158951   4.855   5.550  14.313 -0.0901  2.7151 -1.5915
12512TIP3    H258952   4.875   5.451  14.200  0.3434  1.9898 -0.8887
12513TIP3   OH258953   0.045   6.514   3.130 -0.0658  0.0967 -0.6588
12513TIP3    H158954   0.006   6.600   3.111 -1.1545 -0.8658 -3.3368
12513TIP3    H258955   0.131   6.535   3.166 -0.6544  2.3141 -0.3840
12514TIP3   OH258956   1.172   3.104  11.207 -0.6266  0.0202  0.0643
12514TIP3    H158957   1.151   3.058  11.126 -2.2619 -0.7833  0.8983
12514TIP3    H258958   1.224   3.041  11.257 -0.5393  0.1054  0.0802
12515TIP3   OH258959   2.046   5.670  12.990  0.1608 -0.3103  0.3957
12515TIP3    H158960   2.009   5.692  12.905 -0.5185 -0.3629  0.6674
12515TIP3    H258961   2.002   5.728  13.052  2.8225  1.9014  0.4012
12516TIP3   OH258962   5.578   5.369   3.605  0.5072  0.6210 -0.6675
12516TIP3    H158963   5.537   5.428   3.541 -0.5439  1.4619  0.7236
12516TIP3    H258964   5.634   5.426   3.658  0.4738  0.1492 -0.1205
12517TIP3   OH258965   0.613   5.672  13.168 -0.0933 -0.2127  0.0921
12517TIP3    H158966   0.627   5.597  13.110  0.5643  0.6670 -0.9348
12517TIP3    H258967   0.528   5.708  13.139 -0.8276 -1.0291  1.1518
12518TIP3   OH258968   1.148   2.208  15.422 -0.5523  0.2309  0.3362
12518TIP3    H158969   1.088   2.144  15.462 -1.7481  0.5387 -0.9051
12518TIP3    H258970   1.091   2.281  15.397  0.4210  0.7157 -0.4929
12519TIP3   OH258971   1.307   2.398   3.256  0.1807 -0.4531 -0.1661
12519TIP3    H158972   1.239   2.353   3.306  0.7662  0.9823  2.0497
12519TIP3    H258973   1.264   2.421   3.173 -1.4426 -1.2233  0.4159
12520TIP3   OH258974   0.667   3.217  10.578 -0.7727  0.0303 -0.2074
12520TIP3    H158975   0.740   3.215  10.516 -0.1056 -0.8641  0.5647
12520TIP3    H258976   0.614   3.291  10.551  0.6435  0.9553 -0.5548
12521TIP3   OH258977   2.090   6.511   1.230  0.2857  0.2632  0.4261
12521TIP3    H158978   2.029   6.476   1.165  0.0631 -1.0063  1.3035
12521TIP3    H258979   2.038   6.575   1.279 -0.4341 -0.9393  1.2875
12522TIP3   OH258980   2.240   4.524  13.725  0.2328 -0.0207  0.6075
12522TIP3    H158981   2.274   4.609  13.752 -1.9252  0.7633  1.0638
12522TIP3    H258982   2.205   4.485  13.806 -1.0159 -0.2233  0.0007
12523TIP3   OH258983   4.665   3.008  11.639  0.2908  0.0899 -0.5327
12523TIP3    H158984   4.656   3.096  11.677  0.1674 -1.5155  3.6706
12523TIP3    H258985   4.575   2.977  11.629  0.3559  0.1131 -1.2387
12524TIP3   OH258986   3.754   5.550   0.848 -0.2382 -0.1638  0.2190
12524TIP3    H158987   3.683   5.575   0.788  1.3369  0.5390 -1.4237
12524TIP3    H258988   3.802   5.482   0.802  0.2614 -0.5211  1.2414
12525TIP3   OH258989   3.647   4.097   1.172  0.3061  0.4971 -0.2627
12525TIP3    H158990   3.603   4.065   1.250 -1.7743  0.5279 -1.3377
12525TIP3    H258991   3.686   4.019   1.132  1.1847  0.4489  0.6492
12526TIP3   OH258992   0.880   4.675  15.508 -0.3398 -0.0978 -0.3837
12526TIP3    H158993   0.852   4.583  15.514  1.9433 -0.9463 -1.4280
12526TIP3    H258994   0.813   4.717  15.454 -1.0459 -1.3197 -0.4948
12527TIP3   OH258995   4.978   5.645  16.051 -0.1731 -0.0491  0.1007
12527TIP3    H158996   4.948   5.679  15.967 -0.4026 -0.8431 -0.1530
12527TIP3    H258997   4.974   5.550  16.041 -1.0207 -0.1735  1.2958
12528TIP3   OH258998   2.872   4.893  13.746  0.2666  0.0209  0.0382
12528TIP3    H158999   2.781   4.865  13.736 -0.4835  1.5800  1.8711
12528TIP3    H259000   2.888   4.889  13.840  1.7337  0.8203 -0.1486
12529TIP3   OH259001   2.118   2.494   4.665 -0.2312 -0.2023  0.2886
12529TIP3    H159002   2.064   2.561   4.708  0.3936 -0.5700  1.7242
12529TIP3    H259003   2.166   2.453   4.737  0.1060 -1.5610 -0.6784
12530TIP3   OH259004   2.577   4.448  15.770  0.5418 -0.1547  0.0481
12530TIP3    H159005   2.535   4.477  15.851  2.1549 -0.5188  1.0455
12530TIP3    H259006   2.631   4.522  15.743  1.5022 -0.7095  0.3818
12531TIP3   OH259007   1.628   2.708  13.027 -0.3849 -0.2046 -0.0533
12531TIP3    H159008   1.558   2.765  13.059 -1.3394 -0.7857 -1.0131
12531TIP3    H259009   1.690   2.702  13.099 -1.7153 -0.2841  1.1178
12532TIP3   OH259010   5.598   2.730   3.335 -0.3406 -0.6132 -0.0813
12532TIP3    H159011   5.510   2.722   3.372 -0.2278  0.9169  0.6178
12532TIP3    H259012   5.645   2.654   3.367 -0.7613 -0.2462  1.5018
12533TIP3   OH259013   5.924   6.170   1.175 -0.0009  0.3853  0.1514
12533TIP3    H159014   5.942   6.129   1.091  0.1837  1.8687 -0.5607
12533TIP3    H259015   5.915   6.097   1.236  0.0640 -0.7049 -1.1072
12534TIP3   OH259016   4.589   3.773   2.297 -0.0544 -0.0540 -0.3125
12534TIP3    H159017   4.660   3.709   2.292 -0.3074 -0.2801 -1.3657
12534TIP3    H259018   4.625   3.852   2.258 -0.0168  0.1878  0.2062
12535TIP3   OH259019   0.949   6.020   4.699  0.3123  0.0553  0.2537
12535TIP3    H159020   0.967   6.097   4.752  0.2451  0.7302 -0.6941
12535TIP3    H259021   0.982   6.041   4.612  0.7375 -1.1679  0.0890
12536TIP3   OH259022   1.491   1.139   6.118 -0.4216 -0.7987 -0.8066
12536TIP3    H159023   1.528   1.211   6.067 -0.7818  0.6158  0.8559
12536TIP3    H259024   1.565   1.105   6.169 -0.2895 -1.5331 -1.4610
12537TIP3   OH259025   4.068   4.002  15.640  0.2265 -0.9890  0.8776
12537TIP3    H159026   4.123   4.053  15.581 -0.5105  0.2010  1.1876
12537TIP3    H259027   4.093   3.911  15.624  0.4082 -0.6552 -0.8832
12538TIP3   OH259028   2.011   0.524  10.659 -0.3938  0.1016 -0.0444
12538TIP3    H159029   1.916   0.524  10.675 -0.4225 -1.0367 -0.1135
12538TIP3    H259030   2.034   0.431  10.655  0.4890  0.3486 -1.4561
12539TIP3   OH259031   5.377   3.381   5.810  0.3080  0.4451 -0.1216
12539TIP3    H159032   5.377   3.402   5.903 -1.4077  0.7180 -0.1610
12539TIP3    H259033   5.466   3.400   5.781  0.7217  0.8377  1.3530
12540TIP3   OH259034   2.767   6.124  13.627 -0.2535 -0.5158 -0.1832
12540TIP3    H159035   2.744   6.031  13.631  0.8090 -0.8228 -0.9008
12540TIP3    H259036   2.862   6.125  13.617  0.0927  0.6952  2.3650
12541TIP3   OH259037   2.308   2.603   3.375 -0.4005 -0.6382  0.6167
12541TIP3    H159038   2.349   2.673   3.426  1.4755  0.0456 -1.6843
12541TIP3    H259039   2.268   2.547   3.441  0.8554  0.8367  2.7692
12542TIP3   OH259040   4.279   6.451   2.884  0.1274  0.6560  0.0974
12542TIP3    H159041   4.318   6.388   2.945 -1.3540  0.5904  1.0361
12542TIP3    H259042   4.246   6.397   2.812 -4.4115 -0.3543  2.5361
12543TIP3   OH259043   2.461   1.949   2.248  0.2041  0.4626  0.2422
12543TIP3    H159044   2.533   1.973   2.307  0.9151 -0.6898 -0.1355
12543TIP3    H259045   2.383   1.984   2.291  0.6688 -0.5175  1.9715
12544TIP3   OH259046   0.932   6.135   4.082  0.2337 -0.3937 -0.0951
12544TIP3    H159047   0.992   6.205   4.107 -0.0481 -0.2057  0.0699
12544TIP3    H259048   0.911   6.153   3.990 -1.8718  1.2967  0.6216
12545TIP3   OH259049   6.125   4.603   4.205 -0.3122 -0.0285  0.1349
12545TIP3    H159050   6.103   4.691   4.175 -2.3694 -1.0679 -1.6906
12545TIP3    H259051   6.055   4.548   4.171  0.4812 -2.2863  1.8992
12546TIP3   OH259052   1.953   0.693   1.596  0.7304  0.1431  0.0564
12546TIP3    H159053   1.901   0.634   1.651  0.6372 -0.7982 -1.0008
12546TIP3    H259054   2.038   0.698   1.639 -0.1186  1.5480  1.7114
12547TIP3   OH259055   3.938   4.335   2.048 -0.2295 -0.1364 -0.3878
12547TIP3    H159056   4.005   4.286   2.001  0.1041 -1.7265  1.5938
12547TIP3    H259057   3.986   4.386   2.113 -0.8069  0.4868 -0.4345
12548TIP3   OH259058   1.775   0.320  12.748 -0.3837 -0.1058  0.1826
12548TIP3    H159059   1.863   0.310  12.785  0.7579 -1.6567 -2.6315
12548TIP3    H259060   1.736   0.391  12.799  3.1518  1.9207  0.4326
12549TIP3   OH259061   4.065   1.116  11.083 -0.3867  0.8606  0.6526
12549TIP3    H159062   4.148   1.133  11.038 -0.0528  0.2438  1.0237
12549TIP3    H259063   4.074   1.161  11.167 -1.1174  2.2397  0.0204
12550TIP3   OH259064   1.436   3.447   5.463  0.5430 -0.0125  0.2874
12550TIP3    H159065   1.370   3.443   5.394 -0.3704  0.0839  1.1446
12550TIP3    H259066   1.495   3.518   5.435  1.0035 -0.9058 -1.0822
12551TIP3   OH259067   0.052   6.536  16.536 -0.3615  0.2031  0.6137
12551TIP3    H159068  -0.028   6.512  16.583 -1.1464  1.0973 -0.1986
12551TIP3    H259069   0.077   6.457  16.489 -1.6207  0.2770 -0.2581
12552TIP3   OH259070   5.621   0.145   3.272  0.0312 -0.2898  0.3597
12552TIP3    H159071   5.708   0.107   3.279  0.0731 -0.3471 -0.4414
12552TIP3    H259072   5.634   0.226   3.223 -0.6519 -1.3334 -1.6328
12553TIP3   OH259073   6.216   2.257   6.264  0.3622 -0.1743  0.4277
12553TIP3    H159074   6.174   2.171   6.264  1.7010 -0.9000  2.0114
12553TIP3    H259075   6.169   2.306   6.331  0.1023  0.0726  0.0685
12554TIP3   OH259076   3.520   3.596  10.454 -0.3304  0.1183 -0.1267
12554TIP3    H159077   3.571   3.640  10.522  0.8816 -1.1623 -0.1721
12554TIP3    H259078   3.509   3.662  10.386  2.8382 -0.0283 -0.9201
12555TIP3   OH259079   6.110   0.226   0.068 -0.1166 -0.1234  0.6240
12555TIP3    H159080   6.026   0.271   0.060 -0.0191  0.1019  0.8869
12555TIP3    H259081   6.088   0.133   0.054 -0.4143 -0.0695  0.7192
12556TIP3   OH259082   5.068   4.114  14.309 -0.3300  0.7274  0.0318
12556TIP3    H159083   4.992   4.064  14.279  0.4886 -0.3269 -0.3371
12556TIP3    H259084   5.139   4.087  14.251  0.5030  1.1436  0.8323
12557TIP3   OH259085   0.377   2.335  15.281  0.1230  0.3784  0.6519
12557TIP3    H159086   0.407   2.253  15.321 -0.9347  0.8826  2.6061
12557TIP3    H259087   0.457   2.381  15.256  0.8199 -0.1813  1.7890
12558TIP3   OH259088   3.198   6.021   1.020  0.2205  0.0646  0.3249
12558TIP3    H159089   3.261   6.093   1.026  0.6331  0.0263 -2.3245
12558TIP3    H259090   3.113   6.063   1.037  0.4025  1.3388 -1.5657
12559TIP3   OH259091   3.957   0.395  15.802 -0.3296 -0.2848  0.5784
12559TIP3    H159092   3.914   0.325  15.851 -1.0200 -0.3901 -0.1588
12559TIP3    H259093   4.050   0.386  15.824 -0.4761 -1.1106  0.8838
12560TIP3   OH259094   1.444   3.429  14.944 -0.2811 -0.1974  0.1828
12560TIP3    H159095   1.472   3.438  15.035 -0.1851 -1.3186  0.2746
12560TIP3    H259096   1.509   3.478  14.894  1.2021 -1.7354  0.4949
12561TIP3   OH259097   3.225   4.489   5.629 -0.1420  0.3151  0.5409
12561TIP3    H159098   3.257   4.413   5.581  0.0782  1.1642 -0.7128
12561TIP3    H259099   3.305   4.532   5.660 -0.2749 -0.0907  1.4672
12562TIP3   OH259100   1.498   4.169  15.021 -0.1662 -0.2390 -0.0147
12562TIP3    H159101   1.434   4.138  15.085  1.4153 -1.6405  0.9744
12562TIP3    H259102   1.539   4.245  15.063  0.6313 -0.9477  0.5009
12563TIP3   OH259103   4.476   4.070   5.972 -0.2057 -0.0884  0.6399
12563TIP3    H159104   4.542   4.139   5.973  0.0560 -0.3338  1.8828
12563TIP3    H259105   4.393   4.117   5.972 -0.0277  0.2315  1.3546
12564TIP3   OH259106   6.095   2.883  11.380 -0.4309 -0.2080  0.1403
12564TIP3    H159107   6.128   2.970  11.360 -1.5923 -0.0601 -1.2555
12564TIP3    H259108   6.052   2.854  11.300 -0.8023 -1.7251  0.8502
12565TIP3   OH259109   1.950   4.865   5.567 -0.1148 -0.5977  0.2195
12565TIP3    H159110   2.021   4.801   5.574 -0.3101 -0.8033  0.3087
12565TIP3    H259111   1.908   4.844   5.483 -0.0281 -0.4292  0.1318
12566TIP3   OH259112   3.200   0.340   0.815 -0.7526  0.5223  0.0100
12566TIP3    H159113   3.254   0.266   0.844  0.5281  1.3806 -0.1082
12566TIP3    H259114   3.262   0.402   0.777 -1.5326  2.4089  1.5968
12567TIP3   OH259115   4.990   3.314  11.368  0.1789 -0.2795  0.1634
12567TIP3    H159116   5.035   3.393  11.400  0.6576  0.1831 -1.5348
12567TIP3    H259117   4.994   3.253  11.441 -0.9041  1.5317  1.8320
12568TIP3   OH259118   4.455   4.079   1.523  0.1098  0.2465 -0.4227
12568TIP3    H159119   4.392   4.034   1.467 -0.2228  1.5345 -1.1089
12568TIP3    H259120   4.406   4.149   1.565  0.7260  0.2792  0.2744
12569TIP3   OH259121   3.259   3.472   3.879 -0.7141 -0.6207  0.0418
12569TIP3    H159122   3.323   3.538   3.852  0.2157 -0.9717  1.2476
12569TIP3    H259123   3.307   3.389   3.871 -0.7080 -0.8151  1.7502
12570TIP3   OH259124   5.335   4.381   2.648 -0.3287 -0.2489  1.3960
12570TIP3    H159125   5.299   4.378   2.559  0.3057  0.2285  1.1134
12570TIP3    H259126   5.428   4.363   2.637 -0.0335  0.8836  1.8226
12571TIP3   OH259127   1.894   6.267   0.286 -0.6616  0.3337  0.2695
12571TIP3    H159128   1.916   6.338   0.346  0.0170  0.4585 -0.1140
12571TIP3    H259129   1.976   6.220   0.272 -0.8999  0.0422 -0.2121
12572TIP3   OH259130   5.623   3.600   0.603 -0.5630  0.8047  0.6605
12572TIP3    H159131   5.632   3.689   0.635 -0.3566 -0.0408  3.1666
12572TIP3    H259132   5.532   3.576   0.622  0.0326 -0.2993  2.3349
12573TIP3   OH259133   1.491   3.265  10.939 -0.2661  0.1292 -0.4556
12573TIP3    H159134   1.571   3.278  10.888  0.2594  0.8205  0.5406
12573TIP3    H259135   1.450   3.188  10.898  1.5468 -1.0466 -0.1695
12574TIP3   OH259136   5.164   2.528   2.624  0.2745 -0.3268  0.2275
12574TIP3    H159137   5.214   2.485   2.693  1.5894 -0.5739 -0.8294
12574TIP3    H259138   5.148   2.617   2.657 -1.7203 -1.2620  2.0656
12575TIP3   OH259139   6.312   3.436   3.086 -0.0493 -0.0706 -0.2555
12575TIP3    H159140   6.249   3.376   3.045  0.1110  0.4450 -1.2981
12575TIP3    H259141   6.294   3.520   3.044 -0.2687  0.6242  1.1864
12576TIP3   OH259142   5.188   5.770   5.428 -0.0421  0.1502 -0.1643
12576TIP3    H159143   5.280   5.790   5.444 -0.0472 -0.7365  1.1468
12576TIP3    H259144   5.143   5.854   5.439  0.5276  0.4507 -0.0847
12577TIP3   OH259145   0.032   3.277   0.475  0.0500  0.5052  0.1964
12577TIP3    H159146  -0.001   3.360   0.441 -2.8387 -0.3215  0.6946
12577TIP3    H259147  -0.023   3.210   0.434  1.3490 -1.0720  0.8862
12578TIP3   OH259148   5.356   4.635   4.229 -0.3067  0.0606  0.4004
12578TIP3    H159149   5.319   4.722   4.216  0.2145  0.2777  0.3555
12578TIP3    H259150   5.444   4.651   4.262 -0.4744 -0.4601  1.1178
12579TIP3   OH259151   3.756   3.481   1.035  0.7431 -0.5186  0.2299
12579TIP3    H159152   3.669   3.497   1.071  0.2495  0.1257 -1.1860
12579TIP3    H259153   3.754   3.390   1.005 -0.3258  0.1582 -1.9987
12580TIP3   OH259154   4.757   4.573   3.378  0.4399 -0.8566 -0.3075
12580TIP3    H159155   4.663   4.592   3.385  0.3456 -1.0519 -0.9845
12580TIP3    H259156   4.794   4.648   3.332  0.0760 -2.1555 -2.9257
12581TIP3   OH259157   0.498   0.325  12.069 -0.0816 -0.9473 -0.1863
12581TIP3    H159158   0.423   0.380  12.088  1.7785  1.3692  1.0088
12581TIP3    H259159   0.488   0.302  11.976 -1.8671 -0.1382 -0.2339
12582TIP3   OH259160   5.188   0.399   6.250  0.3183  0.2983  0.9009
12582TIP3    H159161   5.202   0.405   6.345 -0.9781 -1.2293  1.2209
12582TIP3    H259162   5.231   0.318   6.224  1.3259  1.0889  0.0199
12583TIP3   OH259163   0.644   2.591   2.908  0.1758 -0.0944 -0.6147
12583TIP3    H159164   0.697   2.655   2.860 -1.1489 -0.0476 -2.0844
12583TIP3    H259165   0.575   2.642   2.949  0.5717 -0.3000  0.3466
12584TIP3   OH259166   0.179   0.851   4.486  0.5347  0.1087  0.3320
12584TIP3    H159167   0.127   0.774   4.510  0.0890 -0.4245 -2.0344
12584TIP3    H259168   0.155   0.868   4.395  1.1752  2.6357  0.5503
12585TIP3   OH259169   1.293   1.161  14.876 -0.6949 -0.3121  0.1877
12585TIP3    H159170   1.291   1.156  14.971 -3.0060  5.0797  0.8141
12585TIP3    H259171   1.218   1.109  14.847  0.3338 -2.4260  1.1610
12586TIP3   OH259172   2.379   3.297   5.467  0.8129  0.1331 -0.3224
12586TIP3    H159173   2.398   3.205   5.481 -0.4415 -0.3286 -1.4526
12586TIP3    H259174   2.372   3.334   5.555  2.1749 -0.6406  0.1411
12587TIP3   OH259175   3.758   1.613  15.456 -0.5214  0.2042  0.5441
12587TIP3    H159176   3.752   1.672  15.531 -1.0260 -2.0382  2.3848
12587TIP3    H259177   3.848   1.622  15.425 -0.9322  2.8700 -0.1312
12588TIP3   OH259178   5.822   4.636  16.853  0.1457 -0.0152  0.0796
12588TIP3    H159179   5.824   4.654  16.759  1.7680 -0.7281 -0.0588
12588TIP3    H259180   5.850   4.719  16.893 -0.9049  0.4033 -0.0292
12589TIP3   OH259181   0.863   5.883  15.813 -0.3720  0.3063 -0.5910
12589TIP3    H159182   0.950   5.922  15.804  0.2962 -1.1837 -0.8221
12589TIP3    H259183   0.813   5.947  15.865  0.8457  1.1749 -0.4506
12590TIP3   OH259184   4.445   4.749   6.334  0.0101 -0.6501 -0.0913
12590TIP3    H159185   4.453   4.654   6.339  0.0230 -0.7716 -1.8206
12590TIP3    H259186   4.354   4.765   6.309 -0.0925 -0.1811  0.5592
12591TIP3   OH259187   1.579   1.665  16.698  0.1521  0.8162  0.0401
12591TIP3    H159188   1.584   1.726  16.771  0.2985  0.2875  0.4854
12591TIP3    H259189   1.487   1.666  16.672 -0.1097  0.2883  0.8816
12592TIP3   OH259190   5.957   0.348  14.629 -0.3827 -0.3139 -0.0802
12592TIP3    H159191   6.024   0.394  14.578  0.6265 -1.3644  0.2493
12592TIP3    H259192   5.937   0.270  14.578 -2.8479  0.9180 -1.1482
12593TIP3   OH259193   5.549   3.852   5.731 -0.5232  0.2132  0.0807
12593TIP3    H159194   5.601   3.801   5.793  1.3435  2.1116  0.1927
12593TIP3    H259195   5.568   3.943   5.753 -0.0659  0.9899 -3.0099
12594TIP3   OH259196   0.983   6.121  16.649  0.1876  0.0263 -0.7275
12594TIP3    H159197   0.996   6.203  16.601 -2.6268  0.4444 -0.9555
12594TIP3    H259198   0.940   6.148  16.730  0.5910 -1.0918 -0.1333
12595TIP3   OH259199   6.642   3.712  11.471 -0.1003  0.1839  0.0543
12595TIP3    H159200   6.712   3.700  11.406 -0.5333  4.3433 -1.4673
12595TIP3    H259201   6.683   3.759  11.543 -0.5252 -0.8945  1.0370
12596TIP3   OH259202   6.518   1.320  14.394  0.1724  0.2443 -0.2128
12596TIP3    H159203   6.438   1.344  14.346 -1.8108 -3.2565  0.9668
12596TIP3    H259204   6.493   1.325  14.486  1.0595 -1.6257  0.1667
12597TIP3   OH259205   2.846   3.009  15.872  0.2638 -0.3876  0.4927
12597TIP3    H159206   2.824   3.053  15.954 -0.9063  0.7552 -0.3892
12597TIP3    H259207   2.780   3.040  15.810  0.7460 -1.7144 -0.7290
12598TIP3   OH259208   1.143   1.728  15.209 -0.2786  0.2049 -0.0263
12598TIP3    H159209   1.229   1.760  15.236  0.1040  1.0295 -2.0724
12598TIP3    H259210   1.110   1.794  15.148 -2.1241 -0.3827  0.2654
12599TIP3   OH259211   0.772   0.179  16.905 -0.6115  0.0016  0.0680
12599TIP3    H159212   0.684   0.144  16.917 -0.5417 -0.0737  0.3770
12599TIP3    H259213   0.828   0.119  16.954 -0.3615 -0.0764 -0.3071
12600TIP3   OH259214   4.484   4.226   1.979 -0.0683 -0.2183 -0.0224
12600TIP3    H159215   4.439   4.276   1.912 -3.4796 -0.8431  1.5761
12600TIP3    H259216   4.535   4.161   1.931 -1.4152  0.1225 -2.0021
12601TIP3   OH259217   0.357   1.985  10.805  0.8184  0.0657  0.2291
12601TIP3    H159218   0.318   1.977  10.892  1.0862 -0.6027  0.2905
12601TIP3    H259219   0.413   1.908  10.796  0.9964  0.2639 -0.4331
12602TIP3   OH259220   0.076   3.640   1.475 -0.1552  0.0525 -0.5511
12602TIP3    H159221   0.011   3.706   1.451  0.8566  0.9763 -0.8313
12602TIP3    H259222   0.129   3.682   1.543  0.9250 -0.1957 -1.2114
12603TIP3   OH259223   2.708   0.914  16.658  0.6473  0.4819 -0.6168
12603TIP3    H159224   2.641   0.847  16.669 -1.0230  2.1541 -0.0233
12603TIP3    H259225   2.722   0.919  16.563 -0.5516  0.5276 -0.8015
12604TIP3   OH259226   1.053   2.726  16.071  0.2930 -0.6181  0.1390
12604TIP3    H159227   1.041   2.811  16.030  1.5819 -0.2704  0.4516
12604TIP3    H259228   0.964   2.692  16.082 -0.4446  1.6919  2.1446
12605TIP3   OH259229   1.749   3.145  15.034 -0.2110 -0.4371 -0.6457
12605TIP3    H159230   1.664   3.178  15.063  0.5812  1.2407 -0.0768
12605TIP3    H259231   1.753   3.055  15.067 -0.9899  0.0876  0.9917
12606TIP3   OH259232   1.410   3.676   2.731  0.2050  0.2206  0.1469
12606TIP3    H159233   1.375   3.632   2.654 -0.8136  1.4348 -0.1066
12606TIP3    H259234   1.491   3.716   2.701  0.9193 -1.0535  0.2720
12607TIP3   OH259235   5.373   3.983  12.714 -0.5246  0.0550  0.1519
12607TIP3    H159236   5.457   3.970  12.671  0.0659 -1.9080  1.7217
12607TIP3    H259237   5.308   3.972  12.645  0.4505  0.6838 -0.9001
12608TIP3   OH259238   5.876   0.060  14.805  0.1320 -0.1719 -0.3662
12608TIP3    H159239   5.877   0.068  14.710 -1.2569  1.8836 -0.2773
12608TIP3    H259240   5.960   0.020  14.827  0.8108  0.0362 -2.3939
12609TIP3   OH259241   0.589   1.500   2.135  0.1995 -1.0473  0.0673
12609TIP3    H159242   0.517   1.551   2.098  2.3033  1.8711 -0.4251
12609TIP3    H259243   0.569   1.496   2.229 -0.1993  0.4728  0.0723
12610TIP3   OH259244   4.090   1.722   5.652  0.3551  0.6462 -0.4236
12610TIP3    H159245   4.052   1.634   5.657  2.9320 -0.5841 -0.8522
12610TIP3    H259246   4.043   1.764   5.581  0.7239 -1.2955 -1.8991
12611TIP3   OH259247   5.764   1.539   4.044 -0.3705 -0.0633  0.2094
12611TIP3    H159248   5.712   1.513   4.120 -0.3159 -0.4152  0.1269
12611TIP3    H259249   5.702   1.543   3.972 -1.1341  3.5360  0.8789
12612TIP3   OH259250   0.816   4.139   2.639  0.6448 -0.6324 -0.1934
12612TIP3    H159251   0.898   4.165   2.597  2.1761  0.4820  3.0922
12612TIP3    H259252   0.842   4.072   2.703 -0.9325 -0.1267  1.0626
12613TIP3   OH259253   2.273   1.366  13.062 -0.2859  0.2261 -0.5142
12613TIP3    H159254   2.312   1.394  13.145 -2.4538  1.0484  0.2962
12613TIP3    H259255   2.323   1.413  12.995  0.0698  1.2875  0.4654
12614TIP3   OH259256   4.831   0.077  15.507 -0.2923 -0.5012 -0.1416
12614TIP3    H159257   4.761   0.043  15.453 -0.5959 -0.8486  0.4599
12614TIP3    H259258   4.837   0.016  15.581  1.5817 -1.2804 -0.8681
12615TIP3   OH259259   4.817   1.200  11.656  0.2416  0.0688  0.5640
12615TIP3    H159260   4.778   1.148  11.586 -1.0140  0.3768  1.0055
12615TIP3    H259261   4.744   1.249  11.693  1.3402  2.0366  0.2715
12616TIP3   OH259262   6.410   3.117   5.431  0.6936  0.1392 -0.6797
12616TIP3    H159263   6.409   3.172   5.352  1.9580  3.8634  1.6619
12616TIP3    H259264   6.487   3.061   5.420  1.3274  1.1807 -1.7113
12617TIP3   OH259265   4.546   6.463  12.228  0.3068  0.2137  1.0891
12617TIP3    H159266   4.477   6.416  12.276  0.6724 -0.2969  1.1241
12617TIP3    H259267   4.583   6.524  12.291  0.2648  0.0899  1.2326
12618TIP3   OH259268   5.891   1.905   3.836  0.2375  0.3154  0.1463
12618TIP3    H159269   5.871   1.813   3.817  3.4809 -0.2037 -1.4052
12618TIP3    H259270   5.869   1.952   3.756  0.1423  0.6132  0.3462
12619TIP3   OH259271   5.593   2.786   0.407 -0.1614  0.0741  0.1281
12619TIP3    H159272   5.517   2.731   0.386  0.4721  0.0160 -2.3417
12619TIP3    H259273   5.651   2.728   0.457 -0.8286 -0.5276  0.2247
12620TIP3   OH259274   1.353   4.815   0.220  0.1332  0.1093  0.5867
12620TIP3    H159275   1.390   4.851   0.300 -1.0362  0.2953  1.0754
12620TIP3    H259276   1.300   4.741   0.249 -0.3095  0.1831  0.0010
12621TIP3   OH259277   0.072   5.934  11.151  0.0739 -0.0256  0.1261
12621TIP3    H159278   0.127   5.978  11.217 -1.8035  1.3030  0.9119
12621TIP3    H259279   0.102   5.970  11.068  0.6363  0.4005  0.5017
12622TIP3   OH259280   6.166   0.634  12.047  0.6585  0.1703  0.4716
12622TIP3    H159281   6.197   0.576  11.978  0.1775  0.3789  0.0693
12622TIP3    H259282   6.093   0.587  12.087  2.1364 -0.8079  2.1512
12623TIP3   OH259283   4.199   1.353   2.067  0.2422  0.1133  0.3243
12623TIP3    H159284   4.248   1.339   1.985  1.0997 -0.8416  0.9702
12623TIP3    H259285   4.116   1.390   2.039  0.2614 -0.7873 -1.0529
12624TIP3   OH259286   3.621   2.826  10.570 -0.2239 -0.4633 -0.4758
12624TIP3    H159287   3.546   2.872  10.607  1.1402 -0.1989  2.1982
12624TIP3    H259288   3.658   2.887  10.506 -0.7767  0.4882  0.0937
12625TIP3   OH259289   4.891   3.082  13.303  0.6135 -0.1461  0.1972
12625TIP3    H159290   4.899   3.142  13.229 -1.4403 -0.5751 -0.4145
12625TIP3    H259291   4.935   3.002  13.275 -0.6294 -0.4969 -0.7965
12626TIP3   OH259292   6.716   1.707   1.856  0.1586 -0.2377 -0.0897
12626TIP3    H159293   6.755   1.772   1.798 -2.9946  2.7941  0.8133
12626TIP3    H259294   6.623   1.731   1.860 -0.3979 -2.1712  3.7682
12627TIP3   OH259295   6.750   2.177  16.738 -0.1854  0.0519 -0.4432
12627TIP3    H159296   6.755   2.258  16.789 -0.0924 -0.1025 -0.2018
12627TIP3    H259297   6.787   2.199  16.653  0.2554  0.1483 -0.2316
12628TIP3   OH259298   1.311   3.421   2.254  0.4007  0.6733  0.2691
12628TIP3    H159299   1.312   3.372   2.171 -0.0936  1.1270 -0.0074
12628TIP3    H259300   1.241   3.381   2.305 -0.4635  1.5151 -0.2252
12629TIP3   OH259301   4.358   3.970  16.209  0.1735 -0.3147 -0.4700
12629TIP3    H159302   4.271   3.987  16.172 -0.1103  0.5824  0.5732
12629TIP3    H259303   4.341   3.920  16.289  0.5759  0.2361 -0.0286
12630TIP3   OH259304   4.358   1.813   2.505  0.4943  0.0033 -0.1281
12630TIP3    H159305   4.444   1.776   2.484  0.4497 -0.5679  0.6812
12630TIP3    H259306   4.304   1.791   2.428  0.9137 -0.1475 -0.3848
12631TIP3   OH259307   5.896   4.431   2.417 -0.2012  0.3992 -0.0732
12631TIP3    H159308   5.865   4.421   2.327  1.3359  2.3211 -0.9097
12631TIP3    H259309   5.991   4.438   2.409 -0.0002  0.2512  1.7487
12632TIP3   OH259310   2.303   1.527   1.408 -0.0355 -0.6982 -0.6922
12632TIP3    H159311   2.384   1.565   1.442 -1.1438  0.3385  0.9423
12632TIP3    H259312   2.253   1.601   1.374  0.6070 -1.5920 -3.9218
12633TIP3   OH259313   5.734   1.974  10.765  0.0638 -0.6771  0.2499
12633TIP3    H159314   5.668   1.988  10.833  0.0628 -0.4852  0.2088
12633TIP3    H259315   5.761   1.882  10.776 -0.0204 -0.6795  0.4339
12634TIP3   OH259316   4.813   2.143  15.556  0.5531  0.2489  0.2011
12634TIP3    H159317   4.723   2.154  15.589  0.6889  1.3619  0.2546
12634TIP3    H259318   4.803   2.138  15.461  0.3275 -0.9901  0.2801
12635TIP3   OH259319   2.063   6.283  12.738 -0.0263  0.2559  0.3745
12635TIP3    H159320   2.144   6.272  12.786 -0.0024 -1.5546 -0.0351
12635TIP3    H259321   2.019   6.199  12.744 -0.6026  0.3454 -1.7019
12636TIP3   OH259322   4.845   3.731   6.217 -0.6528  0.1668  0.2999
12636TIP3    H159323   4.885   3.734   6.304  1.3960 -0.8105 -0.5561
12636TIP3    H259324   4.814   3.640   6.208 -0.0183  0.0067 -0.3326
12637TIP3   OH259325   1.079   6.398  12.528  0.6347 -0.0339 -0.0482
12637TIP3    H159326   1.136   6.323  12.545 -0.2116 -0.1458  2.7025
12637TIP3    H259327   0.995   6.359  12.503  0.6849  0.0383 -0.3296
12638TIP3   OH259328   2.799   5.774  12.053 -0.2467  0.0834  0.5202
12638TIP3    H159329   2.795   5.868  12.034 -0.8285  0.2402  1.3545
12638TIP3    H259330   2.713   5.741  12.029  0.0695 -0.3148 -0.0985
12639TIP3   OH259331   2.680   1.655  14.123 -0.2619  0.0037 -0.3170
12639TIP3    H159332   2.586   1.645  14.141  0.0828 -1.2384  0.9894
12639TIP3    H259333   2.708   1.724  14.182 -0.3051  0.1897 -0.5144
12640TIP3   OH259334   0.307   6.107   1.919  0.3831  0.2685  0.4605
12640TIP3    H159335   0.308   6.069   1.831  0.8491 -0.8890  0.9578
12640TIP3    H259336   0.275   6.196   1.905  0.1208 -0.0032 -0.8392
12641TIP3   OH259337   2.390   5.395   4.357 -0.2472 -0.1623  0.3809
12641TIP3    H159338   2.404   5.468   4.417 -1.6092  1.0465 -0.6863
12641TIP3    H259339   2.311   5.353   4.389 -0.9065  0.4099 -0.4426
12642TIP3   OH259340   5.711   0.903   1.683  0.1248 -0.0626 -0.6771
12642TIP3    H159341   5.734   0.942   1.768 -1.7193 -1.3555  0.4832
12642TIP3    H259342   5.773   0.832   1.671 -0.3488 -0.6388  0.2049
12643TIP3   OH259343   1.499   4.065  16.799 -0.1316  0.1927  0.5298
12643TIP3    H159344   1.527   3.976  16.818  0.3937  0.3187  0.3682
12643TIP3    H259345   1.570   4.120  16.832 -0.8923  0.6095  1.5223
12644TIP3   OH259346   2.906   5.356   0.013 -0.5076  0.2469  0.1573
12644TIP3    H159347   2.901   5.308   0.096 -1.4642 -0.3909 -0.2546
12644TIP3    H259348   2.969   5.306  -0.039 -0.9754 -0.1689 -0.0151
12645TIP3   OH259349   3.623   1.366   4.769 -0.5533  0.3495 -0.7031
12645TIP3    H159350   3.556   1.352   4.701 -1.6251 -0.5315  0.4798
12645TIP3    H259351   3.619   1.460   4.787 -1.2516  0.3563 -0.8648
12646TIP3   OH259352   3.439   6.088   5.069 -0.1622  0.4586 -0.1034
12646TIP3    H159353   3.425   6.018   5.132  0.3901  0.5294  0.1012
12646TIP3    H259354   3.515   6.136   5.102 -1.2255  1.8759  0.3974
12647TIP3   OH259355   5.910   5.896   5.040  0.1085 -0.6488 -0.4992
12647TIP3    H159356   5.835   5.931   4.991  0.4465 -0.5885 -0.9792
12647TIP3    H259357   5.887   5.804   5.055 -0.0082 -0.6645 -0.7575
12648TIP3   OH259358   0.998   4.053   0.413  0.3688 -0.4931 -0.1365
12648TIP3    H159359   0.989   3.982   0.477  0.0920 -1.1207 -0.8518
12648TIP3    H259360   0.940   4.027   0.341 -0.1051  0.7052 -0.1993
12649TIP3   OH259361   0.471   6.245  14.043  0.1821 -0.3159 -0.3067
12649TIP3    H159362   0.505   6.233  13.954  0.4526 -1.2561 -0.0895
12649TIP3    H259363   0.545   6.280  14.092  0.2249 -0.4175 -0.2992
12650TIP3   OH259364   5.751   4.753   4.680 -0.4265  0.3325 -0.4803
12650TIP3    H159365   5.812   4.765   4.753 -1.5120 -1.5843  0.8352
12650TIP3    H259366   5.801   4.703   4.615 -0.3863 -0.7378  0.3461
12651TIP3   OH259367   4.100   5.216   5.448  0.5036 -0.2918  0.4917
12651TIP3    H159368   4.112   5.136   5.396  0.0671 -0.6683  0.9626
12651TIP3    H259369   4.066   5.280   5.386 -0.4678 -0.8755  0.4065
12652TIP3   OH259370   3.010   0.296  16.880  0.1603 -0.0605  0.0510
12652TIP3    H159371   2.971   0.361  16.822 -1.2353 -0.9383 -0.0392
12652TIP3    H259372   3.038   0.345  16.957 -1.5993  0.5592  0.3331
12653TIP3   OH259373   0.276   4.549  15.619 -0.1627  0.5090  0.6076
12653TIP3    H159374   0.241   4.461  15.637 -1.7563  0.6397 -1.4374
12653TIP3    H259375   0.352   4.533  15.563  0.4551  0.4053  1.4540
12654TIP3   OH259376   4.208   5.286  15.857 -0.2665  0.0300  0.2272
12654TIP3    H159377   4.186   5.208  15.909 -1.5350  0.1063 -0.1557
12654TIP3    H259378   4.249   5.250  15.778 -2.0612 -0.3720 -0.5641
12655TIP3   OH259379   2.512   4.983  16.362 -0.4415  0.2489  0.4484
12655TIP3    H159380   2.513   4.923  16.437 -0.2754  0.1040  0.3319
12655TIP3    H259381   2.558   5.061  16.392  1.9153 -0.7577 -0.2754
12656TIP3   OH259382   2.989   6.132  10.913  0.1898 -0.3125 -0.1335
12656TIP3    H159383   3.023   6.044  10.894  1.7709 -0.2273  1.8955
12656TIP3    H259384   3.034   6.189  10.850 -0.8142 -0.9018 -1.4317
12657TIP3   OH259385   1.852   3.684   3.562  0.2908 -0.1618 -0.2497
12657TIP3    H159386   1.844   3.694   3.467  0.0310 -0.8878 -0.3071
12657TIP3    H259387   1.880   3.771   3.592 -2.4044  0.9429 -0.6514
12658TIP3   OH259388   3.158   4.238  16.248 -0.2759 -0.4875  0.0124
12658TIP3    H159389   3.070   4.205  16.229  0.0879 -0.5674 -1.6937
12658TIP3    H259390   3.193   4.263  16.163  1.1206  0.1607  0.7454
12659TIP3   OH259391   6.036   1.855   3.084  0.1347  0.1602  0.5709
12659TIP3    H159392   6.054   1.776   3.134 -0.7949  0.6345  1.6984
12659TIP3    H259393   5.962   1.831   3.028  2.2129 -0.8885 -1.9094
12660TIP3   OH259394   6.372   4.150   5.581 -0.3708  0.3762 -0.3688
12660TIP3    H159395   6.289   4.128   5.623 -1.0693 -0.9323 -2.2827
12660TIP3    H259396   6.348   4.217   5.516  0.3630  1.1177  0.1132
12661TIP3   OH259397   6.774   1.097  11.276  0.5974 -0.1332 -0.1027
12661TIP3    H159398   6.694   1.118  11.227 -0.6566 -1.8539  1.0847
12661TIP3    H259399   6.752   1.117  11.367  1.0332 -1.8574  0.4102
12662TIP3   OH259400   1.744   4.467   6.071  0.2243 -0.4407  0.2871
12662TIP3    H159401   1.749   4.381   6.029  0.2907  0.5558 -1.8977
12662TIP3    H259402   1.656   4.470   6.108  0.3792 -1.6098  0.7875
12663TIP3   OH259403   4.579   1.102   4.276 -0.0250  0.3077 -0.4536
12663TIP3    H159404   4.653   1.155   4.303  0.2640  0.4853 -1.5656
12663TIP3    H259405   4.515   1.164   4.241 -0.4263  0.0964 -0.1073
12664TIP3   OH259406   0.419   2.094  11.647  0.3694 -0.3000 -0.0133
12664TIP3    H159407   0.347   2.048  11.603  0.8668  0.3549 -1.5949
12664TIP3    H259408   0.480   2.116  11.577  1.8252 -0.2703  1.2076
12665TIP3   OH259409   2.666   3.349  16.834 -0.0097  0.3524  0.0371
12665TIP3    H159410   2.747   3.391  16.806  1.0359 -1.9367 -0.5956
12665TIP3    H259411   2.667   3.356  16.929 -0.1858  2.2228 -0.0629
12666TIP3   OH259412   6.426   2.903   0.207 -0.0826 -0.1587  0.3901
12666TIP3    H159413   6.480   2.971   0.247  0.3695 -0.4995  0.3664
12666TIP3    H259414   6.455   2.822   0.248  1.8763 -0.8300 -2.0440
12667TIP3   OH259415   2.170   3.522   1.766  0.0860 -0.0855 -0.2836
12667TIP3    H159416   2.255   3.546   1.803  1.0764  1.8083 -3.4058
12667TIP3    H259417   2.184   3.436   1.727  0.1415 -0.3607  0.3235
12668TIP3   OH259418   1.925   0.165  14.158 -0.6761 -0.0971 -0.4370
12668TIP3    H159419   1.940   0.171  14.252 -1.5333  2.5534 -0.3718
12668TIP3    H259420   2.012   0.166  14.119 -0.3379  0.7187  0.3066
12669TIP3   OH259421   5.465   4.494  12.391 -0.3657  0.1571  0.0900
12669TIP3    H159422   5.436   4.408  12.359  0.0809  0.2200 -0.5051
12669TIP3    H259423   5.514   4.474  12.471 -1.8446  0.0360  1.0036
12670TIP3   OH259424   5.716   5.586   6.437 -0.2676  0.4815  0.6047
12670TIP3    H159425   5.631   5.590   6.483 -0.3739 -0.0895  0.4550
12670TIP3    H259426   5.714   5.503   6.390  0.5032  0.3281  0.8359
12671TIP3   OH259427   5.981   3.520  12.413  0.6844 -0.1774  0.3402
12671TIP3    H159428   6.074   3.539  12.400  1.0144 -1.0354  1.3025
12671TIP3    H259429   5.957   3.571  12.490  0.3265  0.1423  0.0157
12672TIP3   OH259430   3.939   2.545  12.501 -0.2551 -0.2365  0.1125
12672TIP3    H159431   4.008   2.522  12.564 -0.1050 -1.5469 -0.5017
12672TIP3    H259432   3.891   2.616  12.544  1.3721  0.6201  0.6221
12673TIP3   OH259433   5.137   3.411  13.303 -0.0109 -0.2837  0.2674
12673TIP3    H159434   5.208   3.474  13.310 -0.4702  0.1582  1.0600
12673TIP3    H259435   5.058   3.464  13.297 -0.5429 -0.7450  2.3970
12674TIP3   OH259436   4.963   0.233  12.016  0.1722  0.1269 -0.0039
12674TIP3    H159437   4.911   0.165  12.059  0.4280 -0.5060 -0.6637
12674TIP3    H259438   5.049   0.229  12.058  0.2048 -0.0090 -0.0812
12675TIP3   OH259439   4.857   1.982   5.669  0.2092 -0.3720  0.4886
12675TIP3    H159440   4.771   2.024   5.659  1.0999  1.4916  0.2914
12675TIP3    H259441   4.879   1.996   5.761  0.2594 -0.9536  0.5666
12676TIP3   OH259442   5.155   4.918  14.317 -0.3090 -0.5085 -0.4161
12676TIP3    H159443   5.224   4.985  14.318 -1.6025  0.9099  1.2618
12676TIP3    H259444   5.196   4.841  14.357 -0.4117  1.2599  3.5887
12677TIP3   OH259445   3.948   5.290  14.961  0.1464  0.3442  0.3621
12677TIP3    H159446   3.929   5.201  14.991  0.6334 -0.8721 -2.6213
12677TIP3    H259447   3.864   5.334  14.963  0.0065  0.1142  2.5142
12678TIP3   OH259448   4.213   1.441   0.872 -0.0424 -0.3196 -0.4655
12678TIP3    H159449   4.240   1.531   0.887  0.0245 -0.4326  0.0935
12678TIP3    H259450   4.118   1.447   0.860  0.2591  0.2134 -3.4547
12679TIP3   OH259451   6.385   6.147  14.974  0.0164 -0.3804  0.3106
12679TIP3    H159452   6.478   6.154  14.953 -0.0435  1.1890  0.4491
12679TIP3    H259453   6.342   6.140  14.889  0.2269 -0.6706  0.2273
12680TIP3   OH259454   3.188   4.926  11.290 -0.3451  0.0795 -0.1056
12680TIP3    H159455   3.184   4.836  11.256  0.9050  0.5412 -1.6152
12680TIP3    H259456   3.105   4.938  11.335 -0.0037 -2.2751  1.3514
12681TIP3   OH259457   0.267   2.591   5.721  0.4233  0.1515  0.0397
12681TIP3    H159458   0.171   2.598   5.716  0.3527 -1.0043 -0.3925
12681TIP3    H259459   0.298   2.664   5.668 -0.2313 -0.0980 -0.7091
12682TIP3   OH259460   3.154   2.717  15.360  0.3820 -0.5113 -0.4838
12682TIP3    H159461   3.218   2.747  15.297  0.6928 -1.7790 -0.7972
12682TIP3    H259462   3.132   2.795  15.412  1.6124  0.0905 -0.8458
12683TIP3   OH259463   4.756   0.571   6.609 -0.3226 -0.4654  0.1112
12683TIP3    H159464   4.843   0.551   6.576  0.5347  1.1350  1.2601
12683TIP3    H259465   4.760   0.664   6.631 -2.2760 -0.4010  0.3483
12684TIP3   OH259466   3.281   0.483   6.007  0.6168  0.0865  0.1373
12684TIP3    H159467   3.349   0.540   6.044  0.0235  1.1712 -0.4243
12684TIP3    H259468   3.225   0.461   6.082  0.2023  1.1655  0.1632
12685TIP3   OH259469   4.806   1.016   0.280  0.3777 -0.5210  0.1711
12685TIP3    H159470   4.774   1.088   0.226  1.4339 -0.8753 -0.9595
12685TIP3    H259471   4.785   1.043   0.370  0.1744  0.8936 -0.2756
12686TIP3   OH259472   0.825   1.597   1.585  0.0369  0.0689 -0.1191
12686TIP3    H159473   0.734   1.609   1.555  0.3841  1.7091 -0.6579
12686TIP3    H259474   0.817   1.578   1.679 -0.8755  0.3519 -0.1279
12687TIP3   OH259475   3.883   6.688  12.324 -0.1692  0.3404 -0.6021
12687TIP3    H159476   3.834   6.759  12.281  0.8957  1.2588 -0.3346
12687TIP3    H259477   3.974   6.705  12.301  0.1370 -0.7495 -0.2285
12688TIP3   OH259478   5.931   1.493   2.872  0.5248  0.1473 -0.1705
12688TIP3    H159479   6.021   1.462   2.879  1.0949  1.3308 -1.6465
12688TIP3    H259480   5.882   1.420   2.833  0.8414 -0.4707  0.5715
12689TIP3   OH259481   0.815   4.364  16.126  0.3584  0.0037  0.0307
12689TIP3    H159482   0.898   4.391  16.166 -0.2992 -0.4301  1.7741
12689TIP3    H259483   0.841   4.317  16.047  1.8285 -0.8897  0.9939
12690TIP3   OH259484   1.079   2.092  16.434 -0.3438 -0.1678 -0.1328
12690TIP3    H159485   1.030   2.135  16.504 -0.6032 -0.1944 -0.2939
12690TIP3    H259486   1.169   2.122  16.445  0.3934 -2.9388  2.4283
12691TIP3   OH259487   5.610   1.151  13.897  0.2911  0.3090  0.1730
12691TIP3    H159488   5.553   1.217  13.858  0.6538  1.1156  0.9621
12691TIP3    H259489   5.642   1.192  13.977 -1.5577 -1.7699  2.1404
12692TIP3   OH259490   5.011   1.738   6.386 -0.9761  0.2221  0.1020
12692TIP3    H159491   5.021   1.819   6.436 -0.6288  0.5493 -0.4975
12692TIP3    H259492   4.916   1.728   6.377 -1.0370  0.2821  0.6255
12693TIP3   OH259493   0.012   0.486   5.733 -0.0876  0.0579  0.1969
12693TIP3    H159494   0.070   0.558   5.755  0.1589  0.1900 -0.8367
12693TIP3    H259495  -0.043   0.475   5.810  1.4434 -0.2240  1.2942
12694TIP3   OH259496   5.480   3.145   5.134  0.2582 -0.0917  0.2868
12694TIP3    H159497   5.560   3.098   5.108 -1.5826 -2.7530 -1.0455
12694TIP3    H259498   5.503   3.187   5.217  3.4481  0.5270 -0.7608
12695TIP3   OH259499   4.471   1.635  16.803 -0.0601 -0.4488  0.3637
12695TIP3    H159500   4.399   1.597  16.853 -0.7881 -0.4675 -0.6567
12695TIP3    H259501   4.514   1.561  16.761  0.1524 -0.3750  0.4462
12696TIP3   OH259502   2.382   4.893   5.552  0.3867  0.5033  0.6854
12696TIP3    H159503   2.442   4.862   5.620 -1.1816 -1.9796  1.0477
12696TIP3    H259504   2.309   4.931   5.601 -0.0176  0.1510  0.3568
12697TIP3   OH259505   0.894   0.915  12.543  0.3769  0.0167 -0.9266
12697TIP3    H159506   0.928   0.831  12.573  1.5953  1.1266  1.0244
12697TIP3    H259507   0.803   0.897  12.519  0.6888 -1.8995 -0.8377
12698TIP3   OH259508   6.349   0.951  14.856  0.3682  0.1251  0.3726
12698TIP3    H159509   6.390   0.868  14.832 -1.5282 -0.3359 -1.6962
12698TIP3    H259510   6.260   0.926  14.883 -0.3099  1.4652 -0.5363
12699TIP3   OH259511   6.422   1.356  13.387  0.0936 -0.1177  0.4425
12699TIP3    H159512   6.417   1.364  13.482  0.4557 -1.1504  0.5613
12699TIP3    H259513   6.515   1.343  13.369 -0.1382 -1.4280  0.0948
12700TIP3   OH259514   1.175   0.712  11.931 -0.0723 -0.7418 -0.4599
12700TIP3    H159515   1.157   0.619  11.919 -0.7883 -0.5645 -0.8333
12700TIP3    H259516   1.090   0.751  11.951  0.1633 -0.1179 -0.6261
12701TIP3   OH259517   5.659   5.863   0.741  0.4037  0.4031 -0.0465
12701TIP3    H159518   5.721   5.810   0.691 -0.0560 -0.7705  0.5731
12701TIP3    H259519   5.633   5.933   0.682 -0.5880 -1.2776 -1.6996
12702TIP3   OH259520   5.622   2.588  15.278 -0.0888 -0.4418 -0.3601
12702TIP3    H159521   5.636   2.679  15.305  2.5919 -0.1001 -2.5320
12702TIP3    H259522   5.650   2.537  15.354  1.0408  0.5228 -0.0965
12703TIP3   OH259523   3.609   4.691  17.140 -0.0277  0.0351 -0.5416
12703TIP3    H159524   3.685   4.635  17.126 -0.4027 -0.8192  0.6562
12703TIP3    H259525   3.621   4.725  17.229 -1.0685 -0.1720 -0.3078
12704TIP3   OH259526   4.761   6.777   2.775 -0.1750 -0.5330  0.3391
12704TIP3    H159527   4.695   6.845   2.788 -0.9508 -0.8705 -1.4939
12704TIP3    H259528   4.711   6.696   2.767  0.1703 -0.5760 -2.9083
12705TIP3   OH259529   3.270   4.353  16.650 -0.8612  0.1083 -0.2081
12705TIP3    H159530   3.274   4.362  16.745  0.5221 -0.0999 -0.2316
12705TIP3    H259531   3.315   4.431  16.616  1.9971 -1.5556 -0.5824
12706TIP3   OH259532   2.096   3.806  12.265  0.2032  0.2789 -0.1541
12706TIP3    H159533   2.011   3.773  12.236 -0.0166 -0.5701  1.3002
12706TIP3    H259534   2.114   3.756  12.345  2.0621  0.4588 -0.4161
12707TIP3   OH259535   3.942   0.269   5.717  0.3032  0.2288  0.3180
12707TIP3    H159536   3.920   0.326   5.790  0.9444 -0.6888  1.2608
12707TIP3    H259537   3.876   0.199   5.721 -0.7523  1.0785 -1.0976
12708TIP3   OH259538   2.876   5.910   1.182  0.5979  0.5685  0.0938
12708TIP3    H159539   2.884   5.940   1.092  3.0020 -1.0209 -0.3189
12708TIP3    H259540   2.938   5.964   1.232 -0.8315  1.5523  0.8949
12709TIP3   OH259541   6.324   4.105   1.878  0.4156 -0.0206 -0.1244
12709TIP3    H159542   6.244   4.052   1.866 -0.5623  1.6823 -1.5555
12709TIP3    H259543   6.375   4.089   1.799  0.3496  0.7427 -0.3300
12710TIP3   OH259544   0.098   6.483   2.604  0.1270  0.2971  0.1009
12710TIP3    H159545   0.102   6.576   2.582 -0.2448  0.4299  0.5863
12710TIP3    H259546   0.006   6.459   2.590  0.7291 -0.7675 -3.0781
12711TIP3   OH259547   2.094   6.234   4.286  1.0012  0.5114  0.0284
12711TIP3    H159548   2.175   6.215   4.239 -0.0984 -1.8533 -1.1097
12711TIP3    H259549   2.103   6.189   4.370  1.6866  2.0617  0.8163
12712TIP3   OH259550   3.173   0.136  15.368  0.1936 -0.3182  0.2402
12712TIP3    H159551   3.123   0.190  15.429 -1.8148 -0.9092 -0.8119
12712TIP3    H259552   3.172   0.186  15.286  1.3011 -0.3822  0.1657
12713TIP3   OH259553   6.656   1.091  13.703 -0.2268 -0.0812 -0.2457
12713TIP3    H159554   6.659   1.187  13.708  0.8097 -0.1273  0.4003
12713TIP3    H259555   6.675   1.072  13.611 -1.0747  0.3457 -0.5164
12714TIP3   OH259556   3.354   1.419  13.552  0.2568  0.2416 -0.1313
12714TIP3    H159557   3.431   1.362  13.550  0.6561  0.7759 -1.5307
12714TIP3    H259558   3.374   1.485  13.618  2.0119  1.6361 -1.8906
12715TIP3   OH259559   0.616   4.619   1.683  0.0652  0.0450  0.0064
12715TIP3    H159560   0.672   4.683   1.728 -0.5870  1.0341 -0.5557
12715TIP3    H259561   0.651   4.614   1.594 -0.5187  0.3975 -0.2455
12716TIP3   OH259562   3.343   0.130   0.105  0.0236  0.1118  0.7307
12716TIP3    H159563   3.364   0.069   0.034  0.5414  0.9725  0.1259
12716TIP3    H259564   3.249   0.119   0.120  0.3685 -1.9906  1.7458
12717TIP3   OH259565   1.588   4.567  13.346  0.1547 -0.1079  0.0855
12717TIP3    H159566   1.623   4.570  13.435  0.3304  0.1437  0.0096
12717TIP3    H259567   1.510   4.622  13.348 -0.5205 -1.0423  0.3697
12718TIP3   OH259568   1.066   6.299  15.119  0.4019 -0.1012  0.1680
12718TIP3    H159569   1.048   6.392  15.104  1.0428 -0.0416 -0.3189
12718TIP3    H259570   1.012   6.275  15.194 -3.8239 -0.6197 -2.6516
12719TIP3   OH259571   4.660   3.453  12.564  0.0791  0.3956  0.5798
12719TIP3    H159572   4.571   3.474  12.595  0.3797 -0.0005  1.8004
12719TIP3    H259573   4.710   3.533  12.577 -0.0597  0.5768  0.0223
12720TIP3   OH259574   4.269   2.717  12.444  0.3469 -0.4380  0.4099
12720TIP3    H159575   4.330   2.646  12.422  0.4130 -0.2980  0.1411
12720TIP3    H259576   4.209   2.720  12.370  0.9910  0.5021 -0.0844
12721TIP3   OH259577   5.323   4.126   6.466  0.4960  0.4875  0.0501
12721TIP3    H159578   5.323   4.034   6.491  0.9125  0.4237 -0.1735
12721TIP3    H259579   5.399   4.135   6.409 -0.3143  0.6697 -1.0360
12722TIP3   OH259580   5.329   0.801  12.112 -0.1196  0.1965  0.4061
12722TIP3    H159581   5.389   0.854  12.165  0.1084  0.4945 -0.1367
12722TIP3    H259582   5.275   0.866  12.065  0.0803 -0.0505 -0.1727
12723TIP3   OH259583   3.040   6.115   1.308 -0.5612  0.6468  0.5402
12723TIP3    H159584   3.123   6.070   1.328 -0.9862  0.0458  0.9779
12723TIP3    H259585   3.064   6.178   1.240  0.4967  1.3015  1.4790
12724TIP3   OH259586   3.410   6.527  12.286  0.4769 -0.9220 -0.0261
12724TIP3    H159587   3.337   6.485  12.241 -0.3563  0.7947 -0.3495
12724TIP3    H259588   3.472   6.550  12.216 -0.2335  0.5987 -0.1953
12725TIP3   OH259589   0.355   3.682   0.981 -0.4671  0.5100 -0.0395
12725TIP3    H159590   0.277   3.642   0.943 -0.1324  0.2546 -0.4670
12725TIP3    H259591   0.340   3.679   1.075 -0.2792 -0.9804 -0.0386
12726TIP3   OH259592   2.005   2.915  16.185  0.0897  0.1649 -0.0214
12726TIP3    H159593   1.977   2.833  16.145 -0.1840 -1.5506  3.3189
12726TIP3    H259594   1.924   2.963  16.201  0.1311  0.4508 -0.6153
12727TIP3   OH259595   5.945   2.788  13.538  0.0748 -0.0647  0.6141
12727TIP3    H159596   5.969   2.880  13.529 -1.5394  0.7350  3.2143
12727TIP3    H259597   5.863   2.780  13.489  1.1821 -0.6931 -1.2498
12728TIP3   OH259598   3.545   6.248   2.566 -0.3699  0.3583  0.5012
12728TIP3    H159599   3.604   6.227   2.638  0.3380  0.3845 -0.0668
12728TIP3    H259600   3.516   6.338   2.584 -0.1154  0.4029  0.6900
12729TIP3   OH259601   1.922   4.755   2.503  0.0243  0.9182 -0.6329
12729TIP3    H159602   1.928   4.801   2.420  1.4017  0.4779 -0.7982
12729TIP3    H259603   2.010   4.721   2.518 -0.8926 -1.5784 -0.4834
12730TIP3   OH259604   1.536   1.067  16.982 -0.1983 -0.6004  0.7531
12730TIP3    H159605   1.571   1.006  17.046 -0.9032 -2.7336 -0.7876
12730TIP3    H259606   1.604   1.074  16.916 -0.8790 -1.2828 -0.0412
12731TIP3   OH259607   2.658   0.891  12.994 -0.5721  0.3923 -0.3838
12731TIP3    H159608   2.649   0.985  13.009  1.3095  0.6859 -0.7819
12731TIP3    H259609   2.589   0.851  13.048 -2.0313  2.0181 -0.9513
12732TIP3   OH259610   3.673   4.795   3.704 -0.0439  0.4613 -0.3199
12732TIP3    H159611   3.651   4.882   3.669 -0.6873  0.3886 -0.1149
12732TIP3    H259612   3.597   4.741   3.680  0.3005 -0.0128 -0.3361
12733TIP3   OH259613   1.400   0.137   2.489  0.7302 -0.3554  0.5475
12733TIP3    H159614   1.376   0.067   2.429 -0.4301 -0.2244  0.8420
12733TIP3    H259615   1.496   0.131   2.496  1.2555  1.1982 -3.2605
12734TIP3   OH259616   0.817   1.720  12.865 -0.0828  0.0439  0.2261
12734TIP3    H159617   0.876   1.665  12.813  1.1092  1.2051  0.3035
12734TIP3    H259618   0.812   1.675  12.950  0.2074 -0.3933  0.0208
12735TIP3   OH259619   1.843   1.642   0.343  0.4582 -0.7450  0.5642
12735TIP3    H159620   1.931   1.677   0.328  0.7271 -1.5581  0.1894
12735TIP3    H259621   1.855   1.572   0.406 -0.3030  0.8560  2.6060
12736TIP3   OH259622   1.428   0.134  15.751 -0.3439  0.1542 -0.5115
12736TIP3    H159623   1.340   0.150  15.716 -0.6699 -0.6886 -0.1034
12736TIP3    H259624   1.426   0.172  15.839 -1.1936 -2.1552  0.5496
12737TIP3   OH259625   5.978   5.000  12.602 -0.1663  0.3112  0.7257
12737TIP3    H159626   6.050   5.050  12.563 -0.4836 -0.1556 -0.4961
12737TIP3    H259627   5.905   5.011  12.541  0.0755 -2.5751 -0.2136
12738TIP3   OH259628   4.259   2.755   1.336  0.8018 -0.0245  0.0193
12738TIP3    H159629   4.276   2.741   1.243  1.5714 -0.5017  0.2205
12738TIP3    H259630   4.256   2.666   1.373  0.5144  0.1647  0.4522
12739TIP3   OH259631   2.935   4.918   0.904  0.3413  0.5453  0.5173
12739TIP3    H159632   2.858   4.975   0.895 -0.5226 -0.8135 -1.3749
12739TIP3    H259633   2.932   4.862   0.827  1.7562 -1.3631  1.7639
12740TIP3   OH259634   5.687   0.935   6.273  0.0100 -0.2646  0.2374
12740TIP3    H159635   5.729   0.950   6.358 -0.6057  0.5902  0.3971
12740TIP3    H259636   5.593   0.932   6.293 -0.3158  2.1828 -0.7031
12741TIP3   OH259637   0.180   6.508   1.104  0.0507 -0.0063 -1.1105
12741TIP3    H159638   0.086   6.525   1.101 -0.0741 -0.5677 -0.6705
12741TIP3    H259639   0.190   6.445   1.176  0.5731 -1.0796 -2.0826
12742TIP3   OH259640   4.989   1.666   0.548  0.0091  0.3745  0.7853
12742TIP3    H159641   5.061   1.668   0.486 -1.1658 -1.7490 -0.8051
12742TIP3    H259642   4.914   1.702   0.500 -0.7509 -0.5968  1.1915
12743TIP3   OH259643   1.323   1.843  16.517 -0.2522 -0.2608  0.1954
12743TIP3    H159644   1.248   1.843  16.458  0.4962 -2.7496 -0.9165
12743TIP3    H259645   1.297   1.785  16.589  0.2887 -0.5394  0.1789
12744TIP3   OH259646   4.166   0.382   2.258 -0.1055  0.4301  0.3528
12744TIP3    H159647   4.101   0.315   2.236 -1.7710  2.2238 -0.5530
12744TIP3    H259648   4.244   0.333   2.283 -2.4429 -1.9913  4.0127
12745TIP3   OH259649   1.331   4.365   4.506  0.6059 -0.0948 -0.3815
12745TIP3    H159650   1.408   4.421   4.492  1.7594 -0.6864  2.8407
12745TIP3    H259651   1.367   4.277   4.517 -0.7131 -0.6474 -0.3352
12746TIP3   OH259652   3.254   3.913   4.031 -0.6029  0.4803  0.3674
12746TIP3    H159653   3.166   3.950   4.017  0.2374  2.5263  0.1224
12746TIP3    H259654   3.309   3.958   3.967  0.4030 -1.8696 -0.5166
12747TIP3   OH259655   3.848   2.843  11.682  0.3195  0.3814 -0.2686
12747TIP3    H159656   3.884   2.925  11.715  0.1077  0.3064  0.1546
12747TIP3    H259657   3.860   2.781  11.753 -0.5898  0.3437 -0.1301
12748TIP3   OH259658   5.613   1.261   0.143 -0.1887 -1.1877  0.5531
12748TIP3    H159659   5.588   1.199   0.211 -1.1069 -0.4070  0.9482
12748TIP3    H259660   5.680   1.215   0.092  1.1871 -1.5015  2.4916
12749TIP3   OH259661   0.103   5.016  14.783 -0.1125 -0.1455 -0.3708
12749TIP3    H159662   0.015   5.052  14.783 -0.0993 -0.0269  1.5104
12749TIP3    H259663   0.135   5.030  14.694 -0.9986  2.2660 -0.3593
12750TIP3   OH259664   0.639   6.418  12.669  0.0606  0.0262  0.3698
12750TIP3    H159665   0.628   6.411  12.575 -3.4758  0.9635  0.5700
12750TIP3    H259666   0.620   6.330  12.702 -0.3314  0.0734  0.2779
12751TIP3   OH259667   4.525   0.679  13.339 -0.2698  0.5849  0.2599
12751TIP3    H159668   4.457   0.639  13.393 -0.2412 -0.7177 -0.6195
12751TIP3    H259669   4.492   0.669  13.249  1.8298 -1.6667 -0.3450
12752TIP3   OH259670   6.462   1.943   4.613 -0.5785 -0.0029 -0.3858
12752TIP3    H159671   6.524   1.936   4.541 -1.2269  3.3451 -1.4561
12752TIP3    H259672   6.376   1.950   4.571 -1.4366 -1.7301  0.9444
12753TIP3   OH259673   5.817   0.232   0.921  0.4451 -0.1241  0.0699
12753TIP3    H159674   5.814   0.141   0.949  0.8725 -0.1652 -0.0127
12753TIP3    H259675   5.873   0.275   0.986  0.1580  0.1004  0.1695
12754TIP3   OH259676   5.691   3.022   1.691 -0.2872 -0.0832  0.3328
12754TIP3    H159677   5.663   3.113   1.685  0.2458  0.1301  0.9937
12754TIP3    H259678   5.786   3.027   1.704 -0.4147 -0.6947  1.5688
12755TIP3   OH259679   1.926   4.210  16.256 -0.5318  0.0524  0.2279
12755TIP3    H159680   1.929   4.284  16.196  0.5490 -0.0635  0.1195
12755TIP3    H259681   1.867   4.237  16.326 -0.1284  1.0263  0.2006
12756TIP3   OH259682   6.515   2.046  15.789  0.0578  0.2216 -0.3639
12756TIP3    H159683   6.518   2.131  15.744 -0.6967 -0.6750 -2.2170
12756TIP3    H259684   6.442   1.999  15.747  1.8662 -2.1973 -1.0450
12757TIP3   OH259685   4.212   2.862  10.704  0.4841 -0.0607  0.5043
12757TIP3    H159686   4.208   2.859  10.608 -2.3367  1.1384  0.4934
12757TIP3    H259687   4.264   2.941  10.722  2.0005 -0.8989  0.0452
12758TIP3   OH259688   1.370   4.850   2.793 -0.4090  0.3349  0.4274
12758TIP3    H159689   1.427   4.859   2.869  0.4698  0.8308 -0.2716
12758TIP3    H259690   1.344   4.758   2.793 -1.5112  0.6056  2.0678
12759TIP3   OH259691   0.988   3.853  13.543  0.0483  0.0449 -0.1139
12759TIP3    H159692   1.012   3.765  13.572 -0.8500 -0.2831 -0.3319
12759TIP3    H259693   0.892   3.856  13.552  0.0106  0.7872 -0.6894
12760TIP3   OH259694   0.606   1.031  14.249  0.6081  0.4171  0.0055
12760TIP3    H159695   0.602   0.953  14.194 -0.2794 -0.0143  0.6696
12760TIP3    H259696   0.515   1.054  14.266  0.8525  0.2624  1.6947
12761TIP3   OH259697   1.946   5.267   1.396 -0.1776 -0.0410  0.0446
12761TIP3    H159698   1.859   5.228   1.390 -1.2077  2.2817 -2.1577
12761TIP3    H259699   1.995   5.226   1.325  1.4089 -2.9354  2.5590
12762TIP3   OH259700   4.507   3.971   0.563 -0.1785 -0.2504 -0.5528
12762TIP3    H159701   4.504   3.886   0.607 -1.6576 -0.1376 -0.3723
12762TIP3    H259702   4.549   3.952   0.479  0.8218 -0.8653  0.0650
12763TIP3   OH259703   5.456   5.745  12.676  0.1652  0.4091  0.0820
12763TIP3    H159704   5.405   5.759  12.597  1.3010 -0.5466 -0.8514
12763TIP3    H259705   5.530   5.691  12.648 -0.2167 -1.2782  2.0830
12764TIP3   OH259706   0.755   5.652  16.989 -0.4377  0.2632  0.1025
12764TIP3    H159707   0.838   5.604  16.997 -0.9064 -0.7205 -0.6904
12764TIP3    H259708   0.730   5.641  16.898 -1.2013  0.9666  0.2198
12765TIP3   OH259709   4.740   5.517   3.918 -0.0034  0.1422 -0.7694
12765TIP3    H159710   4.673   5.451   3.903  0.1334 -0.0777 -0.4160
12765TIP3    H259711   4.798   5.478   3.983 -0.5925  1.0718  0.3539
12766TIP3   OH259712   3.375   6.198   1.494 -1.3072 -0.8491  0.2058
12766TIP3    H159713   3.297   6.242   1.526 -0.7910 -0.1716  0.5723
12766TIP3    H259714   3.350   6.107   1.485 -2.0533 -0.6866  0.6058
12767TIP3   OH259715   3.314   2.575  14.586  0.4627  0.1357 -0.0645
12767TIP3    H159716   3.252   2.545  14.520  1.5660 -0.2354 -0.9641
12767TIP3    H259717   3.350   2.495  14.624  2.0732  0.2807 -1.1897
12768TIP3   OH259718   5.316   1.465   5.603  0.7104  0.6542  0.3053
12768TIP3    H159719   5.358   1.510   5.676 -0.6737  1.7771  0.4513
12768TIP3    H259720   5.230   1.439   5.637 -0.1129  1.5581 -1.0348
12769TIP3   OH259721   1.027   3.932   3.557 -0.0447 -0.2662  0.3144
12769TIP3    H159722   1.009   3.890   3.642  1.2582 -1.9351 -0.1746
12769TIP3    H259723   1.036   4.025   3.577 -0.2253 -0.5684  1.9229
12770TIP3   OH259724   6.084   2.523  10.672 -0.1718  0.0717  0.2890
12770TIP3    H159725   6.091   2.469  10.750 -0.7121 -0.3064  0.0907
12770TIP3    H259726   6.098   2.462  10.599  2.1443  0.7410  0.0998
12771TIP3   OH259727   6.269   2.431  16.849  0.0544 -0.6622  0.0990
12771TIP3    H159728   6.362   2.440  16.829 -0.0707 -2.4290 -1.6316
12771TIP3    H259729   6.265   2.361  16.914 -0.1608 -3.5038 -2.7075
12772TIP3   OH259730   2.777   2.056  15.904  0.5602  0.3235  0.2822
12772TIP3    H159731   2.806   2.101  15.984  0.3276  0.8921  0.0537
12772TIP3    H259732   2.799   2.117  15.834  0.9330 -0.2560 -0.1084
12773TIP3   OH259733   5.619   4.037  15.671  0.8394  0.0374 -0.6391
12773TIP3    H159734   5.626   3.942  15.661 -0.7774 -0.1521 -0.1539
12773TIP3    H259735   5.540   4.051  15.724 -0.6497  1.7475 -3.0805
12774TIP3   OH259736   5.288   6.603  15.864  0.1290  0.0729 -0.2949
12774TIP3    H159737   5.295   6.679  15.806  0.5350 -1.4975 -2.4503
12774TIP3    H259738   5.244   6.537  15.811  1.1938 -1.7026  0.9371
12775TIP3   OH259739   0.719   6.313  11.493 -0.1393  0.1790  0.7662
12775TIP3    H159740   0.675   6.363  11.424  0.0321  1.4028  1.5151
12775TIP3    H259741   0.698   6.359  11.574  0.3065 -0.7851  1.4546
12776TIP3   OH259742   6.554   4.536  14.625 -0.2705  0.0037  0.0432
12776TIP3    H159743   6.648   4.517  14.634 -0.5025 -1.1335  0.2175
12776TIP3    H259744   6.521   4.533  14.715 -0.5433  0.0207 -0.0568
12777TIP3   OH259745   4.671   4.710   4.325  0.0548 -0.3264 -0.2213
12777TIP3    H159746   4.631   4.795   4.345  0.2979 -0.5094  1.1003
12777TIP3    H259747   4.672   4.663   4.408 -1.7973 -2.3891 -1.2808
12778TIP3   OH259748   2.805   2.716  12.053 -0.4679  0.0940  0.3502
12778TIP3    H159749   2.715   2.681  12.054 -0.8209  0.8770 -1.3577
12778TIP3    H259750   2.858   2.643  12.020 -0.9984  0.6244 -1.8327
12779TIP3   OH259751   5.746   0.118  13.746  0.1816 -0.2251 -0.4142
12779TIP3    H159752   5.719   0.041  13.796  0.5448 -0.9339 -1.2808
12779TIP3    H259753   5.684   0.187  13.772 -0.5217 -0.9697 -0.0801
12780TIP3   OH259754   1.074   1.502   2.929  0.0508 -0.1048 -0.1723
12780TIP3    H159755   1.149   1.559   2.949 -0.5820  1.0928 -1.0595
12780TIP3    H259756   1.007   1.529   2.991 -0.3450  0.3364 -0.7800
12781TIP3   OH259757   4.900   6.126  16.179 -0.6120 -0.1360 -0.1274
12781TIP3    H159758   4.880   6.160  16.092  1.2120  0.6760 -0.2950
12781TIP3    H259759   4.844   6.050  16.190 -0.9731 -0.1651 -1.9582
12782TIP3   OH259760   5.756   6.151   0.280  0.1727 -0.0462 -0.4455
12782TIP3    H159761   5.750   6.218   0.213 -1.1766 -0.3657 -0.6745
12782TIP3    H259762   5.665   6.132   0.304  0.3501 -3.0901 -1.7181
12783TIP3   OH259763   2.515   2.119   2.032 -0.4144  0.4478  0.2353
12783TIP3    H159764   2.520   2.054   2.102  0.0274 -0.1625 -0.3406
12783TIP3    H259765   2.508   2.203   2.077 -0.3137  0.0537  1.0043
12784TIP3   OH259766   6.551   3.568   3.208  0.8508  0.1640 -0.1077
12784TIP3    H159767   6.549   3.589   3.301  0.5004  0.3284 -0.1496
12784TIP3    H259768   6.466   3.529   3.190  0.2473  1.6559 -0.6960
12785TIP3   OH259769   0.702   2.654   5.666 -0.2526  0.4096  0.2244
12785TIP3    H159770   0.661   2.588   5.723  1.0126 -0.6833 -0.0998
12785TIP3    H259771   0.702   2.615   5.579  1.8342  0.1789  0.2823
12786TIP3   OH259772   6.055   4.885   2.582 -0.1643  0.6944  0.0049
12786TIP3    H159773   6.098   4.826   2.519  1.7679  0.8440  1.1126
12786TIP3    H259774   6.119   4.954   2.597 -1.8183  2.3309 -0.1576
12787TIP3   OH259775   0.935   2.498  13.514 -0.1082  0.0682 -0.3941
12787TIP3    H159776   0.964   2.496  13.422  0.1406 -0.5514 -0.3111
12787TIP3    H259777   0.852   2.450  13.513 -1.5863  2.4700 -0.7610
12788TIP3   OH259778   1.706   3.810  11.992 -0.1027 -0.0557 -0.4134
12788TIP3    H159779   1.767   3.777  12.058  1.8110  1.4042 -1.3588
12788TIP3    H259780   1.637   3.853  12.042 -0.4791 -1.8381  0.6876
12789TIP3   OH259781   6.275   0.737  14.563 -0.9185 -0.4131 -0.0513
12789TIP3    H159782   6.190   0.762  14.599 -0.0817  1.4843  0.7646
12789TIP3    H259783   6.264   0.747  14.469 -1.3565  0.7603  0.1002
12790TIP3   OH259784   0.012   4.641   5.907  0.5749  0.0700 -0.2456
12790TIP3    H159785  -0.082   4.632   5.891  0.4827 -1.9720  1.1105
12790TIP3    H259786   0.022   4.728   5.946 -0.7135  0.3837 -0.5873
12791TIP3   OH259787   2.313   2.648  14.609 -0.3015 -0.5734 -0.0575
12791TIP3    H159788   2.230   2.639  14.562 -0.4999 -0.2353  0.2217
12791TIP3    H259789   2.375   2.597  14.558 -0.5656 -0.4027 -0.5581
12792TIP3   OH259790   1.609   6.203   4.214  0.5027  0.4716  0.7074
12792TIP3    H159791   1.650   6.150   4.283  1.0485 -1.0573 -0.7217
12792TIP3    H259792   1.553   6.265   4.262  1.2162 -0.2080  2.5315
12793TIP3   OH259793   5.678   2.953  11.350 -0.3283 -0.6963  0.2847
12793TIP3    H159794   5.677   2.866  11.311 -0.7644 -0.5416 -0.0482
12793TIP3    H259795   5.694   2.937  11.443 -1.9115 -1.2372  0.4853
12794TIP3   OH259796   6.467   0.317   1.785 -0.0014 -0.7083  0.0230
12794TIP3    H159797   6.471   0.405   1.823 -3.9221  0.2270 -1.2489
12794TIP3    H259798   6.508   0.325   1.699  0.6890 -0.4528  0.3699
12795TIP3   OH259799   4.886   3.709  15.992  0.6045  0.2694 -0.4591
12795TIP3    H159800   4.884   3.640  16.058 -0.2778 -0.9445 -1.7030
12795TIP3    H259801   4.913   3.787  16.040  1.4763 -0.8873  1.0202
12796TIP3   OH259802   0.156   0.454   1.976 -0.2289 -0.3016 -0.1761
12796TIP3    H159803   0.195   0.394   1.913  2.2637 -0.9132  1.7994
12796TIP3    H259804   0.185   0.541   1.948 -0.7099 -0.3765 -0.9202
12797TIP3   OH259805   4.920   3.563  13.379 -0.1879 -0.6969  0.3585
12797TIP3    H159806   4.871   3.614  13.314  2.2769  0.8860 -0.4359
12797TIP3    H259807   4.941   3.626  13.448 -0.9232 -1.8393  1.6832
12798TIP3   OH259808   1.661   2.477   3.648 -0.2868 -0.0119 -0.1750
12798TIP3    H159809   1.622   2.507   3.566 -0.2971 -0.3834 -0.3073
12798TIP3    H259810   1.660   2.381   3.642  1.3127 -0.0371 -0.5181
12799TIP3   OH259811   3.452   0.196   1.409 -0.2768  0.3405  0.0670
12799TIP3    H159812   3.532   0.244   1.392  0.9029 -2.0270 -1.6281
12799TIP3    H259813   3.416   0.236   1.488  0.9255  3.4380 -0.7902
12800TIP3   OH259814   0.892   5.124  11.404 -0.1001  0.1632  0.6059
12800TIP3    H159815   0.940   5.122  11.322 -0.1937  1.5884  0.4934
12800TIP3    H259816   0.914   5.209  11.443 -4.1277  1.9754 -0.4960
12801TIP3   OH259817   5.820   5.515   6.675  0.3727  0.2439 -0.2504
12801TIP3    H159818   5.768   5.554   6.605  1.1604  0.9125 -0.4748
12801TIP3    H259819   5.832   5.586   6.738 -1.0705 -0.5812  1.0274
12802TIP3   OH259820   1.558   1.376   4.641 -0.1518 -0.1557  0.5006
12802TIP3    H159821   1.485   1.430   4.611  0.9687  1.0954 -0.0914
12802TIP3    H259822   1.567   1.308   4.574 -2.7788 -2.3672  2.1919
12803TIP3   OH259823   1.247   0.731   4.112  0.3144 -0.3989  0.2368
12803TIP3    H159824   1.250   0.652   4.056  1.2776 -0.4110  0.2894
12803TIP3    H259825   1.337   0.761   4.115 -0.2875  1.9280 -1.4915
12804TIP3   OH259826   6.462   6.155  11.797  0.1727 -0.1023 -0.2063
12804TIP3    H159827   6.483   6.241  11.760  0.8760  0.1215  0.6791
12804TIP3    H259828   6.368   6.145  11.785  0.0970  0.7645 -0.3673
12805TIP3   OH259829   6.356   2.530   4.144 -0.2661  0.3043  0.4444
12805TIP3    H159830   6.277   2.578   4.169 -1.9386 -0.5658 -2.5932
12805TIP3    H259831   6.330   2.438   4.146  1.2866 -0.1532  1.1689
12806TIP3   OH259832   4.803   1.347   2.427  0.0794 -0.7359 -0.3067
12806TIP3    H159833   4.763   1.288   2.363 -0.5635 -0.7454  0.0930
12806TIP3    H259834   4.840   1.418   2.374 -0.8259 -0.5177 -0.6653
12807TIP3   OH259835   6.268   0.864   2.121  0.3642  0.1746  0.3679
12807TIP3    H159836   6.262   0.906   2.036 -0.2671 -0.1594  0.2477
12807TIP3    H259837   6.182   0.875   2.160  0.5369 -0.0110  0.8110
12808TIP3   OH259838   5.344   3.948  11.395 -0.4663  0.9263 -0.0377
12808TIP3    H159839   5.274   3.887  11.374 -0.6172  0.6768  1.1287
12808TIP3    H259840   5.301   4.018  11.445  0.2258  0.3435  1.4370
12809TIP3   OH259841   5.364   3.847  16.522  0.2442  0.0030 -0.3195
12809TIP3    H159842   5.344   3.762  16.482  0.4930 -0.3481  0.2786
12809TIP3    H259843   5.381   3.905  16.448  0.0904 -0.4710 -0.7364
12810TIP3   OH259844   2.990   4.108   6.083 -0.9125  0.0965 -0.2748
12810TIP3    H159845   2.924   4.175   6.101  0.3988  1.3424  0.0763
12810TIP3    H259846   2.986   4.050   6.160 -1.6148  0.1324 -0.2786
12811TIP3   OH259847   2.222   3.458  11.577 -0.0213 -0.1691 -0.2824
12811TIP3    H159848   2.142   3.442  11.627  0.0959 -1.0411 -0.3552
12811TIP3    H259849   2.225   3.553  11.567 -0.1591  0.0167  1.1790
12812TIP3   OH259850   2.027   1.972   5.393 -0.0472  0.1671  0.4229
12812TIP3    H159851   2.086   1.948   5.464  0.2721  0.5560  0.2922
12812TIP3    H259852   2.032   1.898   5.332 -0.5540 -0.3014  0.9475
12813TIP3   OH259853   5.206   6.393  15.340  0.5467  0.2703  0.1450
12813TIP3    H159854   5.146   6.361  15.273 -0.5239 -0.4757  1.4119
12813TIP3    H259855   5.290   6.351  15.319  0.0130 -0.6498 -0.2326
12814TIP3   OH259856   2.711   5.486  12.004  0.6287  0.2522 -0.6751
12814TIP3    H159857   2.714   5.432  12.083 -0.3187 -2.1916 -2.2112
12814TIP3    H259858   2.791   5.539  12.008  2.2789 -2.1502  0.3107
12815TIP3   OH259859   1.663   0.113  16.975 -0.2555  0.4132  0.0029
12815TIP3    H159860   1.606   0.097  17.050 -1.0215  2.0385 -0.2034
12815TIP3    H259861   1.646   0.204  16.951  2.8525  1.1656  0.2911
12816TIP3   OH259862   4.266   5.280   1.860  0.2488 -0.9673 -0.0457
12816TIP3    H159863   4.299   5.192   1.878 -1.1811 -1.8822 -1.5719
12816TIP3    H259864   4.176   5.279   1.893 -0.8007 -1.1272 -2.6728
12817TIP3   OH259865   2.743   4.181  12.219  0.0262 -0.0555  0.2440
12817TIP3    H159866   2.812   4.244  12.237  0.2131  0.8901 -3.0415
12817TIP3    H259867   2.669   4.234  12.188 -0.8566 -1.2845  0.1549
12818TIP3   OH259868   6.615   2.822  16.376 -0.2569  0.0041 -0.2167
12818TIP3    H159869   6.708   2.805  16.388 -0.6005 -0.7296  1.7109
12818TIP3    H259870   6.583   2.849  16.462 -1.4923  2.1010 -1.2487
12819TIP3   OH259871   2.932   6.378  14.143 -0.3910 -0.5409 -0.1440
12819TIP3    H159872   3.027   6.390  14.140 -0.7336  2.8163 -1.4084
12819TIP3    H259873   2.911   6.329  14.064  0.1283  0.7115 -1.0906
12820TIP3   OH259874   2.091   6.319  13.656  0.2691  0.1922 -0.0508
12820TIP3    H159875   2.048   6.404  13.654 -0.8922 -0.3168  1.2434
12820TIP3    H259876   2.175   6.335  13.699 -0.1497  0.6312  0.6365
12821TIP3   OH259877   6.258   2.224   3.633  0.4354 -0.6634 -1.0539
12821TIP3    H159878   6.239   2.130   3.624  0.8051 -0.8209 -0.2810
12821TIP3    H259879   6.239   2.260   3.547 -0.0051 -1.3984 -1.2771
12822TIP3   OH259880   4.221   3.707  14.477  0.4952  0.2126  0.0874
12822TIP3    H159881   4.288   3.713  14.546  0.6709 -0.2489 -0.0384
12822TIP3    H259882   4.256   3.642  14.417 -1.1698 -1.8764  1.2603
12823TIP3   OH259883   6.135   0.482  14.458 -0.1529 -0.1499  0.2552
12823TIP3    H159884   6.175   0.557  14.414  0.7407 -1.2263 -0.8538
12823TIP3    H259885   6.094   0.432  14.388 -3.1066  0.6300  1.2918
12824TIP3   OH259886   6.545   2.364   2.559 -0.6421 -0.3486 -0.0192
12824TIP3    H159887   6.624   2.369   2.506 -0.0720 -0.4019  0.8083
12824TIP3    H259888   6.488   2.304   2.511 -0.8593  0.9480 -1.4650
12825TIP3   OH259889   4.298   0.908  16.339  0.1762 -0.6369  0.4586
12825TIP3    H159890   4.267   0.844  16.403  1.0984 -1.6054 -0.0287
12825TIP3    H259891   4.219   0.935  16.291 -0.3395 -0.7782  1.2071
12826TIP3   OH259892   0.426   4.346   1.350 -0.2767  0.2995  0.0330
12826TIP3    H159893   0.474   4.413   1.397 -2.5258  2.0079  0.0790
12826TIP3    H259894   0.408   4.385   1.264 -0.4240 -0.8239 -0.4707
12827TIP3   OH259895   3.506   2.255  15.958  0.8668  0.6445 -0.0901
12827TIP3    H159896   3.581   2.236  15.901  0.8198 -1.6953  0.5093
12827TIP3    H259897   3.544   2.295  16.036  2.0215 -2.9032  1.3956
12828TIP3   OH259898   3.056   5.594   0.454  0.6381 -0.4947 -0.2134
12828TIP3    H159899   3.017   5.680   0.470  0.8653 -0.0496 -1.9196
12828TIP3    H259900   2.984   5.533   0.472 -0.0803  0.1632 -0.7770
12829TIP3   OH259901   3.833   3.400  13.598  0.2115 -0.6830 -0.1817
12829TIP3    H159902   3.892   3.331  13.630  0.0619 -0.5490  0.3932
12829TIP3    H259903   3.872   3.429  13.516  0.5911 -1.0530 -0.1332
12830TIP3   OH259904   0.223   1.410  16.363 -0.0111  0.0178  0.0217
12830TIP3    H159905   0.179   1.392  16.446 -0.2538 -0.4361 -0.1974
12830TIP3    H259906   0.306   1.364  16.369 -0.6542 -1.2761 -0.5590
12831TIP3   OH259907   4.081   0.330  11.493  0.2876 -1.0050 -0.2473
12831TIP3    H159908   4.013   0.299  11.552 -2.0116  1.1024 -1.5965
12831TIP3    H259909   4.136   0.387  11.548 -0.1607 -1.2385  0.4495
12832TIP3   OH259910   3.353   5.471   2.677 -0.2986 -0.1577  0.1348
12832TIP3    H159911   3.342   5.376   2.682 -0.6087 -0.0909  0.8597
12832TIP3    H259912   3.446   5.485   2.696 -0.4129 -0.2684  0.7988
12833TIP3   OH259913   1.421   6.604   2.563  0.1473 -0.0726 -0.0881
12833TIP3    H159914   1.334   6.644   2.571  0.0575 -0.1702 -0.5331
12833TIP3    H259915   1.467   6.629   2.643 -1.2136 -2.2479  1.4792
12834TIP3   OH259916   0.730   2.992   2.381  0.4850 -0.0247  0.3890
12834TIP3    H159917   0.746   3.073   2.430  1.1575  0.1260 -0.0606
12834TIP3    H259918   0.711   3.021   2.292  2.0355 -0.3831 -0.1012
12835TIP3   OH259919   3.678   3.920  15.082  0.1288 -0.6170  0.0300
12835TIP3    H159920   3.705   3.851  15.142 -0.8408 -1.6558 -0.6777
12835TIP3    H259921   3.584   3.906  15.070 -0.0224  0.6232 -0.4065
12836TIP3   OH259922   3.553   4.745   5.324 -0.5241  0.1235 -0.5426
12836TIP3    H159923   3.520   4.656   5.329  0.4397 -0.2340 -0.2264
12836TIP3    H259924   3.536   4.772   5.233 -0.3011 -0.5964 -0.8037
12837TIP3   OH259925   1.008   4.724  13.882 -0.8547 -0.0462 -0.0489
12837TIP3    H159926   1.035   4.788  13.947 -1.7811  1.7308 -1.3379
12837TIP3    H259927   1.040   4.640  13.916 -0.0867  1.0015  1.9548
12838TIP3   OH259928   0.579   0.480  15.345 -0.1576 -0.1479  0.4696
12838TIP3    H159929   0.626   0.523  15.416 -1.3323 -0.2325  1.3312
12838TIP3    H259930   0.614   0.391  15.343  2.7732  0.8872 -1.7657
12839TIP3   OH259931   4.008   2.859  13.028  0.5411 -0.3722 -0.2191
12839TIP3    H159932   4.100   2.844  13.005  0.8095 -0.0534  0.6187
12839TIP3    H259933   3.981   2.932  12.972  0.4967 -1.1103 -1.1851
12840TIP3   OH259934   1.618   1.821   0.503  0.1774  0.0398  0.1916
12840TIP3    H159935   1.702   1.862   0.484  0.1032  0.1362  0.0672
12840TIP3    H259936   1.624   1.733   0.466  0.2746 -0.0016  0.3070
12841TIP3   OH259937   1.259   2.660   3.902  0.0002  0.4977  0.1491
12841TIP3    H159938   1.209   2.716   3.842  1.7342  1.9444 -0.0060
12841TIP3    H259939   1.348   2.663   3.869  1.0424  1.3794  2.7990
12842TIP3   OH259940   2.793   4.516  17.233 -0.5510 -0.0552  0.0534
12842TIP3    H159941   2.820   4.579  17.166 -2.3317  1.0389  0.2933
12842TIP3    H259942   2.849   4.535  17.308  0.3963 -0.2495 -0.5786
12843TIP3   OH259943   0.737   6.568   2.107 -0.0936 -0.4051 -0.4066
12843TIP3    H159944   0.747   6.489   2.054  1.1615  0.0060 -0.8138
12843TIP3    H259945   0.690   6.630   2.051 -1.8540 -1.1159  0.2146
12844TIP3   OH259946   2.841   4.869   2.570 -0.5354  0.5206  0.2596
12844TIP3    H159947   2.884   4.951   2.545  2.2353 -0.7276  0.6150
12844TIP3    H259948   2.833   4.820   2.489  1.8857 -0.5879  0.6062
12845TIP3   OH259949   2.029   0.754   3.556 -0.0019 -0.0461  0.2656
12845TIP3    H159950   2.098   0.812   3.587 -0.4133  0.0150  1.1003
12845TIP3    H259951   2.072   0.698   3.491 -0.0412  2.3996 -1.9971
12846TIP3   OH259952   4.454   3.905  15.714 -0.4394 -0.2585 -1.0158
12846TIP3    H159953   4.401   3.935  15.788 -0.5021 -0.0960 -1.1271
12846TIP3    H259954   4.527   3.966  15.711 -0.7797  0.1240 -1.4935
12847TIP3   OH259955   0.092   4.633   5.011  0.2225 -0.1877 -0.1162
12847TIP3    H159956   0.122   4.700   4.949 -0.5098 -0.8795 -1.2572
12847TIP3    H259957   0.031   4.679   5.069 -1.0944 -0.0469 -1.5516
12848TIP3   OH259958   1.641   3.247  12.077  0.3526 -0.6368 -0.6965
12848TIP3    H159959   1.660   3.215  11.989  1.4863 -1.1572 -0.2799
12848TIP3    H259960   1.595   3.174  12.120 -1.8233  0.2549 -1.3825
12849TIP3   OH259961   5.883   5.745  16.006 -0.2946 -0.1754  0.3873
12849TIP3    H159962   5.947   5.730  15.936 -1.9427  1.1012 -1.4799
12849TIP3    H259963   5.914   5.689  16.078  0.7496 -2.5815 -1.7612
12850TIP3   OH259964   4.009   4.446  12.311  0.1170 -0.1762  0.2097
12850TIP3    H159965   4.061   4.525  12.296 -0.9297  0.1979 -1.9209
12850TIP3    H259966   4.065   4.374  12.281 -0.8710  0.3282 -3.3157
12851TIP3   OH259967   4.778   3.475   4.856 -0.2920 -0.2905  0.0212
12851TIP3    H159968   4.736   3.450   4.938  0.5024 -0.7668  0.2892
12851TIP3    H259969   4.767   3.399   4.799  1.8567 -1.2182  0.7347
12852TIP3   OH259970   0.108   1.464   2.366  0.1681 -0.5008  0.3131
12852TIP3    H159971   0.090   1.395   2.302  1.0073  0.5992 -1.1803
12852TIP3    H259972   0.137   1.538   2.313 -1.9358  1.4790  1.7270
12853TIP3   OH259973   4.833   4.970   1.934 -0.1538  0.1113  0.2626
12853TIP3    H159974   4.895   5.042   1.930 -0.9264  0.7380 -0.6730
12853TIP3    H259975   4.749   5.007   1.907 -0.5718 -1.1191 -0.2504
12854TIP3   OH259976   5.687   1.539  12.568 -0.7742  0.3922 -0.0217
12854TIP3    H159977   5.639   1.473  12.518 -0.3804 -0.3213  0.5225
12854TIP3    H259978   5.736   1.488  12.633  0.9131  1.0618 -0.7267
12855TIP3   OH259979   2.678   1.409  15.864 -0.0439  0.1984  0.2278
12855TIP3    H159980   2.612   1.434  15.800  0.1906 -0.2726 -0.2052
12855TIP3    H259981   2.740   1.483  15.865  1.7151 -1.0677 -2.4754
12856TIP3   OH259982   5.915   2.551   3.433  0.0089  0.4850  0.0076
12856TIP3    H159983   5.903   2.527   3.341  1.5067 -0.8332  0.1126
12856TIP3    H259984   6.006   2.579   3.439  0.4794 -1.1544  1.3845
12857TIP3   OH259985   0.858   3.331  13.155  0.1959 -0.5552 -0.3134
12857TIP3    H159986   0.922   3.264  13.180 -0.7580 -0.8509  1.4906
12857TIP3    H259987   0.782   3.280  13.126  0.3772 -0.2049 -1.4776
12858TIP3   OH259988   5.352   6.444  11.484 -0.5640 -0.8119  0.4013
12858TIP3    H159989   5.444   6.472  11.478 -0.9623  0.3226 -0.8275
12858TIP3    H259990   5.317   6.493  11.558 -0.8974  1.0154 -0.9024
12859TIP3   OH259991   3.695   5.328  11.305 -0.0001  0.0646 -0.5956
12859TIP3    H159992   3.610   5.331  11.350  1.3783  0.2924  2.2570
12859TIP3    H259993   3.724   5.237  11.315  0.4390  0.1785 -0.8186
12860TIP3   OH259994   4.038   0.504   0.119  0.2549  0.3842  0.2372
12860TIP3    H159995   3.964   0.460   0.160  0.1411 -0.5233 -0.8735
12860TIP3    H259996   4.068   0.443   0.052  1.0081  1.4127 -0.4044
12861TIP3   OH259997   6.785   0.712   2.079  0.4059  0.5043  0.2674
12861TIP3    H159998   6.856   0.703   2.016  0.8979  0.8937  0.7637
12861TIP3    H259999   6.738   0.629   2.073  1.5270 -0.1935  0.6777
12862TIP3   OH260000   4.756   5.857   6.351  0.5099 -0.3445  0.6083
12862TIP3    H160001   4.810   5.779   6.337 -0.4431 -0.8323 -0.4362
12862TIP3    H260002   4.741   5.892   6.263  2.6214  2.2430  1.1200
12863TIP3   OH260003   1.331   4.684   1.318 -0.5170 -0.6145 -0.1254
12863TIP3    H160004   1.240   4.703   1.293 -0.3268  0.4534 -0.0718
12863TIP3    H260005   1.330   4.683   1.413 -0.6007 -1.3207 -0.1289
12864TIP3   OH260006   5.311   1.048  14.955 -0.2323 -0.0767 -0.1468
12864TIP3    H160007   5.291   1.029  15.047 -1.2232 -2.9561 -0.8524
12864TIP3    H260008   5.379   1.115  14.959 -1.0689  0.7501  2.6467
12865TIP3   OH260009   2.942   1.200  11.838  0.0080  0.5114  0.5839
12865TIP3    H160010   2.857   1.156  11.837  0.4356 -0.3309  0.9901
12865TIP3    H260011   2.972   1.193  11.928  0.9211  0.0212  0.2525
12866TIP3   OH260012   1.279   4.556   3.103 -0.2931  0.2185  0.2168
12866TIP3    H160013   1.371   4.581   3.108 -0.2240 -0.1062  0.6468
12866TIP3    H260014   1.280   4.468   3.065 -0.3468 -0.2233  1.2136
12867TIP3   OH260015   3.354   0.739   0.858  0.1687  0.2849 -0.7447
12867TIP3    H160016   3.323   0.766   0.945  0.4188 -1.0865 -0.1988
12867TIP3    H260017   3.427   0.797   0.840  0.0658  0.6426 -0.0677
12868TIP3   OH260018   3.099   2.038   0.206  0.3134 -0.3472  0.2323
12868TIP3    H160019   3.048   1.957   0.214 -0.5631  0.2743  1.2132
12868TIP3    H260020   3.075   2.074   0.121 -0.3527 -0.4259  0.3835
12869TIP3   OH260021   5.077   2.332   4.196  0.3860  0.0775 -0.0327
12869TIP3    H160022   5.085   2.412   4.144 -1.7449  0.9729  0.8847
12869TIP3    H260023   5.123   2.351   4.278  0.5213  0.0758 -0.1078
12870TIP3   OH260024   6.236   5.345   5.072  0.0577 -0.3260 -0.1952
12870TIP3    H160025   6.243   5.321   5.164 -1.5855  1.3365  0.4502
12870TIP3    H260026   6.318   5.389   5.051  1.7146 -3.3307 -0.4764
12871TIP3   OH260027   5.199   2.119   5.993  0.2492  0.1063 -0.2317
12871TIP3    H160028   5.254   2.144   6.067  1.0274  2.4531 -1.4846
12871TIP3    H260029   5.229   2.031   5.969  1.9665  0.4625  0.4725
12872TIP3   OH260030   3.959   3.621   1.181  0.5815  0.0889 -0.2274
12872TIP3    H160031   4.007   3.552   1.228 -0.1796  0.3572  0.9774
12872TIP3    H260032   3.912   3.574   1.112  1.1455 -0.4121 -0.2794
12873TIP3   OH260033   1.107   3.766  15.194 -0.3221  0.9144  0.0199
12873TIP3    H160034   1.085   3.761  15.287 -0.9483 -0.9314 -0.1856
12873TIP3    H260035   1.082   3.681  15.159 -1.1467  1.9587 -2.0821
12874TIP3   OH260036   3.447   0.750   3.464  0.2640 -0.6288  0.4350
12874TIP3    H160037   3.447   0.833   3.415 -0.1336 -0.5771  0.5173
12874TIP3    H260038   3.475   0.685   3.400 -0.2326 -0.5559  0.1372
12875TIP3   OH260039   3.918   2.010   1.362 -0.2413 -0.0005  0.5179
12875TIP3    H160040   3.974   2.010   1.284  1.3463 -2.1375  1.5659
12875TIP3    H260041   3.836   1.970   1.332 -0.1306  0.3859 -0.3393
12876TIP3   OH260042   5.873   5.797   3.199  0.3506  0.0675 -0.0334
12876TIP3    H160043   5.806   5.816   3.265  0.4212  2.1330 -0.5153
12876TIP3    H260044   5.891   5.703   3.211  0.2374  0.3090  2.7582
12877TIP3   OH260045   2.764   5.379   2.248  0.9213 -0.2958 -0.1604
12877TIP3    H160046   2.816   5.435   2.306  0.4680 -0.7195  0.6759
12877TIP3    H260047   2.691   5.434   2.221  1.3399  0.0282 -0.6465
12878TIP3   OH260048   6.677   0.284   0.941 -0.2052  0.3944 -0.4724
12878TIP3    H160049   6.746   0.218   0.952 -1.8687 -1.1167  1.8712
12878TIP3    H260050   6.600   0.233   0.915 -0.3216  2.1755 -4.2452
12879TIP3   OH260051   0.934   2.458   3.495 -0.0956 -0.3712 -0.4786
12879TIP3    H160052   0.892   2.414   3.569  0.6860  0.1355  0.3006
12879TIP3    H260053   0.981   2.389   3.449 -1.1549 -0.8105 -0.9273
12880TIP3   OH260054   4.713   5.936   6.610 -0.0318 -0.1535  0.0602
12880TIP3    H160055   4.738   5.913   6.520  0.6852  0.7855 -0.0065
12880TIP3    H260056   4.715   6.032   6.611 -2.0645 -0.0839  0.5407
12881TIP3   OH260057   4.188   3.558   4.337 -0.6662  0.0576 -0.3672
12881TIP3    H160058   4.102   3.516   4.350  0.3819 -1.8864  0.6346
12881TIP3    H260059   4.212   3.591   4.423  0.6138 -1.5334 -0.0729
12882TIP3   OH260060   0.270   1.949   0.490  0.1126  0.0608  0.4150
12882TIP3    H160061   0.341   1.899   0.451  0.8332 -0.2778  2.0662
12882TIP3    H260062   0.237   1.893   0.560 -0.5958  0.9599  0.8203
12883TIP3   OH260063   1.648   3.697  11.583  0.0765  0.0298 -0.0328
12883TIP3    H160064   1.608   3.612  11.568  1.5415 -1.2256  2.4921
12883TIP3    H260065   1.574   3.757  11.592 -0.9764 -0.4937 -3.6368
12884TIP3   OH260066   5.461   3.441  16.523  0.5141 -0.4405  0.6401
12884TIP3    H160067   5.416   3.449  16.607  0.3827  1.4411  0.4324
12884TIP3    H260068   5.502   3.355  16.525 -2.3046 -1.8740  1.2311
12885TIP3   OH260069   0.992   2.895   2.118  0.1672  0.1822  0.2091
12885TIP3    H160070   0.938   2.959   2.070 -1.0352 -1.7875 -1.2035
12885TIP3    H260071   0.969   2.811   2.079  1.3277 -1.2037  2.3541
12886TIP3   OH260072   6.244   1.505   0.909  0.3160 -0.1322 -0.4635
12886TIP3    H160073   6.202   1.516   0.824 -0.1509 -0.7665 -0.3212
12886TIP3    H260074   6.211   1.578   0.962 -0.7960 -0.7300 -0.2922
12887TIP3   OH260075   5.349   2.136  16.346  0.1231  0.3628  0.6747
12887TIP3    H160076   5.290   2.061  16.342  0.3897  0.2048 -0.4930
12887TIP3    H260077   5.437   2.098  16.343  0.3654  0.5446  3.0868
12888TIP3   OH260078   4.950   6.380   3.310  0.8147  0.4585 -0.0333
12888TIP3    H160079   4.981   6.431   3.235 -0.0284  0.8424 -0.1324
12888TIP3    H260080   4.944   6.290   3.278 -1.0535  0.8637 -0.9224
12889TIP3   OH260081   4.086   1.021  16.212 -0.1282  0.0616 -0.1408
12889TIP3    H160082   4.022   0.993  16.147  1.6986 -1.1918 -1.4821
12889TIP3    H260083   4.120   1.103  16.178  0.9154 -0.6553 -0.8771
12890TIP3   OH260084   6.428   3.059   1.353 -0.3721 -0.2433 -0.0351
12890TIP3    H160085   6.391   3.132   1.303  1.6124  0.5490 -0.4657
12890TIP3    H260086   6.434   2.988   1.289  1.1890  0.4447 -0.7161
12891TIP3   OH260087   5.442   0.284  10.707  0.1541 -0.2757 -0.4726
12891TIP3    H160088   5.528   0.256  10.677 -0.8868 -2.0693 -2.0552
12891TIP3    H260089   5.381   0.231  10.655 -1.8867 -1.0905  2.5354
12892TIP3   OH260090   1.862   3.651   1.839  0.0295 -0.1666 -0.2065
12892TIP3    H160091   1.806   3.577   1.817  0.1931 -0.3245 -0.1027
12892TIP3    H260092   1.915   3.619   1.912 -1.0313  0.5884  0.9394
12893TIP3   OH260093   1.441   5.619  16.113  0.0299 -0.4594  0.2711
12893TIP3    H160094   1.476   5.708  16.107  0.7970 -0.8289 -1.3928
12893TIP3    H260095   1.511   5.568  16.153 -0.3039 -0.3827  0.9673
12894TIP3   OH260096   0.614   5.540   1.133  0.0392  0.7801 -0.3190
12894TIP3    H160097   0.585   5.571   1.219  2.3636  1.9953  0.1056
12894TIP3    H260098   0.653   5.454   1.150  1.2490  1.3838  0.0086
12895TIP3   OH260099   5.887   3.014  11.917  0.3201 -0.1271  0.0082
12895TIP3    H160100   5.809   3.000  11.970 -0.5673 -0.4975 -1.3445
12895TIP3    H260101   5.960   3.000  11.977 -0.6420 -0.4573  1.1314
12896TIP3   OH260102   1.160   3.940   2.880  0.4426 -0.0217 -0.3790
12896TIP3    H160103   1.232   4.000   2.862  0.1251  0.8141  0.9530
12896TIP3    H260104   1.138   3.903   2.795  1.3047  1.0143 -1.0880
12897TIP3   OH260105   0.093   5.299   6.019  0.4944  0.1814  0.1638
12897TIP3    H160106   0.102   5.250   5.937  0.7127  0.7357 -0.1484
12897TIP3    H260107   0.056   5.236   6.081 -1.7799  0.3213 -0.9440
12898TIP3   OH260108   0.221   0.779  13.600 -0.3326  0.6161 -0.0894
12898TIP3    H160109   0.279   0.707  13.573 -0.0242  0.7262  0.2691
12898TIP3    H260110   0.202   0.761  13.692 -0.8945  0.5686 -0.2093
12899TIP3   OH260111   3.999   1.609  13.578 -0.7213 -0.8505 -0.3046
12899TIP3    H160112   4.013   1.523  13.619 -0.1127 -0.8275 -0.4608
12899TIP3    H260113   4.071   1.619  13.517  0.2297  0.5379  0.9832
12900TIP3   OH260114   0.287   1.557   5.267 -0.2976 -0.3399 -0.2839
12900TIP3    H160115   0.351   1.525   5.331  0.1665 -0.6307 -0.8812
12900TIP3    H260116   0.313   1.516   5.185 -0.7354  0.2205 -0.7113
12901TIP3   OH260117   2.346   4.308  14.082 -0.2483 -0.3008 -0.2602
12901TIP3    H160118   2.339   4.359  14.163 -1.0355 -1.1910  0.2460
12901TIP3    H260119   2.403   4.235  14.105 -0.6479 -0.6725 -0.4324
12902TIP3   OH260120   3.626   1.233   3.871 -0.3159  0.8136 -0.3252
12902TIP3    H160121   3.613   1.213   3.778  2.5322 -1.6883 -0.3210
12902TIP3    H260122   3.687   1.306   3.872 -0.7743  1.2065 -0.3730
12903TIP3   OH260123   3.149   4.715  12.013  0.6792 -0.0468  0.0294
12903TIP3    H160124   3.218   4.752  12.067  0.2096 -0.3630  0.8714
12903TIP3    H260125   3.087   4.677  12.076  0.1501 -0.4802 -0.7327
12904TIP3   OH260126   5.081   4.313  12.763 -0.1717 -0.4401 -0.2061
12904TIP3    H160127   5.014   4.246  12.750  1.0901 -1.9094  0.4765
12904TIP3    H260128   5.039   4.378  12.820 -0.7883 -1.7402  0.8921
12905TIP3   OH260129   0.642   2.838   6.077 -0.4658 -0.3591  0.0553
12905TIP3    H160130   0.560   2.866   6.036 -1.6171 -2.6229  0.6404
12905TIP3    H260131   0.704   2.831   6.005 -0.9564  0.7947 -0.4944
12906TIP3   OH260132   2.236   0.729   4.699 -0.3296 -0.0226  0.0603
12906TIP3    H160133   2.274   0.704   4.615 -0.2862 -1.9437  0.5876
12906TIP3    H260134   2.191   0.812   4.682  2.7754  1.6194 -0.9396
12907TIP3   OH260135   6.558   3.824  15.193  0.0092 -0.0389  0.0679
12907TIP3    H160136   6.541   3.730  15.196  0.7204 -0.2504 -1.2901
12907TIP3    H260137   6.552   3.847  15.100  1.9729  0.8101  0.0832
12908TIP3   OH260138   1.894   1.161   2.801  0.0213  0.6026  0.0869
12908TIP3    H160139   1.971   1.216   2.818 -0.9225  1.7379  0.8554
12908TIP3    H260140   1.824   1.224   2.784 -0.9675 -0.3945  0.4161
12909TIP3   OH260141   0.700   2.429   5.478 -0.4596  0.6218  0.1225
12909TIP3    H160142   0.653   2.351   5.450  0.1744 -0.0545  0.8996
12909TIP3    H260143   0.725   2.473   5.397 -0.3725 -0.2534 -0.3280
12910TIP3   OH260144   0.968   2.707  13.034 -0.6424 -0.4476 -0.0797
12910TIP3    H160145   1.060   2.689  13.053 -0.6843 -0.7692 -0.1755
12910TIP3    H260146   0.970   2.790  12.986 -0.5091  0.1665  0.9519
12911TIP3   OH260147   5.563   0.489   0.041  0.0433  0.0002  0.0374
12911TIP3    H160148   5.535   0.401   0.016 -1.5820  0.5976 -0.3445
12911TIP3    H260149   5.658   0.488   0.028 -0.0656 -1.4056 -0.8707
12912TIP3   OH260150   2.921   5.064  11.226  0.2163  0.3406 -0.6444
12912TIP3    H160151   2.842   5.098  11.185  0.8723  1.6633 -0.8599
12912TIP3    H260152   2.912   4.968  11.221 -0.9703  0.4781 -1.4016
12913TIP3   OH260153   0.162   2.819  16.958  0.0982  0.0507 -0.1563
12913TIP3    H160154   0.087   2.871  16.989 -0.1427  0.6566 -1.6838
12913TIP3    H260155   0.237   2.857  17.003 -0.3481  0.2967  0.4006
12914TIP3   OH260156   5.625   4.959   0.886  0.1731 -0.2678  0.0894
12914TIP3    H160157   5.650   4.873   0.852  0.7254  0.0578 -0.3310
12914TIP3    H260158   5.557   4.939   0.951  1.1026 -1.1250  0.8565
12915TIP3   OH260159   4.781   2.698  16.800 -0.1312 -0.0401 -0.5224
12915TIP3    H160160   4.864   2.706  16.754 -0.2944 -0.7661 -0.9588
12915TIP3    H260161   4.770   2.782  16.845  1.1046 -0.1387  0.0057
12916TIP3   OH260162   5.713   0.455   3.493  0.0500 -0.8573  0.0336
12916TIP3    H160163   5.622   0.484   3.487 -0.2744 -1.8195  0.0699
12916TIP3    H260164   5.754   0.488   3.413 -0.6994 -1.6156 -0.6832
12917TIP3   OH260165   5.190   2.982   5.550  0.2892  0.0710  0.1984
12917TIP3    H160166   5.246   3.051   5.585 -0.9551  0.4039  1.6279
12917TIP3    H260167   5.146   2.946   5.627  0.9821 -2.4202 -0.4966
12918TIP3   OH260168   1.363   5.936   5.104 -0.0815 -0.1368  0.6222
12918TIP3    H160169   1.336   5.911   5.016 -0.3798  1.2286  0.2930
12918TIP3    H260170   1.283   5.967   5.146  0.3053  0.5523  0.8747
12919TIP3   OH260171   0.183   0.369   4.416  0.4964 -0.4626  0.2908
12919TIP3    H160172   0.108   0.329   4.371  0.5813  1.2389 -1.4783
12919TIP3    H260173   0.245   0.391   4.346  3.1489 -2.6163  1.7622
12920TIP3   OH260174   2.846   5.835   1.603 -0.6713  0.1673 -0.4387
12920TIP3    H160175   2.911   5.864   1.666 -0.7113 -1.0764  0.2076
12920TIP3    H260176   2.890   5.840   1.518  0.4505 -1.0865  0.0321
12921TIP3   OH260177   3.774   5.977  17.154  0.4917 -0.3420  0.0616
12921TIP3    H160178   3.741   5.895  17.190 -0.1797  0.0976  0.4704
12921TIP3    H260179   3.718   6.045  17.192  0.0387  0.1811 -1.4660
12922TIP3   OH260180   2.826   2.502   2.993  0.3127  0.9751  0.0458
12922TIP3    H160181   2.841   2.470   2.904 -0.1514 -1.2357  0.7214
12922TIP3    H260182   2.737   2.474   3.014  0.2192  1.9414  1.0349
12923TIP3   OH260183   5.940   2.356  12.183  0.0169 -0.3493  0.4359
12923TIP3    H160184   5.999   2.294  12.140 -0.0987 -0.6488  0.7010
12923TIP3    H260185   5.938   2.327  12.275 -1.8074 -1.3575  0.1341
12924TIP3   OH260186   6.273   6.268   4.914  0.4285  0.2388  0.0117
12924TIP3    H160187   6.333   6.225   4.976  0.0689  0.2601  0.3765
12924TIP3    H260188   6.202   6.205   4.902 -0.4665  1.0147  1.1101
12925TIP3   OH260189   0.797   2.311  17.054  0.0390 -0.4033  0.1721
12925TIP3    H160190   0.857   2.375  17.093  0.8276 -1.2964  0.4334
12925TIP3    H260191   0.839   2.227  17.068 -0.4646 -0.8936 -1.1645
12926TIP3   OH260192   6.762   2.380  12.448  0.0063  0.0374  0.1895
12926TIP3    H160193   6.768   2.286  12.466  0.2162  0.5297  3.0463
12926TIP3    H260194   6.850   2.413  12.463 -0.4212  0.9334  0.7697
12927TIP3   OH260195   6.473   0.612   3.078  0.3225  0.3358  0.0831
12927TIP3    H160196   6.460   0.522   3.049  0.1635  0.4459 -0.1901
12927TIP3    H260197   6.386   0.652   3.070  0.1797  0.2624  1.0795
12928TIP3   OH260198   5.450   1.560  12.193  0.1846 -0.6169  0.1278
12928TIP3    H160199   5.400   1.538  12.114  0.6148 -2.3099  0.2805
12928TIP3    H260200   5.394   1.620  12.241 -0.6632 -0.5983 -0.8432
12929TIP3   OH260201   1.357   1.019  13.259  0.2065 -0.2298  0.2154
12929TIP3    H160202   1.400   1.021  13.174  1.4844 -0.6613  0.8257
12929TIP3    H260203   1.417   1.066  13.318 -1.0304  0.7826  0.7271
12930TIP3   OH260204   0.783   6.014   1.705 -0.0109 -0.3038  0.1276
12930TIP3    H160205   0.789   6.068   1.783  0.2898  0.6391 -0.5377
12930TIP3    H260206   0.689   5.997   1.694 -0.6613  3.4004 -1.8166
12931TIP3   OH260207   4.774   0.945   6.692  0.1412  0.1503  0.0123
12931TIP3    H160208   4.714   0.964   6.620  0.7721  0.7655 -0.3651
12931TIP3    H260209   4.724   0.888   6.750 -0.0227 -1.2466 -1.4322
12932TIP3   OH260210   1.153   5.675   3.989  0.2901 -0.8192 -0.0147
12932TIP3    H160211   1.096   5.733   4.040 -0.9883 -0.6670 -1.5320
12932TIP3    H260212   1.215   5.734   3.947 -0.6077 -0.5794 -1.0502
12933TIP3   OH260213   0.510   2.051  12.946 -0.2468  0.2257  0.0962
12933TIP3    H160214   0.501   1.962  12.980 -1.3353 -0.3481 -1.5967
12933TIP3    H260215   0.569   2.042  12.871 -1.7326  0.5771 -1.1724
12934TIP3   OH260216   4.538   2.361   3.757  0.1274  0.1748  0.0033
12934TIP3    H160217   4.542   2.310   3.675  1.1571 -0.8538  0.6622
12934TIP3    H260218   4.620   2.409   3.759  0.4983 -0.4674  0.8280
12935TIP3   OH260219   0.428   1.300   0.429 -0.5032 -0.1856 -0.2397
12935TIP3    H160220   0.424   1.388   0.465  0.8494 -0.2418  0.1056
12935TIP3    H260221   0.472   1.310   0.345  1.9344 -0.7890  0.8843
12936TIP3   OH260222   0.161   2.172   0.883 -0.8106 -0.2054  0.0307
12936TIP3    H160223   0.103   2.106   0.845 -0.0781 -1.2133  0.6231
12936TIP3    H260224   0.203   2.128   0.957 -0.7842  1.1321  0.8434
12937TIP3   OH260225   5.283   4.766  11.848  0.7173 -0.2007 -0.9056
12937TIP3    H160226   5.254   4.815  11.925 -0.9544  0.5565 -1.9504
12937TIP3    H260227   5.238   4.682  11.855  3.2405 -1.5292  0.6558
12938TIP3   OH260228   1.997   2.020  11.676 -0.2930  0.3197 -0.1447
12938TIP3    H160229   2.002   2.037  11.582 -2.0098  2.4149  0.0618
12938TIP3    H260230   2.055   2.086  11.716 -0.6693  0.3751  0.3222
12939TIP3   OH260231   4.919   2.562  14.057 -0.6206 -0.5074 -0.6414
12939TIP3    H160232   5.007   2.565  14.018  0.1710 -0.9656  1.0029
12939TIP3    H260233   4.898   2.653  14.076  0.4796 -0.5571  0.9678
12940TIP3   OH260234   1.973   1.599  10.409 -0.2158  0.0903 -0.0486
12940TIP3    H160235   2.054   1.616  10.361 -0.2493  1.0853  0.2315
12940TIP3    H260236   1.919   1.677  10.394 -0.5299  0.0805  0.9650
12941TIP3   OH260237   6.352   0.430  12.179  0.0768 -0.1634  0.3182
12941TIP3    H160238   6.324   0.421  12.270 -1.4812 -0.8922 -0.2115
12941TIP3    H260239   6.312   0.512  12.149  1.0865  0.3946  0.4377
12942TIP3   OH260240   3.361   3.991  14.531  0.1016 -0.0247 -0.5854
12942TIP3    H160241   3.404   3.910  14.559  0.3080 -0.6363 -2.5668
12942TIP3    H260242   3.269   3.967  14.520  0.2939 -0.2296 -1.9262
12943TIP3   OH260243   4.695   0.613  16.063  0.0313  0.3128 -0.0671
12943TIP3    H160244   4.671   0.565  15.985 -0.8049  1.1225 -0.3295
12943TIP3    H260245   4.767   0.563  16.102 -0.1701 -0.5917 -0.8448
12944TIP3   OH260246   1.523   5.739   3.101 -0.0706  0.2812 -0.0776
12944TIP3    H160247   1.565   5.676   3.042 -0.2167  0.1406 -0.0321
12944TIP3    H260248   1.486   5.686   3.171  1.5332  0.5702  1.0383
12945TIP3   OH260249   5.941   0.018   5.249  0.2219 -0.2842  0.0208
12945TIP3    H160250   5.994  -0.048   5.293 -2.4626 -1.0026  2.5427
12945TIP3    H260251   5.966   0.100   5.291  0.2865 -0.4146  0.2408
12946TIP3   OH260252   1.766   4.887   0.940  0.1039  0.1211  0.2042
12946TIP3    H160253   1.774   4.944   1.017  2.0592 -1.7380  1.4659
12946TIP3    H260254   1.841   4.910   0.886  0.5706 -0.8171  0.4408
12947TIP3   OH260255   4.101   4.598  14.521 -0.6311 -0.4042 -0.2693
12947TIP3    H160256   4.007   4.592  14.539 -0.4839  0.6416  0.9991
12947TIP3    H260257   4.106   4.631  14.431 -1.5401  1.6090  0.3504
12948TIP3   OH260258   3.086   0.546   3.030  0.5577  0.0251  0.3098
12948TIP3    H160259   3.058   0.631   2.994 -0.0368  0.1544  1.0609
12948TIP3    H260260   3.174   0.534   2.996  0.8868  1.2371  0.6971
12949TIP3   OH260261   5.547   6.460   0.172 -0.0918  0.1433  0.4747
12949TIP3    H160262   5.473   6.425   0.122  0.4234 -1.4662  0.7744
12949TIP3    H260263   5.521   6.549   0.195 -1.6254 -0.1486 -0.0358
12950TIP3   OH260264   5.552   4.818  14.443 -0.0072 -0.0608 -0.1228
12950TIP3    H160265   5.632   4.768  14.430 -0.4140 -0.3965 -1.5052
12950TIP3    H260266   5.562   4.857  14.530  0.9585 -1.3412  0.3685
12951TIP3   OH260267   1.259   1.269  11.644  1.0155 -0.3780  0.1049
12951TIP3    H160268   1.261   1.198  11.708 -1.1224  1.3077  2.2171
12951TIP3    H260269   1.301   1.343  11.688 -0.7291  0.9028 -0.2565
12952TIP3   OH260270   1.392   1.029   1.316  0.1962  0.4096  0.1591
12952TIP3    H160271   1.331   1.022   1.243  1.6327  1.2627 -1.1776
12952TIP3    H260272   1.386   1.121   1.343  0.3354  0.3104  0.5362
12953TIP3   OH260273   3.480   1.349   3.346  0.3811  0.1053 -0.1355
12953TIP3    H160274   3.395   1.317   3.317  1.1920 -1.2664 -1.1395
12953TIP3    H260275   3.543   1.308   3.286  1.7997  0.5694  0.9660
12954TIP3   OH260276   0.966   3.564   0.382  0.0244  1.4313 -1.0157
12954TIP3    H160277   0.945   3.559   0.288  0.5109  0.3205 -1.0793
12954TIP3    H260278   0.907   3.630   0.416 -4.0699 -1.8353 -1.0568
12955TIP3   OH260279   3.607   2.561   4.798  0.0249 -0.2687  0.3644
12955TIP3    H160280   3.581   2.471   4.780 -0.5324 -0.2924  1.2467
12955TIP3    H260281   3.552   2.588   4.871 -1.7225  1.6796 -1.5216
12956TIP3   OH260282   6.378   1.556  12.188 -0.4656 -0.1533 -0.3974
12956TIP3    H160283   6.321   1.557  12.265  0.0336 -2.6285  0.1073
12956TIP3    H260284   6.387   1.648  12.164 -2.7788  0.5054  0.8807
12957TIP3   OH260285   4.017   4.015   3.782 -0.2521 -0.2495  0.2018
12957TIP3    H160286   4.104   3.990   3.815 -0.7445  0.2570  1.9693
12957TIP3    H260287   4.000   4.100   3.821 -1.9698 -0.7868  0.6841
12958TIP3   OH260288   0.130   3.753   2.196  0.3689  0.0218  0.2125
12958TIP3    H160289   0.165   3.837   2.165  1.1433 -0.5650 -0.5370
12958TIP3    H260290   0.188   3.729   2.268  1.6820 -1.0359 -1.1413
12959TIP3   OH260291   2.202   6.638   2.545 -0.4728  0.5139  0.3363
12959TIP3    H160292   2.202   6.690   2.464  0.5774  3.3067  1.9934
12959TIP3    H260293   2.278   6.669   2.593 -0.0356 -2.3706  1.6711
12960TIP3   OH260294   3.127   6.459  12.675 -0.6801  0.2037 -0.0363
12960TIP3    H160295   3.205   6.507  12.702  0.9721 -1.9827 -0.6439
12960TIP3    H260296   3.157   6.403  12.603 -2.4328 -1.7991  0.6903
12961TIP3   OH260297   5.626   4.619   0.253  0.0078  0.3046 -0.0918
12961TIP3    H160298   5.608   4.712   0.240 -1.7339  0.1127  0.7533
12961TIP3    H260299   5.650   4.587   0.166  1.7314  1.7265 -0.2113
12962TIP3   OH260300   5.368   2.202  10.370 -0.0458 -0.2368 -0.1282
12962TIP3    H160301   5.413   2.171  10.448  1.2375 -0.3119 -0.8688
12962TIP3    H260302   5.278   2.218  10.399 -0.0158 -1.7870  0.9829
12963TIP3   OH260303   2.200   3.237  12.869 -0.1497  0.3876  0.5458
12963TIP3    H160304   2.272   3.221  12.930  1.3139  1.1956 -0.8975
12963TIP3    H260305   2.188   3.332  12.868 -0.8632  0.3074  0.3380
12964TIP3   OH260306   6.384   2.904   2.305 -0.3811  0.2105 -1.0107
12964TIP3    H160307   6.292   2.885   2.286 -0.8719 -1.1418  2.1569
12964TIP3    H260308   6.393   2.998   2.288 -2.5322  0.5212 -0.6772
12965TIP3   OH260309   5.124   0.049  15.435  0.0644  0.0412  0.1545
12965TIP3    H160310   5.128   0.084  15.346 -1.2627 -1.7243 -0.6596
12965TIP3    H260311   5.031   0.050  15.457  0.5008  2.3946  2.4102
12966TIP3   OH260312   5.741   2.720   2.236 -0.7232  0.4656  0.1465
12966TIP3    H160313   5.698   2.647   2.282 -1.0805  1.1650  0.9390
12966TIP3    H260314   5.738   2.793   2.298 -0.2328  1.1173 -0.5818
12967TIP3   OH260315   3.311   5.426   3.788  0.1444  0.5027 -0.1053
12967TIP3    H160316   3.344   5.465   3.868  0.5034 -0.5720  0.2770
12967TIP3    H260317   3.299   5.334   3.808 -3.9024  0.8728  0.0726
12968TIP3   OH260318   2.552   5.018  10.899  0.2104  0.0706 -0.4294
12968TIP3    H160319   2.643   5.005  10.875  0.5577  0.8918  0.3931
12968TIP3    H260320   2.548   5.109  10.928 -1.1656  0.5053 -1.8252
12969TIP3   OH260321   5.781   0.653  13.051  0.1965  0.5264 -0.1770
12969TIP3    H160322   5.769   0.746  13.034 -0.8422  0.5832  0.7334
12969TIP3    H260323   5.855   0.648  13.112 -0.7868  0.9063  1.0797
12970TIP3   OH260324   0.130   5.732  16.871 -0.2412  0.5837 -0.1743
12970TIP3    H160325   0.112   5.649  16.915 -2.1036  0.7015 -0.6292
12970TIP3    H260326   0.202   5.713  16.811  0.7700 -0.1441  1.2110
12971TIP3   OH260327   2.969   0.522   1.414  0.0640 -0.2816  0.0141
12971TIP3    H160328   2.891   0.511   1.360 -2.6134  1.0324  3.2833
12971TIP3    H260329   2.978   0.616   1.425  1.4384 -0.4568  0.6251
12972TIP3   OH260330   1.896   0.737   5.879 -0.4119  0.1593 -0.2648
12972TIP3    H160331   1.811   0.776   5.859 -0.8639  0.2188  1.6249
12972TIP3    H260332   1.958   0.783   5.822 -1.0101  3.2199  1.3679
12973TIP3   OH260333   4.668   4.897   4.588 -0.6528 -0.1691  0.2849
12973TIP3    H160334   4.578   4.869   4.601 -0.5249 -0.0982  1.3965
12973TIP3    H260335   4.709   4.887   4.674  0.2144  0.4479 -0.0445
12974TIP3   OH260336   5.151   1.619  11.059  0.0707  0.1264 -0.4962
12974TIP3    H160337   5.116   1.701  11.094  1.3006  0.4656 -0.0176
12974TIP3    H260338   5.172   1.567  11.136 -1.0166 -0.7942 -0.8033
12975TIP3   OH260339   4.826   2.787  11.700 -0.1843 -0.3056  0.2808
12975TIP3    H160340   4.809   2.737  11.621  0.7257  0.1488 -0.2188
12975TIP3    H260341   4.765   2.861  11.695 -0.2120 -0.3439  0.0669
12976TIP3   OH260342   5.988   3.506   0.811  0.5839 -0.0543  0.1890
12976TIP3    H160343   6.067   3.470   0.852  0.0005 -0.6847  0.7821
12976TIP3    H260344   5.931   3.529   0.885 -0.4461 -1.1105 -0.2514
12977TIP3   OH260345   5.240   5.658  16.450 -0.1119 -0.1430  0.4494
12977TIP3    H160346   5.163   5.715  16.450  0.5947  0.8574  0.0874
12977TIP3    H260347   5.225   5.597  16.523 -0.4167  1.2169  1.5816
12978TIP3   OH260348   4.952   0.682   3.960 -0.5737  0.0094  0.1866
12978TIP3    H160349   4.878   0.728   4.000 -2.6137 -0.0668 -3.1825
12978TIP3    H260350   4.936   0.590   3.980  0.3415  0.1855  1.9739
12979TIP3   OH260351   1.945   6.509   6.084 -0.0303  0.7307 -0.1823
12979TIP3    H160352   1.868   6.457   6.059  1.2829 -0.8614 -1.2209
12979TIP3    H260353   1.919   6.599   6.068 -2.6051  0.5504  2.1773
12980TIP3   OH260354   6.784   6.461  14.302  0.0761  0.3259  1.0448
12980TIP3    H160355   6.702   6.412  14.312  0.3227 -0.8674 -1.8082
12980TIP3    H260356   6.756   6.550  14.280 -0.5391 -0.1909 -0.4360
12981TIP3   OH260357   2.935   6.768  13.756  0.5650 -0.0033  0.2008
12981TIP3    H160358   2.921   6.780  13.850  2.9659  0.4563  0.5632
12981TIP3    H260359   2.888   6.687  13.735  0.1965 -0.2577  1.8349
12982TIP3   OH260360   3.901   1.799   2.920 -0.2890  0.1837  0.4658
12982TIP3    H160361   3.846   1.860   2.871  0.9923 -0.3977 -1.8141
12982TIP3    H260362   3.935   1.852   2.993  0.3734  2.0969 -1.1336
12983TIP3   OH260363   0.109   6.288   2.808 -0.0667 -0.3536 -0.2395
12983TIP3    H160364   0.108   6.374   2.766  0.5604 -1.2583 -2.2286
12983TIP3    H260365   0.119   6.307   2.902 -1.2460  1.7525 -0.4795
12984TIP3   OH260366   5.908   0.382  15.166 -0.4768 -0.2286  0.4844
12984TIP3    H160367   5.916   0.320  15.093 -0.5145  0.4757 -0.1255
12984TIP3    H260368   5.998   0.404  15.189 -0.4664 -0.3817  0.5923
12985TIP3   OH260369   6.405   0.213   0.272 -0.5200  0.0237  0.1097
12985TIP3    H160370   6.401   0.150   0.200 -0.4080 -0.3567  0.4328
12985TIP3    H260371   6.315   0.216   0.305 -0.4621 -0.2083  0.2950
12986TIP3   OH260372   1.635   3.850   2.657  0.3605  0.1669 -0.2289
12986TIP3    H160373   1.647   3.924   2.715 -1.2776  1.2487 -1.1809
12986TIP3    H260374   1.723   3.827   2.627  0.8811  1.7625  0.0312
12987TIP3   OH260375   0.127   0.406  13.148  0.4044  0.0885  0.4671
12987TIP3    H160376   0.215   0.395  13.113  0.5219 -0.2091  0.8511
12987TIP3    H260377   0.134   0.479  13.210  0.7571 -0.9650  1.7224
12988TIP3   OH260378   6.653   6.205  15.789 -0.2612  0.2755 -0.1138
12988TIP3    H160379   6.622   6.280  15.738 -1.7309  0.4523  0.9548
12988TIP3    H260380   6.731   6.175  15.743  1.1259  3.1984  0.0733
12989TIP3   OH260381   4.616   3.582   1.176 -0.3087 -0.6885  0.0879
12989TIP3    H160382   4.564   3.506   1.148 -0.9071 -0.2259 -0.0867
12989TIP3    H260383   4.674   3.547   1.244 -0.4721 -1.3309 -0.0892
12990TIP3   OH260384   3.269   4.442   1.380 -1.0429  0.4490 -1.2370
12990TIP3    H160385   3.214   4.520   1.371 -2.0403 -0.2299 -1.1736
12990TIP3    H260386   3.352   4.475   1.414 -1.5163  1.4626 -1.0246
12991TIP3   OH260387   3.778   6.609  14.773  0.1467  0.1643 -0.2791
12991TIP3    H160388   3.767   6.700  14.747 -1.5472 -0.2905 -1.3568
12991TIP3    H260389   3.714   6.596  14.843 -0.3788 -0.4607 -0.8687
12992TIP3   OH260390   3.111   1.466  14.702  0.1335  0.3645  0.7856
12992TIP3    H160391   3.103   1.508  14.617  0.0746  1.0296  1.1136
12992TIP3    H260392   3.025   1.425  14.717  1.0374 -2.3559 -0.7900
12993TIP3   OH260393   0.941   5.955   0.113  0.1393  0.8307 -0.1177
12993TIP3    H160394   0.887   5.958   0.192 -0.9296 -1.6694 -0.6792
12993TIP3    H260395   1.013   5.897   0.136 -1.0746 -1.2973 -1.4168
12994TIP3   OH260396   5.364   5.298  10.481 -0.0272 -0.5563  0.2137
12994TIP3    H160397   5.348   5.381  10.524 -0.1455  0.0476 -0.9462
12994TIP3    H260398   5.450   5.271  10.512  0.3590  0.3934 -0.0040
12995TIP3   OH260399   4.060   5.992   3.834  0.1839  0.7280 -0.1770
12995TIP3    H160400   4.149   6.005   3.868 -0.0565 -0.1867  0.8227
12995TIP3    H260401   4.005   6.047   3.890  0.0165  0.6944 -0.3091
12996TIP3   OH260402   3.799   1.344  15.618 -0.1078  0.5634  0.5132
12996TIP3    H160403   3.762   1.432  15.606  0.1813  0.5797 -0.2813
12996TIP3    H260404   3.865   1.355  15.686  0.5823  1.1591 -0.2296
12997TIP3   OH260405   5.153   2.714   0.486 -0.0571 -0.1654  0.3144
12997TIP3    H160406   5.095   2.674   0.551 -1.7166 -3.5410 -2.8982
12997TIP3    H260407   5.240   2.678   0.506 -0.4647 -0.8717  0.8435
12998TIP3   OH260408   2.666   6.735   3.328 -0.1834  0.4735  0.3313
12998TIP3    H160409   2.758   6.757   3.338  0.0130 -0.4288  0.5781
12998TIP3    H260410   2.627   6.755   3.414  0.5055 -2.4616  1.4522
12999TIP3   OH260411   3.331   2.382  16.335 -0.3345 -0.4307 -0.7627
12999TIP3    H160412   3.390   2.358  16.263 -1.2231 -0.8487 -1.3718
12999TIP3    H260413   3.266   2.440  16.294  2.1118  3.9068  0.7411
13000TIP3   OH260414   2.480   3.850   2.076 -0.2842  0.3281 -0.2293
13000TIP3    H160415   2.471   3.944   2.058  2.0738  0.3494 -1.6090
13000TIP3    H260416   2.488   3.810   1.989  0.2887 -0.9758  0.4126
13001TIP3   OH260417   2.884   5.526  15.166 -0.1253  0.0515  0.7946
13001TIP3    H160418   2.852   5.553  15.080  0.4619 -0.5923  0.3568
13001TIP3    H260419   2.936   5.447  15.148 -1.0452 -0.8338  1.9068
13002TIP3   OH260420   2.871   1.192  11.436 -0.2762  0.4924 -0.3215
13002TIP3    H160421   2.898   1.117  11.383  1.2428  0.4048  0.5240
13002TIP3    H260422   2.798   1.160  11.488 -0.1989 -0.1440 -0.5987
13003TIP3   OH260423   4.381   5.259   0.707  0.1619  0.1208 -0.1323
13003TIP3    H160424   4.411   5.342   0.671  0.5923  0.2256  0.4644
13003TIP3    H260425   4.446   5.195   0.679  0.8995  0.3268  1.0533
13004TIP3   OH260426   0.134   2.572  11.481 -0.2204 -0.6881  0.2127
13004TIP3    H160427   0.073   2.604  11.547 -0.2730  0.2223 -0.2683
13004TIP3    H260428   0.084   2.572  11.399  0.3074 -0.3146 -0.1126
13005TIP3   OH260429   1.246   5.750   3.234 -0.0380 -0.7190  0.1706
13005TIP3    H160430   1.223   5.742   3.327  1.2831 -1.3066  0.4728
13005TIP3    H260431   1.280   5.664   3.210  0.9815 -0.1566 -0.4643
13006TIP3   OH260432   5.267   5.946  11.760  0.0261 -0.9336  0.1783
13006TIP3    H160433   5.345   5.909  11.803  0.7206 -0.4345 -0.6168
13006TIP3    H260434   5.284   6.040  11.756 -0.2980 -0.9032 -0.6407
13007TIP3   OH260435   4.333   3.648   4.563  0.0744 -0.3950 -0.3172
13007TIP3    H160436   4.341   3.559   4.598  2.3323 -0.5604 -1.1461
13007TIP3    H260437   4.374   3.703   4.629 -1.0633  0.0198  0.0592
13008TIP3   OH260438   2.666   1.496   2.879  0.4836 -0.4348  0.1264
13008TIP3    H160439   2.703   1.567   2.826 -0.0139 -0.3665 -0.1365
13008TIP3    H260440   2.586   1.471   2.833 -0.5655  0.3790  1.4232
13009TIP3   OH260441   3.056   2.806  15.771 -0.4320 -0.2793  0.8094
13009TIP3    H160442   3.031   2.880  15.827 -2.0104  0.1425 -0.3839
13009TIP3    H260443   2.977   2.752  15.768 -0.3723 -0.3197 -0.9183
13010TIP3   OH260444   2.657   4.921   4.767 -0.1133 -0.1163  0.7443
13010TIP3    H160445   2.742   4.902   4.807  0.1964 -0.3916 -0.0291
13010TIP3    H260446   2.593   4.897   4.835  0.3732 -1.3829  0.7809
13011TIP3   OH260447   3.724   3.651  13.363 -0.0276 -0.9130 -0.0260
13011TIP3    H160448   3.735   3.695  13.279 -0.5290 -0.6560  0.0442
13011TIP3    H260449   3.791   3.582  13.363  1.1695  0.2181  0.1225
13012TIP3   OH260450   2.604   4.999  15.061  0.5721  0.0894  0.2347
13012TIP3    H160451   2.529   4.940  15.055  1.1485 -1.1223  3.0834
13012TIP3    H260452   2.637   5.006  14.972 -1.7693 -0.8520 -0.7798
13013TIP3   OH260453   1.991   2.085   0.302 -0.0001  0.1893 -0.1131
13013TIP3    H160454   2.020   2.103   0.212  0.5827 -2.5837 -0.5808
13013TIP3    H260455   1.974   2.171   0.340  0.6028  1.4872 -2.5921
13014TIP3   OH260456   5.903   1.754   0.407 -0.2586  0.5165 -0.2302
13014TIP3    H160457   5.878   1.844   0.428 -1.5529  0.3797 -1.0551
13014TIP3    H260458   5.864   1.701   0.476  1.9553  0.6757  1.2513
13015TIP3   OH260459   3.304   1.679  13.357  0.0163  0.3823  0.0268
13015TIP3    H160460   3.230   1.628  13.390 -0.8936  2.1742  0.9057
13015TIP3    H260461   3.359   1.694  13.435  1.8900 -1.7445 -0.7804
13016TIP3   OH260462   4.119   3.939  12.225  1.2061 -0.3165 -0.4928
13016TIP3    H160463   4.203   3.966  12.262  0.1525  0.3445  1.5565
13016TIP3    H260464   4.068   3.908  12.300  0.0400 -1.9224 -1.8622
13017TIP3   OH260465   4.612   6.149   0.190 -0.2786 -0.3304 -0.0391
13017TIP3    H160466   4.522   6.151   0.158  0.5991  0.8599 -2.7534
13017TIP3    H260467   4.628   6.237   0.223 -0.1161 -0.5533  0.4845
13018TIP3   OH260468   5.227   4.060  17.039 -0.4000  0.5893  0.1566
13018TIP3    H160469   5.163   4.107  17.093  0.0552  0.0095  1.2228
13018TIP3    H260470   5.178   3.989  16.999 -0.1874 -0.6514  2.0054
13019TIP3   OH260471   2.795   6.719   2.757 -0.3362  0.3507  0.3116
13019TIP3    H160472   2.847   6.702   2.835  0.2099  0.0867 -0.1082
13019TIP3    H260473   2.755   6.635   2.735  1.8350 -0.3432 -1.3740
13020TIP3   OH260474   4.966   1.827   3.339  0.1982  0.4482  0.9888
13020TIP3    H160475   4.905   1.754   3.349 -0.9381  1.4632  1.6733
13020TIP3    H260476   5.047   1.786   3.308 -1.4967 -0.6884 -2.4019
13021TIP3   OH260477   0.956   3.120  15.502 -0.4205 -0.1670 -0.3212
13021TIP3    H160478   0.883   3.174  15.534 -0.8643  0.2203 -1.8963
13021TIP3    H260479   1.007   3.100  15.581 -2.1100 -0.2841  0.7968
13022TIP3   OH260480   5.697   0.229   0.682  0.5292 -0.5816  0.4021
13022TIP3    H160481   5.639   0.153   0.683 -1.4009  0.7555 -1.1252
13022TIP3    H260482   5.732   0.234   0.771  0.6328 -3.1422  0.5807
13023TIP3   OH260483   4.482   6.661  17.191  0.1568 -0.5188  0.1735
13023TIP3    H160484   4.564   6.710  17.191 -0.7586  1.1098 -0.4226
13023TIP3    H260485   4.508   6.570  17.201  1.9562  0.0563  1.1258
13024TIP3   OH260486   5.803   5.797  16.938 -0.1163  0.1283 -0.0146
13024TIP3    H160487   5.848   5.844  17.008  2.0422 -0.0046 -1.2343
13024TIP3    H260488   5.750   5.731  16.983 -0.8040  1.6805  1.5679
13025TIP3   OH260489   3.298   1.222   5.395  0.0605 -0.0711 -0.2041
13025TIP3    H160490   3.371   1.241   5.455 -0.8436  2.8383  0.1024
13025TIP3    H260491   3.244   1.160   5.444  0.8997 -0.1016  0.7300
13026TIP3   OH260492   5.752   2.143   3.638  0.3358  0.4929  0.6226
13026TIP3    H160493   5.777   2.221   3.688 -0.5704  0.3285  1.3759
13026TIP3    H260494   5.794   2.154   3.553  2.4363  0.4894  1.6062
13027TIP3   OH260495   2.816   5.512   1.948  0.8879  0.5612 -0.7478
13027TIP3    H160496   2.828   5.574   2.019 -1.0778 -0.0588  0.2097
13027TIP3    H260497   2.757   5.557   1.887 -1.0862 -0.5226  0.2728
13028TIP3   OH260498   6.039   5.583   5.349 -0.2812 -0.3393  0.1062
13028TIP3    H160499   6.010   5.673   5.362  1.3739  0.0656  1.2710
13028TIP3    H260500   5.988   5.532   5.413  1.3983  0.3661  2.1435
13029TIP3   OH260501   3.099   5.808   2.589  0.0763  0.1252  0.0004
13029TIP3    H160502   3.051   5.794   2.671  1.5598 -2.0023  0.5825
13029TIP3    H260503   3.060   5.746   2.528  0.3644  0.2343 -0.2910
13030TIP3   OH260504   2.571   4.885   1.913  0.6666 -0.1852  0.0032
13030TIP3    H160505   2.602   4.808   1.866 -1.2703  0.1007 -1.9389
13030TIP3    H260506   2.614   4.959   1.870 -0.7427  0.0478 -1.0787
13031TIP3   OH260507   5.702   1.040   0.639  0.3467 -0.6045  0.3810
13031TIP3    H160508   5.652   1.116   0.608 -0.7556 -0.4148  2.4136
13031TIP3    H260509   5.638   0.969   0.641  1.0990 -1.3202 -0.4471
13032TIP3   OH260510   3.495   3.066   5.630 -0.1494 -0.1947  0.3722
13032TIP3    H160511   3.437   3.016   5.573  1.1105 -1.0454 -0.2169
13032TIP3    H260512   3.436   3.113   5.689 -1.5925  1.6857 -2.3442
13033TIP3   OH260513   5.290   1.805  13.427 -0.0265  0.5544 -0.4308
13033TIP3    H160514   5.364   1.862  13.407  0.5661 -0.0526 -0.0478
13033TIP3    H260515   5.231   1.859  13.480  0.5131  0.8176 -0.0922
13034TIP3   OH260516   2.351   1.900  14.183  0.1523 -0.3232  0.3320
13034TIP3    H160517   2.406   1.886  14.260  0.8133  2.9682  0.6134
13034TIP3    H260518   2.410   1.889  14.109  0.5580  0.5804  0.5123
13035TIP3   OH260519   2.463   2.813   5.809 -0.2780  0.0899  0.4080
13035TIP3    H160520   2.445   2.770   5.893 -1.8999 -0.3993 -0.1441
13035TIP3    H260521   2.378   2.850   5.783  0.0992 -0.0949 -1.1933
13036TIP3   OH260522   6.202   4.497   1.260  0.1751  0.0351  0.2506
13036TIP3    H160523   6.140   4.442   1.211 -1.0329  0.9677  0.6881
13036TIP3    H260524   6.239   4.556   1.195  0.9407 -0.8102 -0.0920
13037TIP3   OH260525   1.619   2.627   0.047 -0.0997  0.2188  0.0790
13037TIP3    H160526   1.694   2.686   0.043  0.0948  0.5522  4.2210
13037TIP3    H260527   1.547   2.683   0.078 -0.2180 -1.2853  2.8809
13038TIP3   OH260528   0.704   3.165   3.717 -0.2874  0.0021 -0.2701
13038TIP3    H160529   0.785   3.216   3.724 -0.0144 -0.6209  2.3604
13038TIP3    H260530   0.653   3.190   3.794 -1.9941 -0.6739 -1.1146
13039TIP3   OH260531   4.627   3.871   0.361 -0.1068  0.0114  0.1674
13039TIP3    H160532   4.634   3.872   0.265 -2.5497 -1.8147 -0.1246
13039TIP3    H260533   4.695   3.810   0.389  0.1061 -0.0544 -0.4580
13040TIP3   OH260534   2.128   4.418   2.864 -0.6141 -0.6798  0.4553
13040TIP3    H160535   2.059   4.473   2.828 -1.6168 -1.5144  1.0728
13040TIP3    H260536   2.086   4.367   2.933  1.0602  0.2557  2.2897
13041TIP3   OH260537   2.601   4.112  14.478  0.1414  0.7062  0.2220
13041TIP3    H160538   2.648   4.120  14.561  0.0333 -0.8425  0.4529
13041TIP3    H260539   2.532   4.049  14.495  0.9179 -0.6565 -1.3749
13042TIP3   OH260540   5.004   3.438  14.950 -0.0671  0.2034 -0.1907
13042TIP3    H160541   4.975   3.529  14.939 -1.7101 -0.3250 -0.3895
13042TIP3    H260542   5.022   3.408  14.861 -1.1320 -0.1660 -0.2905
13043TIP3   OH260543   6.768   1.643  12.692  0.5717  0.1071  0.8750
13043TIP3    H160544   6.720   1.561  12.687 -0.3164  0.5890  1.1344
13043TIP3    H260545   6.775   1.672  12.601 -0.5696  0.5388  0.9073
13044TIP3   OH260546   5.585   6.676   5.240  0.8540  0.1673 -0.7278
13044TIP3    H160547   5.646   6.606   5.217  0.4077  0.0771 -1.6878
13044TIP3    H260548   5.580   6.730   5.162 -0.0276  0.3759 -0.5365
13045TIP3   OH260549   3.912   6.075  12.773  0.3883  0.0324 -0.2393
13045TIP3    H160550   3.816   6.074  12.771  0.3464 -1.5557  0.7435
13045TIP3    H260551   3.938   6.055  12.683 -0.2327 -0.9036 -0.2224
13046TIP3   OH260552   5.307   5.629  17.219  0.4394 -0.1614 -0.4513
13046TIP3    H160553   5.281   5.721  17.229  0.8428  0.0331 -1.1336
13046TIP3    H260554   5.249   5.581  17.278  0.3650  0.5547  0.0683
13047TIP3   OH260555   6.220   0.363  11.239  0.4402  0.2000  0.1037
13047TIP3    H160556   6.301   0.413  11.233  2.4679 -2.7442  1.1736
13047TIP3    H260557   6.225   0.317  11.323 -0.2610 -3.3240 -1.5954
13048TIP3   OH260558   6.715   6.331   4.422  0.6056 -0.1120  0.3994
13048TIP3    H160559   6.664   6.305   4.499  0.9180 -0.2756  0.5519
13048TIP3    H260560   6.698   6.425   4.413  0.1241 -0.2007  0.3327
13049TIP3   OH260561   0.806   2.843   4.431 -0.4181 -0.3875 -0.0842
13049TIP3    H160562   0.741   2.843   4.361 -1.7938  3.9578  0.8709
13049TIP3    H260563   0.890   2.855   4.387 -0.8915 -0.6889 -1.0850
13050TIP3   OH260564   4.731   0.145   6.512  1.0988 -0.1723 -1.2060
13050TIP3    H160565   4.734   0.158   6.607  1.5151  0.4305 -1.2966
13050TIP3    H260566   4.739   0.050   6.501  2.0221 -0.1768 -0.6683
13051TIP3   OH260567   4.601   2.618  11.542 -0.3486 -0.0577 -0.4711
13051TIP3    H160568   4.509   2.607  11.565 -0.6920  0.9634 -1.3029
13051TIP3    H260569   4.644   2.541  11.580 -1.0253  0.9404  2.5741
13052TIP3   OH260570   2.846   3.166  16.133 -0.0258 -0.6101 -0.0547
13052TIP3    H160571   2.767   3.219  16.118 -0.1611 -0.5691  0.7760
13052TIP3    H260572   2.916   3.230  16.142  0.2437 -0.6652 -1.4808
13053TIP3   OH260573   3.735   2.311  11.500 -0.1590  0.0026 -0.2979
13053TIP3    H160574   3.725   2.286  11.592  0.6258  1.8244  0.3222
13053TIP3    H260575   3.659   2.272  11.456 -1.7309  0.8790  1.5135
13054TIP3   OH260576   5.564   3.072   5.972 -0.0458 -0.1946 -0.1323
13054TIP3    H160577   5.567   3.106   6.062  1.1995  0.6139 -0.4529
13054TIP3    H260578   5.606   2.986   5.978  1.0758  0.3388 -0.1198
13055TIP3   OH260579   2.224   6.487  11.051 -0.7648  0.6199  0.1363
13055TIP3    H160580   2.228   6.499  10.956  2.1412  0.2088  0.1351
13055TIP3    H260581   2.201   6.573  11.085 -1.3069  0.9012 -0.8968
13056TIP3   OH260582   0.634   1.197  12.556 -0.1918  0.6572 -0.2640
13056TIP3    H160583   0.719   1.175  12.519 -0.6023  2.3569 -2.4371
13056TIP3    H260584   0.630   1.149  12.639  1.7307 -1.5968 -1.3666
13057TIP3   OH260585   0.430   1.584  15.879  0.2490  0.3668 -0.6793
13057TIP3    H160586   0.443   1.505  15.932 -1.3251 -1.0936 -2.3659
13057TIP3    H260587   0.388   1.646  15.939 -1.4611 -1.2326 -0.1422
13058TIP3   OH260588   0.693   3.391  13.831  0.5830 -0.5044  0.2453
13058TIP3    H160589   0.771   3.435  13.866  0.8313  0.1123 -1.0257
13058TIP3    H260590   0.727   3.308  13.797  0.8033  0.0072 -0.8162
13059TIP3   OH260591   3.033   6.109  13.513  0.4914 -0.0521 -1.0157
13059TIP3    H160592   3.049   6.021  13.478  1.2376 -0.6844  0.7508
13059TIP3    H260593   3.061   6.169  13.444 -0.2775 -1.1761 -2.3644
13060TIP3   OH260594   2.621   2.153   0.304 -0.5136 -0.0569  0.1859
13060TIP3    H160595   2.672   2.224   0.265 -0.9632  0.6909  0.9176
13060TIP3    H260596   2.530   2.176   0.283 -0.5630 -1.8222 -1.8702
13061TIP3   OH260597   6.090   4.054  14.655 -0.3577  0.1232  0.0878
13061TIP3    H160598   6.010   4.099  14.628 -0.0742  1.3689  1.2283
13061TIP3    H260599   6.161   4.114  14.633 -0.0146  0.5552  2.1608
13062TIP3   OH260600   6.473   5.416  15.043  0.5147 -0.2843  0.2193
13062TIP3    H160601   6.419   5.493  15.065  0.8383 -0.0812  0.3027
13062TIP3    H260602   6.493   5.376  15.127  0.9764 -0.0316  0.2309
13063TIP3   OH260603   5.060   4.315   5.953 -0.5376 -0.2800 -0.4057
13063TIP3    H160604   5.119   4.295   6.026 -1.5372  0.8268  0.7412
13063TIP3    H260605   4.972   4.306   5.990 -1.0581  1.5100 -1.1104
13064TIP3   OH260606   5.370   2.917   5.039 -0.1770  0.5297 -0.6001
13064TIP3    H160607   5.413   2.997   5.068 -0.6827  0.4206  0.4847
13064TIP3    H260608   5.308   2.896   5.109  0.8474 -1.5227 -0.2474
13065TIP3   OH260609   2.268   4.857   0.366  0.6657 -0.4692 -0.1577
13065TIP3    H160610   2.357   4.857   0.329  1.4179  1.0351  1.5170
13065TIP3    H260611   2.230   4.940   0.338  0.8057  0.1281  1.3362
13066TIP3   OH260612   4.486   1.826   5.310  0.3950  0.3220 -0.0961
13066TIP3    H160613   4.452   1.748   5.267  0.7241  0.4411 -0.5691
13066TIP3    H260614   4.509   1.796   5.398 -1.4022  0.3441  0.4314
13067TIP3   OH260615   1.078   2.764  16.902  0.3126 -0.5441  0.0321
13067TIP3    H160616   0.986   2.774  16.925 -0.9499 -1.1554 -3.9639
13067TIP3    H260617   1.110   2.854  16.892 -0.7783 -0.2561 -1.3174
13068TIP3   OH260618   4.820   5.280   2.444  0.2505 -0.0150 -0.5838
13068TIP3    H160619   4.874   5.330   2.382  0.1705 -0.9253 -1.4040
13068TIP3    H260620   4.743   5.254   2.393 -1.8190  2.5801  0.9531
13069TIP3   OH260621   2.826   3.639  16.032 -0.4481  0.1166  0.1765
13069TIP3    H160622   2.740   3.632  16.075 -0.9097 -1.0464 -0.8524
13069TIP3    H260623   2.860   3.724  16.060 -2.3650  1.0533 -0.1264
13070TIP3   OH260624   2.413   4.895   2.885  0.6602 -0.1621  0.3678
13070TIP3    H160625   2.379   4.854   2.965 -1.4876 -0.9518 -0.8763
13070TIP3    H260626   2.495   4.849   2.868  0.1027 -1.4605  0.9970
13071TIP3   OH260627   5.115   5.756  16.870 -0.3982 -0.4240 -0.4042
13071TIP3    H160628   5.106   5.660  16.866  0.5864 -0.5094 -0.9795
13071TIP3    H260629   5.138   5.781  16.780  2.2016  0.0266  0.3276
13072TIP3   OH260630   5.642   0.482   0.888 -0.2331 -1.0082  0.0597
13072TIP3    H160631   5.709   0.419   0.910 -1.2884 -2.3127 -0.3334
13072TIP3    H260632   5.681   0.567   0.908  1.8795 -1.6435 -1.0766
13073TIP3   OH260633   4.353   6.296  16.603  0.0517 -0.3682 -0.3250
13073TIP3    H160634   4.383   6.231  16.539 -1.4596 -0.5419 -0.8981
13073TIP3    H260635   4.386   6.263  16.687 -0.0970 -1.5119 -0.6953
13074TIP3   OH260636   4.813   0.287   3.791 -0.1986 -0.0254  0.1962
13074TIP3    H160637   4.845   0.360   3.844 -0.1508  1.0829 -1.2931
13074TIP3    H260638   4.858   0.210   3.826  0.7419  0.8560  0.9643
13075TIP3   OH260639   1.443   6.117   1.989  0.1439  0.3316  0.8611
13075TIP3    H160640   1.475   6.062   2.061  1.5408  0.3385  0.2835
13075TIP3    H260641   1.356   6.145   2.017 -0.0173 -0.9981  1.8159
13076TIP3   OH260642   0.644   0.091   1.138  0.0518  0.0199 -0.2610
13076TIP3    H160643   0.725   0.041   1.139 -0.0729 -0.2004  0.9005
13076TIP3    H260644   0.601   0.066   1.056  0.4215 -1.0740 -0.1381
13077TIP3   OH260645   5.375   2.359   0.671  0.7106 -0.4495 -0.2125
13077TIP3    H160646   5.463   2.378   0.703  0.5595 -0.2701  0.1026
13077TIP3    H260647   5.317   2.400   0.735  0.3511 -2.5872  0.9058
13078TIP3   OH260648   3.609   3.071  13.712  0.4431 -0.6149 -0.5306
13078TIP3    H160649   3.691   3.040  13.673  0.4638 -0.2433 -0.7817
13078TIP3    H260650   3.636   3.117  13.791  0.3313 -2.3188  0.5560
13079TIP3   OH260651   3.719   0.383   3.893  0.0272 -0.4846  0.2139
13079TIP3    H160652   3.758   0.300   3.922  1.1545 -0.0082  0.1435
13079TIP3    H260653   3.646   0.357   3.837  1.1588 -1.4581 -0.8744
13080TIP3   OH260654   3.528   3.602   3.103  0.0757  0.1882 -0.0190
13080TIP3    H160655   3.525   3.626   3.011 -0.2934 -0.3979 -0.1660
13080TIP3    H260656   3.437   3.589   3.128  0.1543  0.5625  0.4906
13081TIP3   OH260657   0.017   0.955   4.758  0.1118 -0.0242  0.0081
13081TIP3    H160658  -0.006   0.940   4.666  0.7584  0.5729 -0.2599
13081TIP3    H260659   0.048   0.870   4.788 -0.7740 -0.4060 -0.1118
13082TIP3   OH260660   4.413   0.474  13.533  0.2737 -0.0225  0.1612
13082TIP3    H160661   4.440   0.491  13.624  1.0681 -0.1411 -0.0436
13082TIP3    H260662   4.466   0.398  13.506 -0.7845 -0.7167 -0.0345
13083TIP3   OH260663   5.677   4.369   2.829 -0.3284 -0.0409  0.6931
13083TIP3    H160664   5.602   4.385   2.887  1.3699 -0.0230  3.0229
13083TIP3    H260665   5.746   4.340   2.888  1.8681  1.0647 -1.1977
13084TIP3   OH260666   0.501   6.110  12.431 -0.0035  0.4169  0.7210
13084TIP3    H160667   0.552   6.188  12.407  1.7608 -1.0158 -0.5052
13084TIP3    H260668   0.444   6.096  12.356  1.1666 -0.5903 -0.0289
13085TIP3   OH260669   0.975   4.463   1.955  0.3425 -0.3591 -0.0023
13085TIP3    H160670   1.021   4.530   1.905  0.7074  0.7876  1.7789
13085TIP3    H260671   0.882   4.478   1.935  0.5167 -0.2608 -0.7381
13086TIP3   OH260672   3.465   6.283  11.113 -0.0506 -0.8577  0.5844
13086TIP3    H160673   3.469   6.203  11.164 -0.5199 -1.2196  0.0620
13086TIP3    H260674   3.416   6.344  11.168  0.0244 -1.0337  0.8466
13087TIP3   OH260675   1.051   5.421   0.740 -0.4643  0.6565  0.7139
13087TIP3    H160676   0.968   5.464   0.721  0.4013  1.3784 -1.8082
13087TIP3    H260677   1.047   5.339   0.690  0.7089  1.1772 -0.2679
13088TIP3   OH260678   6.598   0.313   3.402 -0.8278  1.1732 -0.1628
13088TIP3    H160679   6.557   0.310   3.489 -0.2092  0.2752  0.1123
13088TIP3    H260680   6.668   0.377   3.411  0.2568 -0.0538  0.4888
13089TIP3   OH260681   4.264   0.181   1.363 -0.1402 -0.2663 -0.1977
13089TIP3    H160682   4.295   0.234   1.289  2.0926 -2.5491 -1.0472
13089TIP3    H260683   4.177   0.150   1.336 -0.3708  0.8650 -0.7853
13090TIP3   OH260684   5.966   2.922   5.005  0.1382 -0.0216 -0.1493
13090TIP3    H160685   6.003   2.899   5.090  1.8313  1.4245 -0.4443
13090TIP3    H260686   5.988   2.848   4.948 -0.1917 -0.5757  0.4300
13091TIP3   OH260687   5.881   2.848   4.139 -0.4153  0.2877  0.3052
13091TIP3    H160688   5.933   2.889   4.069  0.8979  0.3612  1.2943
13091TIP3    H260689   5.862   2.919   4.199 -0.4916 -0.0182  0.6427
13092TIP3   OH260690   2.274   0.036   3.343  0.1969 -0.2792  0.6074
13092TIP3    H160691   2.227   0.110   3.305 -1.1610 -2.0087 -1.2977
13092TIP3    H260692   2.242   0.030   3.433 -0.9948  0.3799  0.2484
13093TIP3   OH260693   1.450   1.810   6.217 -0.3413  0.6583 -0.1373
13093TIP3    H160694   1.377   1.798   6.156  0.3802  0.5635 -0.9925
13093TIP3    H260695   1.514   1.745   6.190  0.0072  0.6513  0.7010
13094TIP3   OH260696   4.594   2.268  13.036  0.0608  0.1733 -0.6785
13094TIP3    H160697   4.520   2.302  13.085 -1.0453 -1.7363 -0.9176
13094TIP3    H260698   4.560   2.251  12.948  0.3618 -1.8853 -0.4633
13095TIP3   OH260699   6.224   6.367   4.640 -0.0322  0.5007  0.5734
13095TIP3    H160700   6.177   6.292   4.604  0.0635  0.3400  0.7831
13095TIP3    H260701   6.226   6.353   4.734  1.5614 -0.1743  0.4762
13096TIP3   OH260702   4.610   0.593  12.896  1.2298 -0.2909 -0.6129
13096TIP3    H160703   4.665   0.642  12.958  2.5295 -1.2785 -0.9268
13096TIP3    H260704   4.662   0.589  12.816  0.0961 -0.0920 -1.3811
13097TIP3   OH260705   6.059   0.477  12.282 -0.1483  0.1807  0.1611
13097TIP3    H160706   5.976   0.429  12.294 -0.0849  0.4339  1.9021
13097TIP3    H260707   6.043   0.562  12.322  1.3686 -0.2728  1.8696
13098TIP3   OH260708   0.480   2.354  13.773  0.1765  0.2645 -0.1695
13098TIP3    H160709   0.572   2.330  13.782 -0.1780 -1.8224 -1.3827
13098TIP3    H260710   0.479   2.424  13.708  0.9179  0.4332 -0.0002
13099TIP3   OH260711   0.940   3.608   4.582 -0.2017 -0.4627  0.0217
13099TIP3    H160712   0.912   3.699   4.597  1.4565  0.7375 -3.2746
13099TIP3    H260713   1.028   3.604   4.618 -0.0941 -0.6261 -0.2603
13100TIP3   OH260714   4.108   0.765  13.425  0.0863 -0.0128 -0.4252
13100TIP3    H160715   4.134   0.801  13.340  0.0279 -0.5585 -0.6742
13100TIP3    H260716   4.125   0.671  13.418  0.6120  0.0194  0.3695
13101TIP3   OH260717   3.564   0.155  11.648  0.5537 -0.0592  0.1448
13101TIP3    H160718   3.569   0.232  11.705 -1.1973  0.1701  0.0585
13101TIP3    H260719   3.581   0.188  11.560  0.3297  0.1334  0.1741
13102TIP3   OH260720   5.058   6.602  15.301 -0.4268 -0.1517 -0.1065
13102TIP3    H160721   5.117   6.673  15.326 -0.3535 -0.2403 -0.0298
13102TIP3    H260722   5.104   6.522  15.325 -0.2592 -0.2468 -0.7362
13103TIP3   OH260723   4.427   3.439  17.234 -0.2883 -0.6203  0.2413
13103TIP3    H160724   4.479   3.477  17.163  0.0462  0.6950  1.1564
13103TIP3    H260725   4.380   3.513  17.272 -1.4099 -1.4984  0.6244
13104TIP3   OH260726   2.707   0.122   4.182 -0.4388 -0.0613 -0.3777
13104TIP3    H160727   2.777   0.120   4.248 -1.7404 -0.2430  1.0343
13104TIP3    H260728   2.633   0.164   4.226 -1.2121  0.2455 -1.8882
13105TIP3   OH260729   0.618   5.018  12.914  0.6736  0.1811 -0.1611
13105TIP3    H160730   0.548   4.967  12.954  0.8328  0.0762 -0.0130
13105TIP3    H260731   0.651   4.962  12.843 -0.1959  0.7309 -1.0226
13106TIP3   OH260732   0.178   1.797  14.131 -0.4565  0.3507  0.0040
13106TIP3    H160733   0.086   1.813  14.150 -0.2701  2.5790 -0.6490
13106TIP3    H260734   0.196   1.852  14.054  1.8104  1.3554  1.1707
13107TIP3   OH260735   3.622   4.035  14.177  0.3347  0.8645  0.0732
13107TIP3    H160736   3.592   4.073  14.260 -1.7623 -1.4233  0.4711
13107TIP3    H260737   3.620   4.109  14.116  0.4113  2.2760  1.6753
13108TIP3   OH260738   4.308   3.137  13.546 -0.2877  0.5098  0.3989
13108TIP3    H160739   4.403   3.140  13.555 -0.1908  0.6788 -0.5139
13108TIP3    H260740   4.284   3.047  13.569 -0.0333  0.7387  1.6155
13109TIP3   OH260741   0.499   4.994  17.123  0.2808  0.3214  0.1227
13109TIP3    H160742   0.523   5.038  17.205  1.8816  2.6595 -1.4950
13109TIP3    H260743   0.567   4.928  17.110 -0.8764 -1.2341  1.3932
13110TIP3   OH260744   2.750   1.927   0.269 -0.4585 -0.0554 -0.3542
13110TIP3    H160745   2.793   1.897   0.350  1.4221  0.0477 -1.2575
13110TIP3    H260746   2.723   2.017   0.289  1.0848  0.4142 -0.1762
13111TIP3   OH260747   1.237   2.701  15.595  0.5027 -0.0357 -0.2899
13111TIP3    H160748   1.143   2.687  15.609  0.8118 -1.4288  0.5868
13111TIP3    H260749   1.256   2.783  15.640  0.3917 -1.6430  2.9610
13112TIP3   OH260750   0.063   1.487   0.511  0.6126 -0.4332  0.7817
13112TIP3    H160751   0.112   1.481   0.593  1.5862  0.4103  0.2778
13112TIP3    H260752   0.125   1.523   0.448  0.4561 -2.7223 -0.8153
13113TIP3   OH260753   5.252   2.644   5.583  0.1594  0.5308  0.1934
13113TIP3    H160754   5.252   2.665   5.490 -0.2731 -1.4860 -0.2996
13113TIP3    H260755   5.163   2.663   5.612  0.1821  0.7678  0.1117
13114TIP3   OH260756   5.946   4.612  11.861  0.6431  0.2623 -0.2536
13114TIP3    H160757   5.982   4.524  11.863  1.4349  0.5796  0.8703
13114TIP3    H260758   5.980   4.653  11.940  0.4472  1.6407 -0.8538
13115TIP3   OH260759   5.768   4.614   3.364 -0.1803 -0.2753  0.0993
13115TIP3    H160760   5.684   4.587   3.327 -0.1478 -2.5000  1.4761
13115TIP3    H260761   5.793   4.690   3.312 -1.5213 -1.4382 -2.4451
13116TIP3   OH260762   3.647   6.115   1.130 -0.3489  0.5190  0.0090
13116TIP3    H160763   3.559   6.136   1.160  0.4740  1.5721  1.8868
13116TIP3    H260764   3.686   6.066   1.203  1.2913  1.9287  0.1394
13117TIP3   OH260765   0.128   1.505   3.723  0.2079  1.1166 -0.5338
13117TIP3    H160766   0.117   1.496   3.628 -1.7153  2.3394 -0.4749
13117TIP3    H260767   0.169   1.423   3.750  1.7400  1.1506 -2.5394
13118TIP3   OH260768   6.691   6.162  11.594  0.5355  0.0070  0.5900
13118TIP3    H160769   6.615   6.138  11.647 -1.2484 -0.1970 -1.8773
13118TIP3    H260770   6.691   6.099  11.521  2.3373  0.7907 -0.1606
13119TIP3   OH260771   3.197   1.976   2.465 -1.1063 -0.1861  0.0387
13119TIP3    H160772   3.192   1.999   2.372  0.3896 -2.1177 -0.5851
13119TIP3    H260773   3.274   2.021   2.498 -0.8084 -0.6257 -0.0412
13120TIP3   OH260774   0.769   2.132   3.366 -0.2015 -0.4414  0.2744
13120TIP3    H160775   0.859   2.115   3.336  0.0837 -1.8935  1.8463
13120TIP3    H260776   0.715   2.110   3.290  0.6655 -1.2758 -0.1365
13121TIP3   OH260777   1.982   5.812  12.517  0.0348  0.9740  0.1326
13121TIP3    H160778   2.057   5.828  12.459  1.9775 -1.0341  1.9159
13121TIP3    H260779   1.930   5.746  12.470  0.5918  0.7343 -0.1594
13122TIP3   OH260780   2.656   5.130   0.510  0.1308  0.4874 -0.1248
13122TIP3    H160781   2.743   5.093   0.526 -0.7973 -1.5553  0.4745
13122TIP3    H260782   2.630   5.167   0.594 -0.6336 -1.3155  0.4848
13123TIP3   OH260783   3.342   6.529   0.417  0.1191  0.7782  0.1627
13123TIP3    H160784   3.417   6.471   0.413  0.0523  0.7465 -1.7393
13123TIP3    H260785   3.377   6.615   0.392 -0.4684  0.7168 -0.9712
13124TIP3   OH260786   4.333   0.155  13.641  0.4048  0.2746 -0.3437
13124TIP3    H160787   4.335   0.230  13.701 -0.1020 -0.4763  0.6475
13124TIP3    H260788   4.421   0.119  13.645  0.2897  0.0355  0.2317
13125TIP3   OH260789   3.237   1.266  15.296  0.6577 -0.0194  0.4231
13125TIP3    H160790   3.257   1.323  15.222 -0.7216 -0.8941 -0.6828
13125TIP3    H260791   3.158   1.219  15.269  0.5745 -0.9455  2.1420
13126TIP3   OH260792   1.795   4.728  12.073 -0.0602  0.0826 -0.4614
13126TIP3    H160793   1.853   4.711  11.999  0.9711  0.7337  0.1600
13126TIP3    H260794   1.707   4.716  12.038  0.4040  0.2313 -1.7407
13127TIP3   OH260795   6.771   1.995  14.436  0.2705 -0.5171  0.1794
13127TIP3    H160796   6.680   2.024  14.431  0.0491 -0.9732  1.2311
13127TIP3    H260797   6.812   2.031  14.357 -0.5082  0.7562  0.3281
13128TIP3   OH260798   2.580   4.396   5.227  0.0219 -0.0818 -0.7047
13128TIP3    H160799   2.531   4.466   5.270  0.5497  1.1795 -2.0419
13128TIP3    H260800   2.669   4.406   5.261  0.1764  0.1448 -1.1679
13129TIP3   OH260801   6.044   4.883  11.356 -0.5228 -0.5844 -0.4490
13129TIP3    H160802   6.008   4.836  11.432 -1.0353 -0.5080 -0.6381
13129TIP3    H260803   6.047   4.816  11.287  1.3204 -1.0362  0.0292
13130TIP3   OH260804   2.239   1.108   0.299  0.4478  0.4720  0.1783
13130TIP3    H160805   2.276   1.020   0.314 -0.6829 -0.4425 -1.9890
13130TIP3    H260806   2.161   1.110   0.354  1.2401  0.7307  1.3517
13131TIP3   OH260807   6.330   0.364  12.731  0.0497  0.2815  0.6583
13131TIP3    H160808   6.411   0.393  12.688 -0.2988  0.9429  0.4368
13131TIP3    H260809   6.341   0.269  12.740  0.6535  0.2999  0.2157
13132TIP3   OH260810   5.277   6.351   3.410 -0.3983  0.4604 -0.2988
13132TIP3    H160811   5.197   6.395   3.439 -0.0139  0.5757  0.6450
13132TIP3    H260812   5.348   6.407   3.442  0.0801 -0.4104  0.2004
13133TIP3   OH260813   6.782   1.162   3.015 -0.1011 -0.2542 -1.0474
13133TIP3    H160814   6.830   1.190   2.937  0.4309 -1.7192 -1.2686
13133TIP3    H260815   6.757   1.244   3.058 -0.2163  0.5677 -2.6336
13134TIP3   OH260816   3.408   4.307  11.096  0.1109 -0.5816 -0.1654
13134TIP3    H160817   3.470   4.324  11.025 -0.9080 -1.0772 -1.1847
13134TIP3    H260818   3.457   4.251  11.157  0.3171 -1.8940 -1.4952
13135TIP3   OH260819   2.651   2.905  11.553  0.7356  0.3322 -0.2502
13135TIP3    H160820   2.579   2.967  11.562  0.6541  0.2023  0.0227
13135TIP3    H260821   2.618   2.824  11.593  1.5178  0.6711  1.1452
13136TIP3   OH260822   3.127   5.645  11.653 -0.2086  0.0036 -0.0489
13136TIP3    H160823   3.085   5.683  11.576  0.1202  2.0626  0.7389
13136TIP3    H260824   3.071   5.570  11.675 -1.1233  0.2336 -1.4310
13137TIP3   OH260825   4.119   3.757   3.287  0.8253 -0.3079 -0.3100
13137TIP3    H160826   4.108   3.703   3.208  1.4910 -1.5026  0.3813
13137TIP3    H260827   4.035   3.802   3.296 -0.0381 -1.7798 -0.5332
13138TIP3   OH260828   2.114   3.825  13.374 -0.1601 -0.1018 -0.0044
13138TIP3    H160829   2.180   3.822  13.444  1.0010  0.7057 -1.0234
13138TIP3    H260830   2.138   3.902  13.322 -0.4365 -1.2135 -1.8376
13139TIP3   OH260831   4.946   1.086   3.280 -0.1630 -0.2282 -0.2836
13139TIP3    H160832   4.911   1.173   3.257 -0.6901  0.0457  1.3703
13139TIP3    H260833   4.912   1.071   3.369 -1.2456 -2.7566 -1.0521
13140TIP3   OH260834   5.636   1.304  16.976 -0.6901 -0.6973  0.1271
13140TIP3    H160835   5.655   1.276  17.065  0.0899  1.8762  0.8494
13140TIP3    H260836   5.541   1.318  16.974 -1.1441 -3.3750 -0.3285
13141TIP3   OH260837   5.798   2.141  16.635 -0.1177 -0.4106  0.6514
13141TIP3    H160838   5.750   2.207  16.684 -0.5778  0.1106 -0.4696
13141TIP3    H260839   5.879   2.129  16.684 -0.5191  0.1672  1.4735
13142TIP3   OH260840   0.766   1.554  15.360  0.0189  0.5872 -0.2697
13142TIP3    H160841   0.795   1.559  15.269  2.2474  0.1692  0.3584
13142TIP3    H260842   0.754   1.461  15.377  0.6721  0.5692  0.1460
13143TIP3   OH260843   5.398   3.897   0.949 -0.0303  0.2303 -0.2009
13143TIP3    H160844   5.347   3.924   1.025  0.2538  0.0636  0.0544
13143TIP3    H260845   5.413   3.978   0.900  2.2062  0.9001  1.3962
13144TIP3   OH260846   6.282   3.111   3.151  0.6143 -0.1727  0.2625
13144TIP3    H160847   6.282   3.131   3.245  1.1490 -1.0962  0.4778
13144TIP3    H260848   6.344   3.039   3.143  2.8587  1.7759 -1.2132
13145TIP3   OH260849   3.495   1.551  15.347  0.2079  0.0779  0.4622
13145TIP3    H160850   3.587   1.577  15.350 -0.1115  1.5832 -1.1721
13145TIP3    H260851   3.469   1.544  15.439  1.5859  1.0182  0.9475
13146TIP3   OH260852   1.869   4.153  11.338  0.2682  0.4589  0.0448
13146TIP3    H160853   1.799   4.109  11.385  0.8234  0.3511  0.8011
13146TIP3    H260854   1.851   4.137  11.245  1.7401 -3.5048  0.2593
13147TIP3   OH260855   2.477   3.455  14.405 -0.2224  0.4453  0.3978
13147TIP3    H160856   2.526   3.514  14.463 -0.4565  0.1251  0.9315
13147TIP3    H260857   2.428   3.513  14.347  0.5512  0.7731  0.0564
13148TIP3   OH260858   6.555   1.832   4.856 -0.2561  0.1111  0.3209
13148TIP3    H160859   6.472   1.833   4.904 -1.0475  0.2999 -0.9973
13148TIP3    H260860   6.529   1.828   4.764  1.2214 -1.1403 -0.0854
13149TIP3   OH260861   3.572   2.513   0.150 -0.5527 -0.1908 -0.0386
13149TIP3    H160862   3.477   2.501   0.152 -0.6421  0.4098 -0.2813
13149TIP3    H260863   3.586   2.596   0.197 -0.1418 -0.3137  0.0585
13150TIP3   OH260864   3.162   5.534  11.173 -0.4237  0.4050 -0.2701
13150TIP3    H160865   3.200   5.559  11.088 -2.1104  0.1635 -1.1271
13150TIP3    H260866   3.226   5.566  11.237  1.2726 -0.1010 -1.6351
13151TIP3   OH260867   2.622   4.200   0.489 -0.0631 -0.2450  0.3147
13151TIP3    H160868   2.658   4.138   0.552  0.0574 -0.6412 -0.1400
13151TIP3    H260869   2.533   4.168   0.472 -0.4493  0.4145  1.0116
13152TIP3   OH260870   5.355   0.935   1.318  0.0696 -0.0664  0.0443
13152TIP3    H160871   5.269   0.927   1.277  0.2996 -0.2498 -0.4100
13152TIP3    H260872   5.345   1.006   1.381 -0.9322 -1.3580  1.3779
13153TIP3   OH260873   1.614   0.896   2.717 -0.6711 -0.3574 -0.0897
13153TIP3    H160874   1.680   0.958   2.685 -1.2439  0.4965  0.3193
13153TIP3    H260875   1.586   0.848   2.640 -0.0223 -0.2935 -0.3740
13154TIP3   OH260876   2.136   2.161   5.208 -0.9802  0.3977 -0.8491
13154TIP3    H160877   2.232   2.159   5.212 -0.8924 -2.2289 -2.3059
13154TIP3    H260878   2.108   2.120   5.290 -1.0682  3.7806  0.9998
13155TIP3   OH260879   2.130   2.555   1.622  0.1462 -0.5853 -0.4931
13155TIP3    H160880   2.070   2.513   1.683  0.3300  0.5685  0.5139
13155TIP3    H260881   2.173   2.482   1.576 -0.5681 -1.4503  0.1862
13156TIP3   OH260882   4.996   3.713   1.071 -0.2127 -0.4627 -0.1623
13156TIP3    H160883   5.010   3.716   1.166  1.5962 -0.0624 -0.4159
13156TIP3    H260884   5.075   3.673   1.036  0.3944  1.8903 -1.7230
13157TIP3   OH260885   0.441   4.935   5.096  0.1916 -0.2742  0.5014
13157TIP3    H160886   0.486   4.861   5.054  1.3546  0.0172  1.1912
13157TIP3    H260887   0.356   4.900   5.121  0.6533 -1.3341  0.6474
13158TIP3   OH260888   1.477   6.352   4.402  0.0433  0.0925 -0.7099
13158TIP3    H160889   1.445   6.278   4.454  2.8672  0.0655  1.2039
13158TIP3    H260890   1.414   6.422   4.419  0.4147 -0.1599  2.2231
13159TIP3   OH260891   5.745   0.699   4.032  0.1930 -0.2459  0.3458
13159TIP3    H160892   5.679   0.726   3.969 -0.4790 -0.7038  0.8406
13159TIP3    H260893   5.754   0.774   4.091 -0.2389 -0.3693  0.5660
13160TIP3   OH260894   5.248   4.681   5.919 -0.3642  0.0640  0.1833
13160TIP3    H160895   5.160   4.689   5.955  0.4118 -1.8145  2.7661
13160TIP3    H260896   5.240   4.713   5.829 -2.8189  3.4602  1.3993
13161TIP3   OH260897   3.724   2.383  13.845  0.2019 -0.4258 -0.6360
13161TIP3    H160898   3.746   2.414  13.757 -0.9295 -3.3108 -2.0759
13161TIP3    H260899   3.630   2.400  13.853  0.4274  0.4281  0.3213
13162TIP3   OH260900   0.037   6.175   4.210  0.6208  0.4621 -0.3895
13162TIP3    H160901   0.003   6.210   4.292  1.7229  1.8650 -0.4919
13162TIP3    H260902  -0.007   6.227   4.142 -0.1395 -0.5567 -0.7000
13163TIP3   OH260903   2.544   3.268  15.054 -0.0745 -0.0929  0.4079
13163TIP3    H160904   2.484   3.335  15.020  0.9262  0.7186  0.2054
13163TIP3    H260905   2.542   3.199  14.988 -1.1878 -0.3314  0.6652
13164TIP3   OH260906   3.716   1.503  10.936  0.0367  0.6721  0.2878
13164TIP3    H160907   3.712   1.563  10.861  1.4066  1.9416  1.1722
13164TIP3    H260908   3.662   1.429  10.910  0.3448  1.1381 -1.9127
13165TIP3   OH260909   5.313   6.391   3.694 -0.0015 -0.1740 -0.3942
13165TIP3    H160910   5.403   6.418   3.676  0.1500  0.3449  0.9660
13165TIP3    H260911   5.262   6.471   3.682 -0.2179 -0.3670 -0.7577
13166TIP3   OH260912   4.391   1.274   3.109  0.3411 -0.3612  0.5938
13166TIP3    H160913   4.399   1.179   3.111 -0.3369 -0.4726 -0.8373
13166TIP3    H260914   4.462   1.303   3.051 -0.2229 -0.1025  0.0267
13167TIP3   OH260915   2.685   2.827  16.715 -0.0475 -0.2966  0.2487
13167TIP3    H160916   2.692   2.920  16.740  0.5080 -0.2010 -0.2481
13167TIP3    H260917   2.626   2.790  16.780  0.3947  0.2236  0.9652
13168TIP3   OH260918   1.528   3.624  14.194 -0.2908  0.3158 -0.6870
13168TIP3    H160919   1.515   3.531  14.176 -0.3053  0.4359 -1.3346
13168TIP3    H260920   1.518   3.666  14.109 -1.2439  1.0154 -0.2419
13169TIP3   OH260921   6.763   4.181   0.664  0.4349  0.1930 -0.8799
13169TIP3    H160922   6.830   4.234   0.622  1.3272 -1.7131 -1.9693
13169TIP3    H260923   6.733   4.121   0.595 -1.8688  0.4885 -0.2152
13170TIP3   OH260924   0.680   0.115  12.166  0.3429 -0.1952 -0.2508
13170TIP3    H160925   0.725   0.169  12.231  1.7335  0.8005 -1.9703
13170TIP3    H260926   0.629   0.178  12.114  1.6902 -0.5346 -2.0492
13171TIP3   OH260927   5.075   5.802   6.164 -0.0986 -0.3343 -0.4972
13171TIP3    H160928   5.089   5.750   6.085 -0.9391 -1.6097  0.1542
13171TIP3    H260929   5.007   5.755   6.212  0.2675  0.5116  0.9100
13172TIP3   OH260930   4.883   0.457  13.303  0.2852  0.3663  0.8203
13172TIP3    H160931   4.805   0.406  13.326 -0.5736  2.2214  2.2386
13172TIP3    H260932   4.956   0.398  13.320 -0.7058 -0.7013  1.5471
13173TIP3   OH260933   4.900   4.457  11.767  0.4015  0.0806  0.6805
13173TIP3    H160934   4.856   4.531  11.808  1.3102  1.6717 -1.0860
13173TIP3    H260935   4.871   4.459  11.675  1.3502 -1.0413  0.3242
13174TIP3   OH260936   5.623   5.386  13.597 -0.0576 -0.0517 -0.1418
13174TIP3    H160937   5.621   5.351  13.686 -0.6811  1.9505  0.6823
13174TIP3    H260938   5.706   5.353  13.561  0.0203 -1.2190  1.0124
13175TIP3   OH260939   0.459   3.531  14.507  0.0111  0.7195  0.4148
13175TIP3    H160940   0.483   3.438  14.506 -0.4166  0.6091 -0.5688
13175TIP3    H260941   0.402   3.542  14.431  0.3517  1.8719  0.3064
13176TIP3   OH260942   4.194   5.658   4.097  0.1055 -0.0681 -0.1845
13176TIP3    H160943   4.247   5.650   4.019 -1.1394  0.8471 -1.1634
13176TIP3    H260944   4.177   5.751   4.106 -2.2808 -0.4042 -0.5954
13177TIP3   OH260945   4.314   1.324  13.306 -0.3677 -0.0648 -0.1637
13177TIP3    H160946   4.264   1.373  13.371  1.0470 -0.1621  1.0635
13177TIP3    H260947   4.261   1.246  13.288 -0.6484 -0.1973  1.1412
13178TIP3   OH260948   1.342   1.891  15.652  0.4315 -0.6576  0.0381
13178TIP3    H160949   1.383   1.808  15.626  2.0990 -0.2978  1.3267
13178TIP3    H260950   1.369   1.904  15.743 -1.6262  0.2366  0.5854
13179TIP3   OH260951   0.480   0.618  14.671 -0.1551  0.2688 -0.6466
13179TIP3    H160952   0.543   0.689  14.655 -1.1355  1.1812 -0.5564
13179TIP3    H260953   0.453   0.590  14.584 -2.4561  2.4921 -0.7628
13180TIP3   OH260954   2.135   3.911  16.389  0.3789  0.4470 -0.2870
13180TIP3    H160955   2.044   3.938  16.391  0.7893  1.8891 -0.0170
13180TIP3    H260956   2.170   3.937  16.474  0.7203 -1.3810  0.1822
13181TIP3   OH260957   4.304   2.404   1.751 -0.5347  0.2169  0.7097
13181TIP3    H160958   4.246   2.443   1.686 -0.2456 -0.5702 -0.0518
13181TIP3    H260959   4.278   2.311   1.753  1.5420 -0.4536 -0.6376
13182TIP3   OH260960   0.242   2.274  13.477 -0.0810 -0.3331 -0.6948
13182TIP3    H160961   0.328   2.270  13.518  0.0597 -0.0957 -0.9671
13182TIP3    H260962   0.251   2.339  13.407 -0.4340 -0.4264 -0.8312
13183TIP3   OH260963   1.677   0.569  13.534 -0.2476  0.1674 -0.2703
13183TIP3    H160964   1.605   0.508  13.550  0.7256 -0.9015  0.2322
13183TIP3    H260965   1.726   0.530  13.461  0.0132  0.7072 -0.3923
13184TIP3   OH260966   3.355   3.161  13.180 -0.4330  0.5918  0.0600
13184TIP3    H160967   3.329   3.250  13.202  0.8370  1.6300 -2.2388
13184TIP3    H260968   3.416   3.136  13.250 -2.8823  0.3671  2.2429
13185TIP3   OH260969   5.308   1.173   2.009 -0.3972 -0.7314  0.0716
13185TIP3    H160970   5.371   1.200   1.942  0.8517 -1.1932  1.0169
13185TIP3    H260971   5.269   1.093   1.974 -1.6009  0.3536 -1.1939
13186TIP3   OH260972   1.750   3.450   4.504  0.0293 -0.9782 -0.0934
13186TIP3    H160973   1.738   3.356   4.493  1.5682 -1.3086  0.7713
13186TIP3    H260974   1.843   3.460   4.526  0.1816  0.8552 -1.3664
13187TIP3   OH260975   6.553   1.643  16.296  0.8252  0.1112  0.0118
13187TIP3    H160976   6.626   1.592  16.332  0.0853 -0.0345  1.3601
13187TIP3    H260977   6.594   1.725  16.266  1.4810  0.2566  1.2406
13188TIP3   OH260978   6.146   0.695  13.500 -0.2981 -0.4009  0.2832
13188TIP3    H160979   6.224   0.644  13.479 -1.0126 -2.2758  1.9488
13188TIP3    H260980   6.077   0.658  13.445 -0.2057  0.8550 -0.7398
13189TIP3   OH260981   3.190   3.261  10.883  0.2802  0.5583 -0.1168
13189TIP3    H160982   3.138   3.335  10.914 -0.9505 -0.4488  0.3194
13189TIP3    H260983   3.230   3.225  10.962 -0.6527 -0.3598 -0.0432
13190TIP3   OH260984   3.871   0.632  14.915  0.1968 -0.1695 -0.2215
13190TIP3    H160985   3.857   0.712  14.864 -0.0269 -0.6379 -0.9069
13190TIP3    H260986   3.961   0.606  14.895  1.2142  1.2865  1.9900
13191TIP3   OH260987   3.080   5.772   4.317  0.0791 -0.0502  0.5019
13191TIP3    H160988   3.124   5.718   4.382 -2.8965 -1.2418  1.6974
13191TIP3    H260989   2.994   5.732   4.306 -0.6134  1.8386 -2.0105
13192TIP3   OH260990   3.162   0.796  15.177 -0.2997  0.4292  0.0101
13192TIP3    H160991   3.240   0.805  15.231 -1.8815  1.0886  2.3413
13192TIP3    H260992   3.125   0.884  15.173 -1.3457 -0.0088 -0.3437
13193TIP3   OH260993   3.928   3.866   2.653 -0.3421 -0.2129  0.2790
13193TIP3    H160994   3.931   3.919   2.574 -1.8328 -1.6471 -0.8131
13193TIP3    H260995   4.017   3.870   2.689 -0.6216  3.8813  0.9383
13194TIP3   OH260996   1.482   4.147   1.717 -0.1820  0.2621 -0.4436
13194TIP3    H160997   1.461   4.214   1.782  1.1024  0.5428 -0.2771
13194TIP3    H260998   1.549   4.188   1.661 -0.1847 -0.4932 -1.0168
13195TIP3   OH260999   0.270   2.297  16.645 -0.0974  0.4879 -0.4392
13195TIP3    H161000   0.282   2.205  16.671  0.3979  0.3272 -1.1848
13195TIP3    H261001   0.247   2.292  16.552  1.0685  1.1587 -0.7841
13196TIP3   OH261002   1.880   3.730   2.581 -0.1588  0.4954  0.6080
13196TIP3    H161003   1.954   3.767   2.532 -1.3266  1.8164 -0.2277
13196TIP3    H261004   1.886   3.636   2.566  0.7227  0.6840 -0.3692
13197TIP3   OH261005   2.134   0.896  10.127  0.4558 -0.2731  0.1198
13197TIP3    H161006   2.123   0.983  10.167  1.0695 -0.5652  0.9471
13197TIP3    H261007   2.055   0.848  10.152  0.8452 -0.4649  1.0579
13198TIP3   OH261008   3.956   4.901  12.357  0.1342  0.5013 -0.3458
13198TIP3    H161009   4.050   4.892  12.341  0.2451 -1.8020  1.0755
13198TIP3    H261010   3.942   4.995  12.367  1.6715  1.2677 -3.7164
13199TIP3   OH261011   2.664   2.747   2.700 -0.2588  0.6566 -0.6947
13199TIP3    H161012   2.628   2.832   2.675 -1.3352  0.4557  0.0879
13199TIP3    H261013   2.590   2.702   2.741  0.6021 -0.2298 -0.1020
13200TIP3   OH261014   5.128   6.668  11.352  0.1252  0.2094 -0.3627
13200TIP3    H161015   5.211   6.716  11.358 -0.0470  0.3602  1.6447
13200TIP3    H261016   5.105   6.670  11.259  1.9178  0.9275 -0.8319
13201TIP3   OH261017   5.675   1.218  12.976 -0.6246  0.0466 -0.1429
13201TIP3    H161018   5.650   1.306  13.005 -0.8680 -0.0310 -0.1193
13201TIP3    H261019   5.626   1.205  12.895 -0.2078  0.1279 -0.4105
13202TIP3   OH261020   4.044   1.072   1.957 -0.2121  0.4654  0.0516
13202TIP3    H161021   4.004   1.041   1.876  0.2959 -0.5090  0.1613
13202TIP3    H261022   3.982   1.137   1.991 -0.9388  0.1162 -0.5737
13203TIP3   OH261023   1.396   0.362  14.055 -0.7746  0.2350  0.2410
13203TIP3    H161024   1.421   0.445  14.094 -1.3061  0.2039  0.6586
13203TIP3    H261025   1.423   0.369  13.964 -1.2001  1.0329  0.1677
13204TIP3   OH261026   4.183   3.952   2.730 -0.9185  0.0408 -0.1310
13204TIP3    H161027   4.241   3.947   2.653 -2.8846 -1.2877 -1.6191
13204TIP3    H261028   4.190   4.043   2.759  3.4242 -0.4485  1.0809
13205TIP3   OH261029   1.678   0.497   5.882 -0.0527  0.4668 -0.1778
13205TIP3    H161030   1.754   0.540   5.921 -0.2374  1.1322 -0.5278
13205TIP3    H261031   1.667   0.416   5.932  1.1025  0.1860 -0.3602
13206TIP3   OH261032   2.011   1.381  13.333  0.2017 -0.0999  0.2122
13206TIP3    H161033   2.104   1.363  13.320  0.3415  0.3922  0.5300
13206TIP3    H261034   1.971   1.358  13.249  0.5681 -0.5786  0.1640
13207TIP3   OH261035   0.227   5.375   3.516  0.2922  0.1113  0.0532
13207TIP3    H161036   0.266   5.456   3.548 -0.0167  0.5383 -0.6302
13207TIP3    H261037   0.200   5.329   3.596 -0.5877  1.2112  0.4164
13208TIP3   OH261038   6.302   6.330  11.255 -0.7315  0.1271 -0.1859
13208TIP3    H161039   6.224   6.345  11.308 -1.6227  0.2619 -1.4687
13208TIP3    H261040   6.295   6.394  11.184  0.5021  0.0730 -0.3764
13209TIP3   OH261041   4.091   3.709   4.133  0.0590  0.1075 -0.3492
13209TIP3    H161042   4.090   3.624   4.090 -2.4744 -0.1798  0.1267
13209TIP3    H261043   4.138   3.695   4.215 -1.3093 -1.1390  0.2508
13210TIP3   OH261044   0.091   5.507   2.898  0.1209  0.1233  0.2464
13210TIP3    H161045   0.002   5.483   2.924  0.9431  0.0012  3.3447
13210TIP3    H261046   0.133   5.424   2.876 -0.1499  0.0308  0.0736
13211TIP3   OH261047   1.957   3.049   1.965 -0.0207 -0.3703 -0.0942
13211TIP3    H161048   2.036   3.013   1.925 -0.2586 -1.4624  0.3844
13211TIP3    H261049   1.965   3.144   1.953  1.6706 -0.3982  0.4945
13212TIP3   OH261050   1.459   5.624  13.544  0.2520 -0.6853  0.2218
13212TIP3    H161051   1.438   5.667  13.628  1.1543  0.0495  0.0815
13212TIP3    H261052   1.397   5.663  13.482  0.6563 -0.0319  0.2208
13213TIP3   OH261053   6.023   2.045   1.972 -0.1469 -0.7718  0.2313
13213TIP3    H161054   6.072   2.017   1.895  0.7788 -1.2114  0.9736
13213TIP3    H261055   5.952   2.099   1.936  1.2137  0.3971 -0.8283
13214TIP3   OH261056   4.314   6.375  15.137 -0.1025 -0.4253  0.1891
13214TIP3    H161057   4.391   6.413  15.096 -0.0438  0.3485  0.9856
13214TIP3    H261058   4.347   6.300  15.186  0.2157  0.1415  0.8547
13215TIP3   OH261059   1.767   1.566  12.902  0.4814 -0.2072 -0.0995
13215TIP3    H161060   1.696   1.548  12.963  0.1236 -0.9901 -0.7270
13215TIP3    H261061   1.791   1.480  12.868  0.9426  0.1773 -0.7643
13216TIP3   OH261062   4.347   2.817  16.317  0.1925  0.0328 -0.1734
13216TIP3    H161063   4.253   2.830  16.306 -0.3703 -2.6363  0.6999
13216TIP3    H261064   4.386   2.859  16.241 -1.5641  2.2333  0.0330
13217TIP3   OH261065   4.985   3.403  10.500 -0.3317  0.1543  0.9261
13217TIP3    H161066   5.000   3.346  10.575  0.0822  1.1147  1.5829
13217TIP3    H261067   5.072   3.419  10.464 -0.5475 -0.4913  0.0873
13218TIP3   OH261068   6.521   1.229  11.946  0.4796  0.0460 -0.2013
13218TIP3    H161069   6.577   1.305  11.957  1.5791 -0.5629 -1.3254
13218TIP3    H261070   6.439   1.252  11.989  0.3481  2.3296 -1.5404
13219TIP3   OH261071   5.894   0.253   5.692 -0.4900  0.4431 -0.2567
13219TIP3    H161072   5.930   0.279   5.778 -3.1421 -0.5642  1.2664
13219TIP3    H261073   5.832   0.323   5.670  0.7354  1.0992 -1.8243
13220TIP3   OH261074   6.370   2.032  10.668  0.3277  0.3484 -0.3908
13220TIP3    H161075   6.343   2.054  10.578 -1.7669 -1.1316 -0.2195
13220TIP3    H261076   6.454   1.987  10.657  0.1755  0.3057 -1.6117
13221TIP3   OH261077   5.491   4.824  11.264  0.0573 -0.2200  0.4335
13221TIP3    H161078   5.420   4.766  11.238  0.7829 -0.5984 -0.7977
13221TIP3    H261079   5.513   4.873  11.184  1.1713 -0.1132  0.7812
13222TIP3   OH261080   5.147   6.196   2.220  0.3490  0.0561  0.2346
13222TIP3    H161081   5.242   6.210   2.228  0.6610 -2.2762  1.9010
13222TIP3    H261082   5.132   6.183   2.127  1.6422  0.7097 -0.0783
13223TIP3   OH261083   2.240   4.400  12.639 -0.7648  0.1902  0.5492
13223TIP3    H161084   2.226   4.380  12.546  1.0654 -0.7670  0.4197
13223TIP3    H261085   2.277   4.489  12.639  0.7349 -0.3991  0.1749
13224TIP3   OH261086   1.895   2.456   5.386  0.6394 -0.0248 -0.1234
13224TIP3    H161087   1.805   2.482   5.405  0.5075  0.4567 -1.3252
13224TIP3    H261088   1.948   2.507   5.447  0.1456  0.3191  0.0216
13225TIP3   OH261089   4.635   5.631  12.005  0.1859  0.5169  0.2216
13225TIP3    H161090   4.657   5.567  11.936  1.9730  0.3522  0.8854
13225TIP3    H261091   4.713   5.633  12.060 -0.4667  2.1133  1.1266
13226TIP3   OH261092   2.188   3.230   0.285  0.2761 -0.0061  0.5395
13226TIP3    H161093   2.221   3.296   0.347 -0.1496  0.0265  0.7319
13226TIP3    H261094   2.267   3.183   0.257  0.7203  1.1703 -0.2967
13227TIP3   OH261095   6.519   2.289   3.414  0.0326 -0.2795 -0.1860
13227TIP3    H161096   6.542   2.226   3.345  0.2710  0.2265 -0.5764
13227TIP3    H261097   6.585   2.276   3.482 -0.6542 -1.3266  0.3174
13228TIP3   OH261098   1.727   4.854  15.898  0.2767  0.0224  0.3178
13228TIP3    H161099   1.715   4.761  15.917  1.5600  0.0294  1.2935
13228TIP3    H261100   1.669   4.871  15.824  1.5234 -2.0696 -1.2676
13229TIP3   OH261101   6.500   1.285  11.459  0.2448  0.0474 -0.7336
13229TIP3    H161102   6.575   1.231  11.482  0.1197  0.1037 -0.1701
13229TIP3    H261103   6.537   1.355  11.405  0.6553  0.2673 -0.1763
13230TIP3   OH261104   1.180   3.138  15.668  0.8928 -0.1760  0.2102
13230TIP3    H161105   1.187   3.230  15.644 -0.3069  0.2371  1.2950
13230TIP3    H261106   1.173   3.138  15.764 -0.9651 -1.2136  0.1348
13231TIP3   OH261107   4.997   1.954   2.150 -0.6958 -0.0517 -0.3039
13231TIP3    H161108   5.081   1.993   2.126 -0.4614 -0.8226 -0.7616
13231TIP3    H261109   4.933   2.023   2.132 -0.1518  0.6086  0.2356
13232TIP3   OH261110   2.833   0.691   6.193 -0.3051  0.0777 -0.4339
13232TIP3    H161111   2.811   0.782   6.214 -0.3379  0.1847 -0.9199
13232TIP3    H261112   2.909   0.671   6.248 -0.0338  0.5337 -0.6423
13233TIP3   OH261113   5.450   5.322   1.929 -0.2027  0.2611  0.2704
13233TIP3    H161114   5.519   5.354   1.987  3.1165 -3.1176 -1.4040
13233TIP3    H261115   5.406   5.253   1.979 -0.4256  0.4296  0.3106
13234TIP3   OH261116   0.452   2.271  14.922  0.4913  0.1812 -0.4152
13234TIP3    H161117   0.371   2.257  14.972  0.0044 -1.1235 -1.5173
13234TIP3    H261118   0.424   2.315  14.842  0.9314  0.0311 -0.6529
13235TIP3   OH261119   1.327   3.515  15.381 -0.1494 -0.3831 -0.6287
13235TIP3    H161120   1.412   3.537  15.343  0.3078 -2.6467 -1.0601
13235TIP3    H261121   1.271   3.496  15.306 -0.4019 -1.0133 -0.2877
13236TIP3   OH261122   4.877   1.415  13.515 -0.0737  0.9702 -0.0160
13236TIP3    H161123   4.853   1.341  13.571  1.0820  0.2613 -0.4112
13236TIP3    H261124   4.973   1.416  13.516 -0.0534  1.7320 -0.9573
13237TIP3   OH261125   0.319   3.566  12.186  0.3132  0.2197  0.5868
13237TIP3    H161126   0.353   3.588  12.099  0.6436  2.6585  1.2650
13237TIP3    H261127   0.395   3.569  12.244  0.0599 -1.1715  1.0363
13238TIP3   OH261128   0.297   0.564  14.110 -0.3774 -0.0297 -0.1462
13238TIP3    H161129   0.392   0.565  14.126 -0.1180 -0.5461 -1.5074
13238TIP3    H261130   0.289   0.571  14.015 -1.6635 -1.0181 -0.1343
13239TIP3   OH261131   0.725   0.768  16.566 -0.3227 -0.1978  0.0508
13239TIP3    H161132   0.649   0.713  16.587  0.5297 -2.0105 -1.2945
13239TIP3    H261133   0.731   0.765  16.471  1.8525 -0.7387  0.1611
13240TIP3   OH261134   6.054   2.604   0.200 -0.1598 -0.0160 -0.2448
13240TIP3    H161135   6.062   2.699   0.210 -1.4025  0.0474  0.2547
13240TIP3    H261136   5.961   2.587   0.209  0.1095 -1.3422  0.1640
13241TIP3   OH261137   1.153   3.260  11.669 -0.3032  0.2591 -0.1158
13241TIP3    H161138   1.073   3.307  11.691  0.2546  0.6972  1.0681
13241TIP3    H261139   1.123   3.179  11.628 -1.2993  1.3177 -1.6047
13242TIP3   OH261140   4.438   5.878   5.477 -0.1684  0.7424  0.3777
13242TIP3    H161141   4.366   5.818   5.497 -0.6550  0.9774 -0.6165
13242TIP3    H261142   4.396   5.963   5.462  0.3161  0.8999 -0.1257
13243TIP3   OH261143   1.560   1.514   5.744  0.8877 -0.0309 -0.1610
13243TIP3    H161144   1.472   1.487   5.717  0.3394 -0.7133  2.1012
13243TIP3    H261145   1.560   1.609   5.735 -0.6768  0.1491  1.3208
13244TIP3   OH261146   5.957   5.037  15.935 -0.7528  0.2590  0.4739
13244TIP3    H161147   5.972   5.039  16.029 -0.1388  1.4099  0.3611
13244TIP3    H261148   6.036   5.074  15.897 -1.1378  0.1295 -0.4861
13245TIP3   OH261149   5.518   1.307  11.334  0.2434  0.3374 -0.3318
13245TIP3    H161150   5.548   1.233  11.282  0.2643  0.5459 -0.6223
13245TIP3    H261151   5.529   1.279  11.425  1.8086  0.5930 -0.4113
13246TIP3   OH261152   0.334   6.067  15.800  0.0237 -0.6079  0.6700
13246TIP3    H161153   0.320   6.008  15.873 -0.0542 -1.1451  0.2255
13246TIP3    H261154   0.339   6.154  15.840 -3.2328 -0.4738  1.0636
13247TIP3   OH261155   5.998   4.497   4.573  0.2320 -0.0590 -0.3067
13247TIP3    H161156   6.008   4.439   4.648  0.5702 -1.5465 -1.4322
13247TIP3    H261157   6.087   4.526   4.553  0.2214 -0.1309 -0.4642
13248TIP3   OH261158   6.230   6.366  11.631  0.6193  0.2474  0.0862
13248TIP3    H161159   6.178   6.367  11.551 -2.2102 -0.5069  1.7551
13248TIP3    H261160   6.193   6.436  11.684  0.3728 -1.1338  1.8489
13249TIP3   OH261161   5.652   6.009   1.181  0.1576 -0.3167 -0.1737
13249TIP3    H161162   5.718   5.944   1.204  0.0580 -0.0319  0.9727
13249TIP3    H261163   5.569   5.963   1.190  0.1409 -0.3560 -0.5112
13250TIP3   OH261164   5.976   0.221   3.014 -0.0992 -0.7301  0.0357
13250TIP3    H161165   6.039   0.157   3.046  1.3090  1.3301  1.7162
13250TIP3    H261166   5.974   0.209   2.919 -0.3845 -3.5870  0.3317
13251TIP3   OH261167   0.520   4.822  15.112  0.4016  0.5153 -0.1947
13251TIP3    H161168   0.524   4.816  15.017  1.2305 -1.2073 -0.0928
13251TIP3    H261169   0.567   4.745  15.143 -1.5260 -0.0312  1.6156
13252TIP3   OH261170   0.087   2.410   4.671 -0.0205 -0.1710  0.2732
13252TIP3    H161171   0.058   2.344   4.734  2.2706 -2.7163 -1.1252
13252TIP3    H261172   0.075   2.370   4.585  2.1505  0.8771 -0.6089
13253TIP3   OH261173   3.674   6.735   4.924 -0.2567 -0.5883 -0.2879
13253TIP3    H161174   3.590   6.770   4.952  1.7040  3.0261  1.9812
13253TIP3    H261175   3.690   6.661   4.982 -1.7881 -1.2730 -0.7011
13254TIP3   OH261176   0.156   2.470  13.640 -0.0694 -0.1952  0.4927
13254TIP3    H161177   0.123   2.396  13.589  1.7172 -0.2934 -0.5737
13254TIP3    H261178   0.146   2.546  13.582 -1.7915  0.4488  1.5382
13255TIP3   OH261179   5.613   4.056   2.784  0.3225 -0.0302  0.4758
13255TIP3    H161180   5.578   4.026   2.700  0.9458 -0.4552  0.3605
13255TIP3    H261181   5.695   4.008   2.794  0.7701  0.7947  0.8387
13256TIP3   OH261182   1.179   1.382   4.936 -0.4725 -0.1395  0.4939
13256TIP3    H161183   1.208   1.291   4.935 -0.8979 -0.2926  1.3543
13256TIP3    H261184   1.101   1.383   4.881  1.2456  0.3395 -2.1160
13257TIP3   OH261185   1.266   4.163  13.872  0.6403  0.1242 -0.2154
13257TIP3    H161186   1.286   4.122  13.956  0.0697  0.3532  0.0358
13257TIP3    H261187   1.271   4.091  13.808  0.3690 -0.1979  0.1175
13258TIP3   OH261188   3.948   3.537  12.204  0.3216  0.3187 -0.1040
13258TIP3    H161189   3.986   3.557  12.118 -0.8712  0.9187 -0.5105
13258TIP3    H261190   3.854   3.537  12.189  0.1150 -0.0741  1.1101
13259TIP3   OH261191   4.328   3.063   3.667  0.3037  0.7005 -0.2838
13259TIP3    H161192   4.356   3.131   3.607  0.6150 -0.1011 -1.0668
13259TIP3    H261193   4.406   3.008   3.679 -0.3753 -0.4626 -0.9912
13260TIP3   OH261194   3.761   3.463  14.277 -0.0291  0.6587  0.2499
13260TIP3    H161195   3.671   3.436  14.294  0.8635 -2.1301  1.1124
13260TIP3    H261196   3.790   3.503  14.359 -0.3868  1.3369  0.0511
13261TIP3   OH261197   2.064   4.546   3.443 -0.1188 -0.1116 -0.2433
13261TIP3    H161198   2.135   4.485   3.461 -0.7606 -0.3244  1.8715
13261TIP3    H261199   1.988   4.491   3.429 -0.4989  0.1644  0.6880
13262TIP3   OH261200   2.542   2.429  14.849  0.1899 -0.1794  0.2812
13262TIP3    H161201   2.472   2.492  14.865  0.8914  0.2561  1.7699
13262TIP3    H261202   2.603   2.474  14.790  0.1814  0.1564  0.5290
13263TIP3   OH261203   2.513   0.075  15.629 -0.0728  0.1363  0.3874
13263TIP3    H161204   2.555   0.021  15.697  0.8036 -0.3435 -0.5104
13263TIP3    H261205   2.485   0.154  15.675  1.5322  0.3253  1.0925
13264TIP3   OH261206   5.448   0.140   4.685 -0.4407 -0.3882 -0.7795
13264TIP3    H161207   5.446   0.146   4.589 -0.8944 -0.3935 -0.7736
13264TIP3    H261208   5.356   0.145   4.711 -0.4183 -1.6087 -0.4192
13265TIP3   OH261209   4.822   1.279   2.032  0.4398 -0.2572 -0.0985
13265TIP3    H161210   4.783   1.357   1.994  1.3071  0.0905 -0.3026
13265TIP3    H261211   4.915   1.286   2.011  0.8544 -0.3621  1.5636
13266TIP3   OH261212   3.518   4.515   1.512 -0.2111 -0.5271  0.2554
13266TIP3    H161213   3.601   4.479   1.481 -0.1094  1.9165 -2.8904
13266TIP3    H261214   3.542   4.575   1.582  0.4587 -1.0835  0.5120
13267TIP3   OH261215   0.460   3.871   5.590 -0.0580  0.2154  0.2482
13267TIP3    H161216   0.443   3.778   5.600 -0.6116  0.1183 -1.3180
13267TIP3    H261217   0.373   3.910   5.576  0.2363  0.8473  0.1178
13268TIP3   OH261218   0.898   5.618  13.673 -0.0272 -0.1898 -0.3937
13268TIP3    H161219   0.892   5.543  13.614  0.1561 -2.1755  1.9259
13268TIP3    H261220   0.993   5.629  13.687 -0.0087  1.0419 -1.3276
13269TIP3   OH261221   0.604   4.662  13.142  0.0970 -1.1285 -1.5375
13269TIP3    H161222   0.519   4.689  13.108 -1.1907 -1.4348  1.1666
13269TIP3    H261223   0.586   4.582  13.191  1.2965  0.3368  1.5558
13270TIP3   OH261224   3.489   1.976  12.286 -0.3018  0.0733 -0.0253
13270TIP3    H161225   3.524   2.038  12.222  1.1185 -0.8954 -0.2270
13270TIP3    H261226   3.419   1.930  12.239 -1.6275  1.7316  0.2442
13271TIP3   OH261227   2.410   0.463  12.280 -0.4529 -0.4532 -0.1090
13271TIP3    H161228   2.393   0.431  12.192 -0.8490 -1.2689  0.2558
13271TIP3    H261229   2.479   0.406  12.314 -0.8287 -0.6209  0.3787
13272TIP3   OH261230   0.611   3.209  12.914 -0.1695 -0.3264  0.4094
13272TIP3    H161231   0.691   3.207  12.861 -0.7988  1.7092 -0.7203
13272TIP3    H261232   0.555   3.142  12.875  1.0838 -2.0937  1.4921
13273TIP3   OH261233   1.393   1.153  15.796 -0.3195  0.4146 -0.3699
13273TIP3    H161234   1.332   1.080  15.784 -1.6871  1.6612 -1.4135
13273TIP3    H261235   1.342   1.231  15.773  0.8388  1.8044  1.4477
13274TIP3   OH261236   2.616   6.517  15.001 -0.7460  0.2807 -0.1641
13274TIP3    H161237   2.655   6.446  15.051 -2.0257 -0.9985 -0.8780
13274TIP3    H261238   2.553   6.556  15.061  0.0339  0.8912  0.2644
13275TIP3   OH261239   1.949   4.717   4.378  0.3314 -0.3589  0.6099
13275TIP3    H161240   1.983   4.791   4.429 -0.0409 -0.5096  1.0916
13275TIP3    H261241   1.897   4.667   4.441 -0.5787 -0.2660 -0.0522
13276TIP3   OH261242   5.477   1.326  13.306 -0.0392 -0.2265 -0.2335
13276TIP3    H161243   5.428   1.305  13.386 -0.2499 -1.3414 -0.6423
13276TIP3    H261244   5.440   1.409  13.276 -1.0214 -0.5684 -0.0072
13277TIP3   OH261245   2.770   1.360  11.213 -0.0724  0.2968 -0.0243
13277TIP3    H161246   2.719   1.375  11.133  0.4468 -0.3098 -0.4806
13277TIP3    H261247   2.823   1.282  11.194  1.6775  1.3837  0.0957
13278TIP3   OH261248   5.767   5.371  14.641 -0.4686  0.2014 -0.4602
13278TIP3    H161249   5.826   5.301  14.613 -1.3272 -0.4242 -0.7595
13278TIP3    H261250   5.727   5.337  14.721  0.6928  1.2675  0.6251
13279TIP3   OH261251   4.547   6.261   5.558 -0.4882  0.6278 -0.0924
13279TIP3    H161252   4.637   6.242   5.535 -0.9882 -2.1334 -0.0776
13279TIP3    H261253   4.545   6.258   5.654 -0.8956 -1.1299 -0.1309
13280TIP3   OH261254   3.299   2.493  12.705 -0.5706 -0.1733  0.0328
13280TIP3    H161255   3.212   2.531  12.718 -1.3213 -1.4017 -1.0684
13280TIP3    H261256   3.328   2.527  12.620 -1.1223 -1.7192 -0.8200
13281TIP3   OH261257   6.788   4.048  15.208 -0.3139 -0.3450  1.0073
13281TIP3    H161258   6.700   4.057  15.170  0.3397 -0.8363 -0.6780
13281TIP3    H261259   6.810   3.956  15.197  0.3962 -0.2408  1.4823
13282TIP3   OH261260   6.776   3.049   3.715  0.4365 -0.2398  0.5714
13282TIP3    H161261   6.824   3.096   3.784  0.1602  0.4173  0.3214
13282TIP3    H261262   6.736   3.118   3.663 -0.9441 -0.7750  0.8800
13283TIP3   OH261263   1.468   3.327  13.875  0.1157  0.1697 -0.1434
13283TIP3    H161264   1.434   3.237  13.873 -0.7619  0.4656  0.8478
13283TIP3    H261265   1.410   3.376  13.816 -1.2466  0.6693  1.5290
13284TIP3   OH261266   4.909   1.743   4.494  0.9426 -0.2599 -0.0162
13284TIP3    H161267   4.882   1.788   4.414  3.4074  1.6670  0.1062
13284TIP3    H261268   4.851   1.777   4.562 -0.0316 -0.5858 -0.6654
13285TIP3   OH261269   3.833   4.698   4.077 -0.0879  0.2512  0.1306
13285TIP3    H161270   3.827   4.766   4.144 -3.1091  0.8588 -0.6122
13285TIP3    H261271   3.880   4.740   4.004  2.8175 -0.2746  1.5403
13286TIP3   OH261272   2.223   0.205   3.977 -0.7958 -0.6106  0.1056
13286TIP3    H161273   2.141   0.161   3.953 -1.5137  0.1284  1.1180
13286TIP3    H261274   2.262   0.151   4.045 -0.5229 -0.8681 -0.2511
13287TIP3   OH261275   2.603   0.719  15.956 -0.6104 -0.7800 -0.1180
13287TIP3    H161276   2.591   0.716  16.051 -2.0799  0.8617 -0.2023
13287TIP3    H261277   2.627   0.810  15.938  0.9707 -1.3722 -1.2188
13288TIP3   OH261278   3.023   3.241   2.327  0.4065 -0.0066 -0.7075
13288TIP3    H161279   3.074   3.319   2.350  1.6658 -1.1382  0.4594
13288TIP3    H261280   3.009   3.196   2.410 -1.1349 -0.5714 -1.2353
13289TIP3   OH261281   4.791   6.485  13.119 -0.2926  0.5675  0.2379
13289TIP3    H161282   4.725   6.416  13.120  0.1350  0.1493 -0.0403
13289TIP3    H261283   4.823   6.489  13.209 -0.2648  0.3558  0.2365
13290TIP3   OH261284   1.062   1.965   2.610 -0.0198 -0.1051  0.2363
13290TIP3    H161285   1.057   1.947   2.516 -0.0483 -1.2651  0.4432
13290TIP3    H261286   1.156   1.979   2.627  0.2820 -1.9649  0.3585
13291TIP3   OH261287   2.414   1.519  13.230  0.1466  0.2110  0.3693
13291TIP3    H161288   2.372   1.586  13.284 -0.0930 -0.5928  1.1956
13291TIP3    H261289   2.496   1.498  13.276  0.3896  0.1724 -0.0671
13292TIP3   OH261290   4.193   3.182   6.318 -0.4137 -0.1521  0.5794
13292TIP3    H161291   4.263   3.121   6.292  0.7992  0.8923  1.2840
13292TIP3    H261292   4.239   3.259   6.351 -1.9033  0.0971  2.2278
13293TIP3   OH261293   4.944   5.158   4.937  0.0495 -0.0991 -0.3722
13293TIP3    H161294   4.854   5.145   4.908  0.2192 -0.4244 -0.7670
13293TIP3    H261295   4.995   5.093   4.888  0.6241  0.6399 -0.7821
13294TIP3   OH261296   3.419   2.204  15.041 -0.4330 -0.0943  0.2604
13294TIP3    H161297   3.383   2.232  15.125  0.9355  0.1395  0.8037
13294TIP3    H261298   3.367   2.250  14.976 -1.5076 -0.2586  0.9714
13295TIP3   OH261299   5.330   3.809  15.693 -0.0982 -0.3255  0.1101
13295TIP3    H161300   5.357   3.830  15.604  2.2125 -1.2027  0.5275
13295TIP3    H261301   5.345   3.714  15.701 -0.7525 -0.3517  1.2813
13296TIP3   OH261302   1.070   1.941  15.577 -0.2195 -0.1583 -0.1882
13296TIP3    H161303   1.156   1.926  15.616 -0.2628 -1.1994 -0.4586
13296TIP3    H261304   1.041   1.854  15.551 -1.8415  0.0062  0.9209
13297TIP3   OH261305   4.118   6.175  16.816 -0.8232  0.2538  0.1607
13297TIP3    H161306   4.044   6.139  16.767 -1.0906 -0.4316  1.0347
13297TIP3    H261307   4.119   6.268  16.793  0.4746 -0.4015 -2.9241
13298TIP3   OH261308   1.293   6.568  13.422 -0.6055 -0.6591 -0.3145
13298TIP3    H161309   1.292   6.601  13.512 -0.8208  0.5455 -0.7365
13298TIP3    H261310   1.317   6.644  13.369 -0.7948 -1.2735 -1.3114
13299TIP3   OH261311   1.181   3.290   3.902 -0.3993 -0.4707 -0.2090
13299TIP3    H161312   1.223   3.297   3.988  0.2305 -0.9369 -0.4748
13299TIP3    H261313   1.236   3.342   3.844 -0.6999 -0.3379 -0.3776
13300TIP3   OH261314   1.622   1.871  12.323 -0.8079  0.1110  0.1499
13300TIP3    H161315   1.682   1.798  12.339 -0.0618  0.6464 -0.1847
13300TIP3    H261316   1.549   1.856  12.384  0.7651  0.7396  2.2760
13301TIP3   OH261317   3.068   6.346  13.339 -0.7548  0.0339 -0.3389
13301TIP3    H161318   3.023   6.398  13.272  0.3020  1.6102  0.1297
13301TIP3    H261319   3.099   6.410  13.403 -0.9768 -1.3562  1.2331
13302TIP3   OH261320   0.043   3.464   5.986 -0.1923 -0.1772  0.0154
13302TIP3    H161321  -0.010   3.505   6.053 -1.4649  0.1503 -1.1473
13302TIP3    H261322   0.059   3.375   6.019  0.5416  0.4375  1.4274
13303TIP3   OH261323   1.577   5.362   2.517  0.3728  0.5927 -1.0371
13303TIP3    H161324   1.537   5.278   2.537  1.3401 -0.0041 -1.5063
13303TIP3    H261325   1.521   5.427   2.559 -0.6107 -0.2593 -1.0060
13304TIP3   OH261326   4.126   0.337  14.484  0.0624  0.1239 -0.1891
13304TIP3    H161327   4.080   0.309  14.562  0.5085  0.6007  0.2583
13304TIP3    H261328   4.113   0.267  14.421  1.3177 -1.1798  0.9442
13305TIP3   OH261329   5.638   0.244  12.811 -0.7516 -0.2006  0.5819
13305TIP3    H161330   5.680   0.308  12.869 -0.3914  0.3292 -0.2557
13305TIP3    H261331   5.551   0.232  12.850 -0.6583  0.4437  1.0153
13306TIP3   OH261332   4.139   4.956  11.963  0.2420  0.5863 -0.6277
13306TIP3    H161333   4.155   4.970  12.056  0.2221 -0.7094 -0.4021
13306TIP3    H261334   4.160   5.039  11.922  1.7744  0.7409  0.3560
13307TIP3   OH261335   3.951   4.010   2.421 -0.1788 -0.3073  0.2123
13307TIP3    H161336   4.005   4.084   2.393  0.5152 -1.0995 -0.6416
13307TIP3    H261337   3.987   3.935   2.373 -0.7791 -1.2242  1.1517
13308TIP3   OH261338   4.190   3.238   4.108  0.2774  0.2867 -0.5660
13308TIP3    H161339   4.181   3.176   4.035 -0.6474 -0.5591  0.2385
13308TIP3    H261340   4.153   3.319   4.074 -0.2439 -0.1285 -1.0250
13309TIP3   OH261341   0.419   1.418   3.541 -0.1706 -0.0497 -0.3536
13309TIP3    H161342   0.486   1.362   3.501 -0.1790 -0.5239  0.2737
13309TIP3    H261343   0.379   1.363   3.608 -1.1157  0.2674 -0.6398
13310TIP3   OH261344   2.692   3.913  11.356 -0.2365  0.1290  0.4854
13310TIP3    H161345   2.684   3.990  11.412 -0.5920  0.4396  0.0220
13310TIP3    H261346   2.751   3.942  11.285  1.4470 -0.7283  1.4780
13311TIP3   OH261347   1.667   0.118   2.512 -0.4087 -0.5100 -0.5470
13311TIP3    H161348   1.683   0.155   2.599 -1.1394  0.4977 -0.8319
13311TIP3    H261349   1.726   0.042   2.508  1.0719  0.5424  0.0769
13312TIP3   OH261350   3.699   1.035  12.092  0.0999 -0.2398  0.2835
13312TIP3    H161351   3.761   1.055  12.021  0.7646 -0.0795  0.8932
13312TIP3    H261352   3.714   1.104  12.156  0.5986 -1.2292  1.2668
13313TIP3   OH261353   4.274   2.347   2.707 -0.3388  0.2179 -0.1169
13313TIP3    H161354   4.199   2.311   2.659 -1.6746 -1.6061  3.0279
13313TIP3    H261355   4.238   2.421   2.755  0.4350  0.6480 -0.1870
13314TIP3   OH261356   4.992   2.136   1.372 -0.5965 -0.0472  0.3274
13314TIP3    H161357   4.988   2.196   1.298 -0.2177 -0.0183  0.3269
13314TIP3    H261358   5.061   2.172   1.428  0.1461 -0.8848 -0.0303
13315TIP3   OH261359   6.672   0.722   3.230 -0.0773 -0.2087 -0.3534
13315TIP3    H161360   6.722   0.773   3.166  3.2011 -3.0462 -0.3207
13315TIP3    H261361   6.609   0.673   3.176  0.5525 -0.2769 -1.0483
13316TIP3   OH261362   2.264   1.682   3.468  0.5746  0.0189  0.0062
13316TIP3    H161363   2.295   1.772   3.456 -1.1960  0.4489 -1.8659
13316TIP3    H261364   2.336   1.627   3.437  2.2914  0.6209  2.5260
13317TIP3   OH261365   4.846   0.374  15.468 -0.0211  0.1291  0.1307
13317TIP3    H161366   4.827   0.280  15.476  0.4660  0.1398  1.7068
13317TIP3    H261367   4.811   0.412  15.549 -1.0396  1.4711 -0.9058
13318TIP3   OH261368   4.394   3.291  14.825 -0.2792 -0.4708  0.5905
13318TIP3    H161369   4.444   3.280  14.906  0.1665 -1.1785  0.2260
13318TIP3    H261370   4.377   3.385  14.819  3.4137  0.2576 -0.6788
13319TIP3   OH261371   2.449   4.516   6.720 -0.1383 -0.2301  0.7622
13319TIP3    H161372   2.540   4.522   6.748  0.0311 -0.2205  0.2035
13319TIP3    H261373   2.435   4.595   6.668  0.0967 -1.1576 -0.7809
13320TIP3   OH261374   4.057   3.658   2.441 -0.0154  0.2692  0.6773
13320TIP3    H161375   3.963   3.644   2.438 -0.3220  2.1168  0.6740
13320TIP3    H261376   4.073   3.732   2.382  1.5005 -0.3051  0.3172
13321TIP3   OH261377   4.754   2.779   0.163  0.5246 -0.0857 -0.1621
13321TIP3    H161378   4.733   2.703   0.110  0.7664 -0.3889  0.1669
13321TIP3    H261379   4.752   2.853   0.103 -0.8033 -0.1908 -0.2737
13322TIP3   OH261380   2.697   5.686   0.943 -0.1703 -0.8534  0.3108
13322TIP3    H161381   2.786   5.689   0.978  0.3834 -0.8896 -1.0669
13322TIP3    H261382   2.654   5.762   0.983  0.3512 -1.0519  1.2822
13323TIP3   OH261383   1.736   3.764   6.172  0.3371  0.0850  0.1652
13323TIP3    H161384   1.766   3.812   6.250 -0.2523 -0.9798  1.0800
13323TIP3    H261385   1.650   3.730   6.198 -0.3638  0.6220 -1.3554
13324TIP3   OH261386   0.418   6.682  10.972 -0.2254 -0.5011 -0.2823
13324TIP3    H161387   0.350   6.614  10.966  0.0365 -0.6471 -2.1301
13324TIP3    H261388   0.495   6.643  10.930  0.8418 -0.0836  1.1738
13325TIP3   OH261389   4.142   4.763  12.747  0.2412 -0.4365  0.0985
13325TIP3    H161390   4.112   4.673  12.736 -0.4007 -0.3611  1.0636
13325TIP3    H261391   4.063   4.816  12.737  0.7952  0.1301 -1.5578
13326TIP3   OH261392   6.223   2.430   2.820 -0.5760 -0.4953 -0.4348
13326TIP3    H161393   6.164   2.402   2.750 -0.6178  0.7061 -0.9034
13326TIP3    H261394   6.256   2.515   2.791 -0.5479  0.0025  0.9769
13327TIP3   OH261395   4.711   4.414   5.128  0.0536  0.1952 -0.0332
13327TIP3    H161396   4.692   4.328   5.165 -1.6457 -0.6653 -2.6308
13327TIP3    H261397   4.796   4.438   5.166 -0.6092 -1.3995  2.7271
13328TIP3   OH261398   1.510   1.387   1.812  0.1379 -0.3973  0.3846
13328TIP3    H161399   1.434   1.425   1.856  0.8179 -1.5867  2.7510
13328TIP3    H261400   1.551   1.460   1.767 -1.9834  0.4121 -0.3926
13329TIP3   OH261401   3.211   2.716   6.013  0.3150 -0.0465 -1.0587
13329TIP3    H161402   3.220   2.628   6.051 -0.8864  0.2419 -0.0381
13329TIP3    H261403   3.256   2.773   6.076  1.6353  0.0183 -2.0342
13330TIP3   OH261404   0.224   2.878   4.506 -0.1291  0.2494 -0.4719
13330TIP3    H161405   0.307   2.841   4.536 -0.2942  0.6388  0.5066
13330TIP3    H261406   0.169   2.802   4.486  0.9788 -0.0357 -2.7275
13331TIP3   OH261407   5.662   3.433  14.768 -0.4761 -0.2792 -0.4967
13331TIP3    H161408   5.684   3.377  14.842  0.9798  1.0497  0.1340
13331TIP3    H261409   5.746   3.453  14.727 -1.2007 -0.4577 -2.1361
13332TIP3   OH261410   4.244   1.866   2.937  0.2451 -0.0230  0.3289
13332TIP3    H161411   4.329   1.908   2.926  2.2870 -3.5409  1.0947
13332TIP3    H261412   4.200   1.916   3.006  2.2958  1.0253  0.9432
13333TIP3   OH261413   3.034   1.081   0.817 -1.1071  0.3406 -0.0274
13333TIP3    H161414   3.119   1.125   0.813 -1.0921  0.2928 -0.2238
13333TIP3    H261415   3.019   1.067   0.911 -0.7265  0.0109 -0.0122
13334TIP3   OH261416   3.508   2.128   4.890 -0.3440 -0.2112 -0.3623
13334TIP3    H161417   3.476   2.161   4.973  1.3168 -0.7914  0.5566
13334TIP3    H261418   3.466   2.042   4.880  1.5105 -1.4309  1.3331
13335TIP3   OH261419   0.089   0.793   0.124  0.6808 -0.3479 -0.0051
13335TIP3    H161420   0.100   0.763   0.214  1.3237 -0.0036  0.0432
13335TIP3    H261421   0.127   0.723   0.071  2.3185  0.3954  0.1143
13336TIP3   OH261422   1.050   4.230   2.516  0.2497 -0.2956  0.0816
13336TIP3    H161423   1.117   4.226   2.447 -1.6182 -0.3343 -1.8318
13336TIP3    H261424   1.083   4.295   2.577  2.1193 -0.4579 -0.6730
13337TIP3   OH261425   1.399   5.630  13.987 -0.0694 -0.3039  0.3308
13337TIP3    H161426   1.399   5.657  14.079  1.6633  1.1131 -0.0390
13337TIP3    H261427   1.476   5.574  13.978 -0.1333 -0.2995 -0.3030
13338TIP3   OH261428   1.209   4.517   3.522  0.0443  0.3013 -0.5922
13338TIP3    H161429   1.239   4.549   3.607 -1.7470  1.3268 -0.3067
13338TIP3    H261430   1.261   4.439   3.506  0.5204  0.1756  1.3759
13339TIP3   OH261431   3.218   0.108  13.836 -0.1792  0.6565 -0.4072
13339TIP3    H161432   3.277   0.178  13.865  0.6501 -0.2276  0.1057
13339TIP3    H261433   3.161   0.150  13.772  0.6189  1.6833 -0.4768
13340TIP3   OH261434   3.211   0.586   5.286 -0.2623  0.6685  0.0639
13340TIP3    H161435   3.170   0.503   5.262  0.7464 -0.0507  0.7656
13340TIP3    H261436   3.252   0.617   5.205  1.7467 -0.9383  0.3893
13341TIP3   OH261437   6.507   5.448   5.021 -0.0843  0.5236 -0.0806
13341TIP3    H161438   6.586   5.493   5.052  0.3523 -0.1462 -0.2031
13341TIP3    H261439   6.512   5.454   4.925  1.4795 -2.2122 -0.2685
13342TIP3   OH261440   4.902   2.549  10.731 -0.1419  0.6042  0.7773
13342TIP3    H161441   4.959   2.571  10.657  1.0930 -0.7154  1.2817
13342TIP3    H261442   4.849   2.627  10.745  1.4281  1.8203  0.1788
13343TIP3   OH261443   4.531   0.414  11.431  0.0087 -0.1337  0.2630
13343TIP3    H161444   4.558   0.431  11.341 -0.8142  1.6444  0.2951
13343TIP3    H261445   4.454   0.471  11.443 -0.6089 -1.2310  1.7160
13344TIP3   OH261446   4.866   6.631  17.090 -0.2836  0.2112 -0.1948
13344TIP3    H161447   4.898   6.670  17.009 -1.8790  2.5485  0.1762
13344TIP3    H261448   4.848   6.540  17.069 -0.6323  0.7618 -2.4596
13345TIP3   OH261449   3.901   2.514  11.667  0.6299  0.3326  0.4021
13345TIP3    H161450   3.817   2.511  11.621  0.4041 -2.6717  0.7793
13345TIP3    H261451   3.878   2.499  11.759  1.5186  0.2954  0.6283
13346TIP3   OH261452   2.074   2.219  13.278 -0.0181 -0.3515 -0.6004
13346TIP3    H161453   2.112   2.289  13.332 -0.7517  0.8048 -1.5301
13346TIP3    H261454   2.125   2.141  13.300 -0.3940  0.0061  1.9016
13347TIP3   OH261455   1.381   1.044  12.977 -0.1199  0.2281  0.1020
13347TIP3    H161456   1.382   0.950  12.957 -0.7850  0.5238 -1.4338
13347TIP3    H261457   1.387   1.087  12.891 -3.2578  1.5940  0.4315
13348TIP3   OH261458   2.388   4.444  12.376 -0.3310 -0.0265  0.1703
13348TIP3    H161459   2.368   4.509  12.309 -0.1320  0.4369  0.5543
13348TIP3    H261460   2.321   4.376  12.364  1.1011 -1.1681 -2.0443
13349TIP3   OH261461   3.624   4.494   4.806 -0.4995 -0.0785 -0.3561
13349TIP3    H161462   3.599   4.584   4.823 -0.6833 -0.0432 -0.7836
13349TIP3    H261463   3.572   4.442   4.867 -1.7400 -0.0143 -1.3089
13350TIP3   OH261464   1.672   4.632   2.469  0.0317 -0.2245 -0.7778
13350TIP3    H161465   1.762   4.660   2.483 -0.1967  0.7411 -1.1738
13350TIP3    H261466   1.677   4.575   2.393  0.4984 -1.2885  0.0243
13351TIP3   OH261467   3.162   2.523  16.139 -0.3845 -0.6856 -0.5798
13351TIP3    H161468   3.074   2.548  16.168 -0.9136  0.2208 -2.7199
13351TIP3    H261469   3.146   2.464  16.065  0.7451  0.4558 -1.7982
13352TIP3   OH261470   3.588   1.157  14.588  0.4676  0.2017 -0.2870
13352TIP3    H161471   3.620   1.236  14.631  1.1624  0.2840 -0.9452
13352TIP3    H261472   3.494   1.173  14.575  0.9155  1.7035 -2.0547
13353TIP3   OH261473   0.841   4.638  17.020 -0.6681  0.1292 -0.2818
13353TIP3    H161474   0.823   4.732  17.026 -1.5898 -0.0390 -0.1809
13353TIP3    H261475   0.878   4.615  17.105  0.7167  0.6174 -0.7230
13354TIP3   OH261476   3.873   2.599   0.525  0.0329  0.4099  0.0821
13354TIP3    H161477   3.903   2.509   0.520  0.1222  0.5115 -1.5570
13354TIP3    H261478   3.882   2.622   0.618  0.3343 -1.1366  0.4583
13355TIP3   OH261479   2.847   0.464   4.680  0.2844  0.0993  0.0604
13355TIP3    H161480   2.876   0.515   4.605 -0.0963 -1.5340 -1.2629
13355TIP3    H261481   2.921   0.466   4.741  0.7975  1.0311 -0.5848
13356TIP3   OH261482   6.750   4.946  15.685  0.1686 -0.0008 -0.0986
13356TIP3    H161483   6.789   4.948  15.598 -1.0464 -0.6552 -0.6724
13356TIP3    H261484   6.825   4.952  15.745  1.2382 -1.9767 -1.1396
13357TIP3   OH261485   0.227   2.800  11.951  0.7546 -0.3498 -0.0402
13357TIP3    H161486   0.289   2.736  11.915 -0.1186 -0.4695 -1.4169
13357TIP3    H261487   0.256   2.884  11.918 -0.0841 -0.4664 -1.1449
13358TIP3   OH261488   2.242   1.846   2.128  0.2282 -0.1247 -0.0472
13358TIP3    H161489   2.335   1.871   2.127 -0.1840  1.5273 -0.9559
13358TIP3    H261490   2.200   1.915   2.180 -0.9973  1.3205 -2.7883
13359TIP3   OH261491   0.390   6.694   2.678 -0.0708  0.0657 -0.5009
13359TIP3    H161492   0.331   6.665   2.608 -1.8436 -0.1730  1.0147
13359TIP3    H261493   0.352   6.658   2.758  1.7491  0.5484  0.6442
13360TIP3   OH261494   2.698   4.755   2.955  0.0049  0.2559  0.1605
13360TIP3    H161495   2.682   4.766   3.049 -0.6438  1.9263 -0.1180
13360TIP3    H261496   2.792   4.738   2.949 -0.3644 -2.9062  1.2928
13361TIP3   OH261497   1.829   6.164  12.579  0.3065  0.2743 -0.1312
13361TIP3    H161498   1.807   6.237  12.637 -1.4233  0.2491 -0.7261
13361TIP3    H261499   1.750   6.147  12.529  1.1899 -0.9425 -1.1922
13362TIP3   OH261500   5.587   3.818  12.946 -0.7885  0.1448  0.2392
13362TIP3    H161501   5.664   3.783  12.991 -1.3562  2.8546  3.7154
13362TIP3    H261502   5.513   3.779  12.992 -1.4249  1.3861  0.3100
13363TIP3   OH261503   2.789   6.528  13.784 -0.3606  0.3447 -0.2898
13363TIP3    H161504   2.776   6.481  13.866 -0.0913 -1.6023 -1.2890
13363TIP3    H261505   2.734   6.482  13.721  0.7796  0.6412 -1.5662
13364TIP3   OH261506   1.573   0.147   5.616 -0.8218 -0.0248  1.0477
13364TIP3    H161507   1.523   0.115   5.540 -0.8616 -0.6165  1.3132
13364TIP3    H261508   1.527   0.227   5.643 -1.0411 -0.0266  0.6853
13365TIP3   OH261509   2.354   3.941   5.175 -0.1461 -0.4480 -0.3768
13365TIP3    H161510   2.413   3.902   5.240 -0.0919  1.1614  0.6020
13365TIP3    H261511   2.406   4.010   5.134 -0.5946 -0.6065 -1.2281
13366TIP3   OH261512   4.658   2.824   1.712 -0.0914 -0.4849  0.5255
13366TIP3    H161513   4.649   2.898   1.772  0.3936  0.2858 -0.3270
13366TIP3    H261514   4.584   2.767   1.733 -0.3262  0.1196  1.3678
13367TIP3   OH261515   3.078   2.058   4.065  0.0421  0.1135 -0.1029
13367TIP3    H161516   3.070   2.117   3.990 -0.5105 -0.1547 -0.2596
13367TIP3    H261517   3.107   2.115   4.137 -2.0966  0.9239  0.1770
13368TIP3   OH261518   4.576   1.627  14.617 -0.5737  0.1688 -0.2643
13368TIP3    H161519   4.609   1.698  14.671  0.2109 -0.1238 -0.3441
13368TIP3    H261520   4.611   1.547  14.658 -1.2117 -0.1531 -0.3358
13369TIP3   OH261521   5.956   2.967  14.753 -0.5638 -0.7976 -0.0327
13369TIP3    H161522   5.920   3.016  14.827  1.0112 -0.7713  0.7431
13369TIP3    H261523   5.914   2.880  14.760 -0.9973 -0.5589  0.4295
13370TIP3   OH261524   5.132   0.460   3.815 -0.3489  0.1200  0.5239
13370TIP3    H161525   5.192   0.476   3.888 -1.3043 -1.8028  1.8341
13370TIP3    H261526   5.046   0.453   3.856 -0.9958 -0.5279 -0.8634
13371TIP3   OH261527   2.909   2.748  16.031  0.5615  0.2951 -0.1643
13371TIP3    H161528   2.859   2.807  15.975 -0.6748 -0.2301  0.3318
13371TIP3    H261529   2.938   2.678  15.972  0.1299  0.2632 -0.3418
13372TIP3   OH261530   2.449   3.642  12.715  0.1634 -1.0969  0.4191
13372TIP3    H161531   2.408   3.602  12.792 -2.3963  0.3905 -0.0560
13372TIP3    H261532   2.404   3.725  12.704  3.2699  0.6518 -0.3610
13373TIP3   OH261533   1.251   3.271  16.190  0.6705 -0.1729 -0.6647
13373TIP3    H161534   1.319   3.218  16.233  0.1309  0.0593  0.5110
13373TIP3    H261535   1.293   3.356  16.176  0.1327  0.5988  1.7617
13374TIP3   OH261536   1.873   1.759  10.712 -0.2635 -0.1470  0.2335
13374TIP3    H161537   1.800   1.713  10.752  0.1905 -0.6906  0.4454
13374TIP3    H261538   1.832   1.812  10.643 -0.9677  0.3041  0.9803
13375TIP3   OH261539   5.875   5.731   0.048 -0.0106  0.1776 -0.3748
13375TIP3    H161540   5.807   5.798   0.057  0.5232  0.7308 -0.4022
13375TIP3    H261541   5.870   5.681   0.130 -0.3652  0.2916 -0.3239
13376TIP3   OH261542   5.025   4.875  15.827 -0.6675 -0.9440  0.2537
13376TIP3    H161543   4.998   4.950  15.774  1.5827 -0.9163 -0.9586
13376TIP3    H261544   4.978   4.886  15.910 -0.8512  1.4798 -0.0955
13377TIP3   OH261545   3.551   6.587   1.645  0.7511 -0.0561 -0.1540
13377TIP3    H161546   3.584   6.664   1.598 -0.7479  0.1066 -0.9909
13377TIP3    H261547   3.463   6.574   1.611  0.4293 -1.2689  1.0613
13378TIP3   OH261548   2.988   1.628   4.887 -0.2407 -0.0693 -0.3972
13378TIP3    H161549   2.974   1.588   4.973 -0.7333 -0.7710 -0.7893
13378TIP3    H261550   2.903   1.618   4.843  0.3509 -0.8267 -1.4061
13379TIP3   OH261551   1.364   1.846  12.979  0.4695  0.3421 -0.0891
13379TIP3    H161552   1.306   1.796  12.921 -1.0657  3.7526 -1.7674
13379TIP3    H261553   1.450   1.840  12.937  0.2654 -0.5972 -0.4102
13380TIP3   OH261554   0.234   2.427   0.471  0.2142  0.1723  0.0730
13380TIP3    H161555   0.210   2.338   0.445 -1.9691  1.3018 -2.1179
13380TIP3    H261556   0.318   2.443   0.427  0.8312 -0.8742  0.8078
13381TIP3   OH261557   1.626   4.372  15.166 -0.5205 -0.8573  0.2514
13381TIP3    H161558   1.654   4.435  15.233  0.0649 -0.3456 -0.4575
13381TIP3    H261559   1.703   4.363  15.109  0.5909 -4.6018  2.0368
13382TIP3   OH261560   3.401   5.970   0.275  0.0740  0.2427 -0.0490
13382TIP3    H161561   3.336   5.929   0.333 -0.2892  1.0385  0.1185
13382TIP3    H261562   3.475   5.989   0.332  0.8178 -1.4117 -0.4012
13383TIP3   OH261563   2.268   3.460   0.391  0.2837  0.5710  0.1174
13383TIP3    H161564   2.354   3.488   0.359  0.2672  0.8874  0.3441
13383TIP3    H261565   2.267   3.484   0.483 -0.0395  0.5518  0.1218
13384TIP3   OH261566   3.219   6.492  16.275  0.3317  0.4387  0.2669
13384TIP3    H161567   3.226   6.404  16.240 -0.8654  0.1349  0.7692
13384TIP3    H261568   3.192   6.480  16.366  0.9787  1.2996  0.5865
13385TIP3   OH261569   5.580   2.560   2.346  0.0537 -0.3213 -0.2924
13385TIP3    H161570   5.571   2.465   2.333  0.7254 -0.6218  1.1977
13385TIP3    H261571   5.535   2.577   2.428  1.3204  0.3717  0.2818
13386TIP3   OH261572   5.505   0.953  15.668 -0.4652 -0.5240 -0.3750
13386TIP3    H161573   5.449   1.010  15.615  1.2921  0.5635 -1.1638
13386TIP3    H261574   5.501   0.991  15.756 -1.5078 -0.8993 -0.2467
13387TIP3   OH261575   5.652   1.727  17.226  0.5781 -0.4019  0.1293
13387TIP3    H161576   5.610   1.806  17.260  1.5534  1.5418 -2.8281
13387TIP3    H261577   5.580   1.673  17.194 -0.0683 -0.5360  1.7382
13388TIP3   OH261578   4.306   4.067   6.663 -0.1256  0.3337  0.1044
13388TIP3    H161579   4.238   4.113   6.712 -1.0393 -1.8223  1.0227
13388TIP3    H261580   4.296   4.097   6.573 -2.3403  0.0905  0.2168
13389TIP3   OH261581   6.716   4.676   2.389 -0.1250 -0.0638  0.0314
13389TIP3    H161582   6.632   4.699   2.348  0.4713  1.8191 -0.1862
13389TIP3    H261583   6.781   4.694   2.321  0.5249 -1.0645  0.3668
13390TIP3   OH261584   5.159   2.861  15.577  0.0462  0.0868 -0.2447
13390TIP3    H161585   5.113   2.945  15.577  0.3323  0.2498 -0.7170
13390TIP3    H261586   5.233   2.875  15.518  0.2148 -0.4349 -0.1591
13391TIP3   OH261587   0.670   5.868   4.000  0.1258  0.0195 -0.1703
13391TIP3    H161588   0.594   5.815   4.022  0.7147 -0.6665  0.2319
13391TIP3    H261589   0.690   5.917   4.080 -0.1167  0.4961 -0.3921
13392TIP3   OH261590   6.367   1.093   2.905 -0.4813 -0.2577 -0.4648
13392TIP3    H161591   6.412   1.011   2.884 -2.2300 -0.8822 -2.1120
13392TIP3    H261592   6.305   1.068   2.974 -0.9892 -0.3293 -0.9415
13393TIP3   OH261593   6.524   0.120  14.109  0.0094 -0.3543  0.0323
13393TIP3    H161594   6.451   0.059  14.108  0.0978 -0.5094 -2.2168
13393TIP3    H261595   6.571   0.101  14.190 -0.6787 -2.3757 -0.0044
13394TIP3   OH261596   1.634   3.775  12.437  0.2698 -0.4500 -0.0838
13394TIP3    H161597   1.576   3.709  12.473 -0.9798  0.0104 -1.1887
13394TIP3    H261598   1.605   3.857  12.477  2.9607 -0.6398  2.7225
13395TIP3   OH261599   0.520   4.756  15.995 -0.0575 -0.5134 -0.0200
13395TIP3    H161600   0.504   4.720  16.082  0.4033 -2.1982 -0.6008
13395TIP3    H261601   0.614   4.774  15.994  0.5780 -3.3578 -1.1175
13396TIP3   OH261602   5.637   6.567   2.399 -0.5269 -0.5002  0.1887
13396TIP3    H161603   5.653   6.575   2.305 -0.8867  1.6032  0.2460
13396TIP3    H261604   5.593   6.483   2.409  1.7703 -1.9726 -1.1615
13397TIP3   OH261605   0.314   1.997  12.062 -0.0601 -0.5815 -0.0465
13397TIP3    H161606   0.263   1.916  12.068 -0.4145 -0.3903 -0.4202
13397TIP3    H261607   0.399   1.974  12.098 -0.1687 -1.1159 -0.1144
13398TIP3   OH261608   2.014   1.133  11.460  0.4476 -0.0112 -0.4692
13398TIP3    H161609   2.015   1.121  11.365 -0.7326  1.2538 -0.6697
13398TIP3    H261610   1.928   1.171  11.479 -0.8998 -3.5669  1.5718
13399TIP3   OH261611   2.423   4.875   1.365  0.0600  0.1320  0.1612
13399TIP3    H161612   2.368   4.947   1.396  0.5683  1.2471 -1.3987
13399TIP3    H261613   2.500   4.877   1.422 -0.4513  0.0670  0.8601
13400TIP3   OH261614   3.561   1.370   0.173  0.0037 -0.3587  0.1209
13400TIP3    H161615   3.492   1.356   0.108  0.1086 -0.7838  0.0990
13400TIP3    H261616   3.599   1.284   0.186  0.7403 -0.0688 -0.0945
13401TIP3   OH261617   2.928   5.988   5.951 -0.0024 -0.2096 -0.3186
13401TIP3    H161618   2.836   5.989   5.976 -0.3223 -1.1280 -1.3596
13401TIP3    H261619   2.967   6.060   6.001 -1.4454  0.7462 -0.4941
13402TIP3   OH261620   2.644   2.662  16.159  0.3489 -0.3795 -0.4357
13402TIP3    H161621   2.548   2.667  16.162  0.2553 -1.1354 -1.5364
13402TIP3    H261622   2.674   2.727  16.222 -0.8988 -0.5269  0.3296
13403TIP3   OH261623   5.980   3.532   1.089  0.1509 -0.1405  0.1201
13403TIP3    H161624   6.067   3.514   1.053  0.0013 -2.1140  0.6248
13403TIP3    H261625   5.976   3.483   1.170 -1.9587 -1.4210 -0.6560
13404TIP3   OH261626   5.200   2.025   2.463 -0.7113  0.3017  0.4217
13404TIP3    H161627   5.213   2.073   2.545 -1.0544  1.2911 -0.0915
13404TIP3    H261628   5.171   1.938   2.491  0.9268  0.0162  1.4012
13405TIP3   OH261629   4.299   2.761  14.486 -0.0766 -1.0153 -0.1321
13405TIP3    H161630   4.354   2.807  14.550  0.1893 -0.2888 -0.8601
13405TIP3    H261631   4.249   2.698  14.538  0.9379 -1.2110  0.6475
13406TIP3   OH261632   4.325   3.898  13.317  0.1145 -0.7547 -0.6033
13406TIP3    H161633   4.400   3.854  13.356 -1.3844 -1.9376  1.1365
13406TIP3    H261634   4.326   3.987  13.353  1.3857 -0.3055 -1.6667
13407TIP3   OH261635   3.742   3.471  11.210  0.2080 -0.6288 -0.2758
13407TIP3    H161636   3.735   3.563  11.183  1.8133  0.0650  1.4279
13407TIP3    H261637   3.832   3.446  11.189  0.6606 -0.8943  1.7681
13408TIP3   OH261638   3.094   1.297   3.530 -0.7452  0.2659  0.2484
13408TIP3    H161639   3.173   1.246   3.511 -0.0047  1.6202 -0.4612
13408TIP3    H261640   3.022   1.245   3.492  0.1147  0.3002 -1.5251
13409TIP3   OH261641   5.010   6.610  12.987  0.0126  0.1518 -0.2535
13409TIP3    H161642   4.959   6.581  13.063 -1.2525  2.3202 -0.1986
13409TIP3    H261643   4.959   6.581  12.911  0.0928 -0.0004 -0.2509
13410TIP3   OH261644   6.288   5.722   0.541 -0.1719  0.0843  0.2689
13410TIP3    H161645   6.326   5.807   0.518  1.5045 -0.3379  1.2415
13410TIP3    H261646   6.349   5.658   0.504 -0.5265 -0.6546  0.9244
13411TIP3   OH261647   0.430   4.802   6.875  0.1493  0.0146 -0.9728
13411TIP3    H161648   0.491   4.872   6.856  0.9613  0.4649  2.6761
13411TIP3    H261649   0.343   4.841   6.862  0.6092  1.1831 -0.6495
13412TIP3   OH261650   0.891   2.452   2.981  0.3428  0.3502 -0.4032
13412TIP3    H161651   0.926   2.457   3.069 -0.2584 -1.0755 -0.0564
13412TIP3    H261652   0.808   2.499   2.985  0.9771  1.5408 -0.6016
13413TIP3   OH261653   5.797   3.104   2.929 -0.2361  0.5071 -0.3366
13413TIP3    H161654   5.819   3.088   3.021 -0.9606 -0.1665 -0.2665
13413TIP3    H261655   5.701   3.107   2.928 -0.2065  2.2739 -0.7972
13414TIP3   OH261656   6.708   1.284   3.269 -0.2076 -0.0140  0.3264
13414TIP3    H161657   6.617   1.314   3.260  0.2172  0.8088 -1.7528
13414TIP3    H261658   6.759   1.365   3.278  0.6703 -0.1568 -2.5293
13415TIP3   OH261659   5.005   6.315   3.956  0.1750  0.1586  0.0704
13415TIP3    H161660   5.000   6.253   4.028  1.3831  0.1887  0.1995
13415TIP3    H261661   5.049   6.266   3.886  0.1091  0.5171 -0.2222
13416TIP3   OH261662   3.410   4.013   5.337  0.0065  0.2197  0.1732
13416TIP3    H161663   3.473   3.940   5.331  1.6487  1.4880  1.1827
13416TIP3    H261664   3.345   3.983   5.401  1.0353 -0.1248  1.0873
13417TIP3   OH261665   0.571   3.766   2.470 -0.1096  0.1725 -0.0332
13417TIP3    H161666   0.516   3.728   2.538 -0.2769 -0.4200 -0.4926
13417TIP3    H261667   0.520   3.838   2.435 -1.3789 -1.4462 -1.6608
13418TIP3   OH261668   3.472   3.411  15.308 -0.4679  0.0344 -0.1121
13418TIP3    H161669   3.452   3.502  15.328  0.4108  0.2033  0.0117
13418TIP3    H261670   3.417   3.360  15.367  0.6641  0.5064  1.3946
13419TIP3   OH261671   1.411   3.808  13.012 -0.3183  0.2170 -0.3737
13419TIP3    H161672   1.394   3.737  13.073 -0.6866 -0.2636 -1.0333
13419TIP3    H261673   1.469   3.770  12.946  1.8717  1.3049  0.8015
13420TIP3   OH261674   0.952   1.249   3.930 -0.1506  0.2717 -0.0508
13420TIP3    H161675   0.870   1.217   3.894  0.5938 -1.7047 -0.1420
13420TIP3    H261676   0.928   1.322   3.987 -1.7759  0.7197 -1.2626
13421TIP3   OH261677   6.624   3.812   3.046 -0.1491 -1.0199  0.3087
13421TIP3    H161678   6.592   3.755   3.116 -0.4922 -1.7530 -0.4292
13421TIP3    H261679   6.545   3.841   3.000 -0.0996  1.0968  1.4233
13422TIP3   OH261680   4.218   4.616  12.404 -0.2657  0.0157 -0.5616
13422TIP3    H161681   4.269   4.538  12.427  0.6158  0.6273 -0.3781
13422TIP3    H261682   4.203   4.660  12.488 -1.5351 -0.4078 -0.5536
13423TIP3   OH261683   5.396   6.780   2.223 -0.4293 -0.4354 -0.4017
13423TIP3    H161684   5.419   6.772   2.316 -0.9511 -1.0562 -0.3204
13423TIP3    H261685   5.463   6.728   2.178  0.4341  0.6940 -0.4740
13424TIP3   OH261686   0.748   4.019  14.606 -0.3299  0.2306  0.2679
13424TIP3    H161687   0.679   3.952  14.612 -0.2654  0.0347 -0.9687
13424TIP3    H261688   0.704   4.095  14.568 -0.0068  0.2955  0.0201
13425TIP3   OH261689   1.127   0.182   1.716  0.1918 -0.5697 -0.2482
13425TIP3    H161690   1.195   0.232   1.761 -0.9125  0.7628  0.0018
13425TIP3    H261691   1.174   0.112   1.672  1.8637  0.8866 -0.8904
13426TIP3   OH261692   3.694   0.565   6.497  0.4569  0.2121 -0.1185
13426TIP3    H161693   3.746   0.644   6.482  0.5693  0.1463 -0.0832
13426TIP3    H261694   3.614   0.596   6.540 -0.7365  0.6472 -2.4838
13427TIP3   OH261695   0.416   0.666  13.248  0.3407 -0.2584 -0.1065
13427TIP3    H161696   0.454   0.579  13.237 -0.7583 -1.0386  1.8388
13427TIP3    H261697   0.322   0.651  13.251  0.1270  1.0335  0.0882
13428TIP3   OH261698   0.342   5.555  15.076 -0.0103  0.1372 -0.0785
13428TIP3    H161699   0.424   5.513  15.050  0.2617  0.9722 -0.6049
13428TIP3    H261700   0.358   5.585  15.166 -0.1815 -0.8036  0.2751
13429TIP3   OH261701   5.285   5.620   3.233 -0.0921 -0.1281  0.3439
13429TIP3    H161702   5.325   5.691   3.183  3.3177 -1.4539  0.9586
13429TIP3    H261703   5.278   5.548   3.170  0.3270 -0.5071  0.7242
13430TIP3   OH261704   2.546   2.700  14.956  0.8234  0.3103 -0.5006
13430TIP3    H161705   2.594   2.631  15.001  0.6677  0.5119 -0.0131
13430TIP3    H261706   2.603   2.777  14.962 -0.3243  1.0995  1.8193
13431TIP3   OH261707   5.531   5.456   5.051  0.0145  0.2466 -0.6364
13431TIP3    H161708   5.500   5.471   5.140 -1.5853  0.3862 -1.1923
13431TIP3    H261709   5.479   5.515   4.997 -1.8139 -2.4977 -2.1150
13432TIP3   OH261710   2.431   6.477   1.056  0.0338 -0.2759  0.2194
13432TIP3    H161711   2.354   6.534   1.050 -0.4983 -0.8844  1.0992
13432TIP3    H261712   2.465   6.474   0.967 -0.5565  0.5515 -0.0524
13433TIP3   OH261713   5.731   3.685   1.443  0.0479 -0.3112 -0.6378
13433TIP3    H161714   5.649   3.734   1.447 -0.8209 -1.7547  0.1254
13433TIP3    H261715   5.799   3.753   1.437 -1.2342  0.9083 -3.4957
13434TIP3   OH261716   3.735   6.377  15.876 -0.4280  0.0016  0.4151
13434TIP3    H161717   3.643   6.356  15.893 -0.4590  0.5832  1.0224
13434TIP3    H261718   3.732   6.454  15.819 -0.3229  0.4935  1.0658
13435TIP3   OH261719   3.345   6.002  16.353  0.3372 -0.3307  0.6202
13435TIP3    H161720   3.404   6.078  16.357  0.2075 -0.1458 -0.6406
13435TIP3    H261721   3.336   5.974  16.444  2.0036 -0.0742  0.8998
13436TIP3   OH261722   4.726   4.756   1.691 -0.0854 -0.2339 -0.0459
13436TIP3    H161723   4.764   4.735   1.776 -0.8081  0.3555  0.4479
13436TIP3    H261724   4.749   4.683   1.634 -1.0414 -1.4879  1.1216
13437TIP3   OH261725   3.403   4.107  15.268  0.1592  0.0029  0.0369
13437TIP3    H161726   3.361   4.182  15.225  0.9416 -0.3570 -1.4516
13437TIP3    H261727   3.488   4.140  15.296  0.0654 -0.0366  0.3633
13438TIP3   OH261728   4.947   0.966   4.069 -0.6012  0.1480 -0.4175
13438TIP3    H161729   4.967   1.036   4.131  1.2708  0.0953 -0.8970
13438TIP3    H261730   4.996   0.990   3.990 -1.8530 -0.4824 -1.4267
13439TIP3   OH261731   4.703   1.785   3.562  0.0828 -0.1774 -0.0047
13439TIP3    H161732   4.716   1.692   3.581 -0.9561 -0.6332 -1.3221
13439TIP3    H261733   4.703   1.790   3.466 -0.9495  1.0109  0.0250
13440TIP3   OH261734   4.207   2.080  16.170 -0.3140  0.6647 -0.0674
13440TIP3    H161735   4.169   2.143  16.110 -0.8861  1.1384  0.7768
13440TIP3    H261736   4.292   2.057  16.131  0.4568  2.8514  0.2141
13441TIP3   OH261737   1.736   1.573   1.539  0.1349  0.5564  0.1013
13441TIP3    H161738   1.807   1.569   1.476 -0.8863 -2.8063 -1.0590
13441TIP3    H261739   1.656   1.573   1.486 -0.7546  0.6470  1.3823
13442TIP3   OH261740   4.863   0.931   2.103  0.4026 -0.2293  0.0906
13442TIP3    H161741   4.805   0.857   2.084  1.1643 -0.8641  0.1913
13442TIP3    H261742   4.810   1.009   2.083 -0.3798 -0.7990 -0.0982
13443TIP3   OH261743   2.145   0.238  14.952 -0.3850 -0.3293 -0.8696
13443TIP3    H161744   2.197   0.318  14.949 -0.6172 -0.0473  1.0590
13443TIP3    H261745   2.208   0.170  14.979 -1.1823  0.4101  3.8132
13444TIP3   OH261746   6.606   5.007  11.527  0.1460  0.2988  0.2642
13444TIP3    H161747   6.571   5.075  11.585  0.7212  0.5289  0.3501
13444TIP3    H261748   6.532   4.949  11.511 -0.4574  1.1672 -0.1352
13445TIP3   OH261749   1.525   2.749  15.437  0.1667 -0.1822  0.3281
13445TIP3    H161750   1.463   2.804  15.485 -1.0505 -0.4692 -0.8431
13445TIP3    H261751   1.584   2.714  15.504 -1.4541 -0.5657  1.6205
13446TIP3   OH261752   6.030   3.484  15.132 -0.1801 -0.1844 -0.2892
13446TIP3    H161753   6.073   3.563  15.098  1.0720 -1.2715 -1.3289
13446TIP3    H261754   6.018   3.428  15.055  0.2020 -1.5830  0.6316
13447TIP3   OH261755   4.964   2.791  12.922 -0.2549 -0.2102  0.3710
13447TIP3    H161756   4.916   2.764  13.001 -2.0773 -0.4548 -0.7665
13447TIP3    H261757   4.919   2.746  12.851  0.8915  0.6030 -0.9060
13448TIP3   OH261758   3.001   4.214   4.597  0.0443  0.2333  0.2133
13448TIP3    H161759   3.066   4.221   4.528 -0.9042 -1.3151 -0.9135
13448TIP3    H261760   2.969   4.304   4.610  1.8833  0.9074  0.3397
13449TIP3   OH261761   5.850   0.919   1.321 -0.4855  0.2199 -0.0275
13449TIP3    H161762   5.942   0.925   1.295  0.1052 -0.8729  1.6199
13449TIP3    H261763   5.847   0.842   1.378 -2.3348  0.5312  0.3413
13450TIP3   OH261764   0.115   3.910  12.649  0.4020  0.1966 -0.3240
13450TIP3    H161765   0.189   3.852  12.630  0.3244  0.1825 -0.5925
13450TIP3    H261766   0.108   3.966  12.572 -0.2642 -0.2285 -0.5860
13451TIP3   OH261767   4.016   2.106  15.528  0.0979 -0.5497 -0.6191
13451TIP3    H161768   3.999   2.074  15.617  0.6675 -0.5952 -0.5225
13451TIP3    H261769   3.944   2.071  15.476  0.0599 -0.9885 -0.2800
13452TIP3   OH261770   1.733   3.659   2.991  0.6109 -0.4330  0.1162
13452TIP3    H161771   1.677   3.583   2.976  0.9653 -1.3963  2.9274
13452TIP3    H261772   1.785   3.667   2.911 -0.3288 -2.3785 -0.7527
13453TIP3   OH261773   4.933   4.987  10.666  0.6222 -0.3474  0.4844
13453TIP3    H161774   4.966   4.921  10.604  0.5674  0.9465 -0.9959
13453TIP3    H261775   4.946   5.070  10.620 -3.2771  0.4004  0.4296
13454TIP3   OH261776   5.409   4.180   4.771 -0.3250  0.0995 -0.1804
13454TIP3    H161777   5.444   4.139   4.692 -0.7812 -0.0160 -0.3264
13454TIP3    H261778   5.317   4.155   4.772  0.0571 -1.4283  1.3641
13455TIP3   OH261779   0.219   2.774  10.746 -0.4144  0.0474  0.1884
13455TIP3    H161780   0.211   2.685  10.712  0.8284 -0.0252  0.0290
13455TIP3    H261781   0.132   2.794  10.782 -1.8806  0.1452 -3.0584
13456TIP3   OH261782   3.114   0.502   2.731  0.9574 -0.8694  0.3475
13456TIP3    H161783   3.054   0.496   2.656  0.5165  3.3904  0.1176
13456TIP3    H261784   3.201   0.491   2.693  0.9570  3.5149 -1.5330
13457TIP3   OH261785   4.121   4.954  15.233  0.1636  0.0718 -0.2007
13457TIP3    H161786   4.160   4.943  15.320 -0.8197  1.4560  0.4433
13457TIP3    H261787   4.061   4.880  15.223  0.9833 -0.6208 -0.1237
13458TIP3   OH261788   3.417   1.569  15.660  0.1523  0.4371 -0.2747
13458TIP3    H161789   3.475   1.606  15.726  0.2289  0.9290 -0.6110
13458TIP3    H261790   3.331   1.567  15.702  0.3325  0.0783  0.0847
13459TIP3   OH261791   5.260   4.984  13.505  0.1217  0.4305  0.3758
13459TIP3    H161792   5.335   4.927  13.521 -0.0840  0.2618  0.7547
13459TIP3    H261793   5.294   5.073  13.513  0.7535  0.4031 -1.5800
13460TIP3   OH261794   2.527   4.546  11.287 -1.0437  0.1998 -0.4549
13460TIP3    H161795   2.442   4.521  11.322 -1.0170  3.1965  2.2428
13460TIP3    H261796   2.587   4.478  11.318 -1.6539  0.8866  2.5436
13461TIP3   OH261797   4.106   4.505  15.832 -0.2573  0.2453  0.1479
13461TIP3    H161798   4.148   4.529  15.750 -2.2855 -0.7817 -1.3092
13461TIP3    H261799   4.174   4.462  15.883  1.2053  1.4401 -0.7191
13462TIP3   OH261800   6.533   0.917   0.568 -0.3626  0.2422 -0.1918
13462TIP3    H161801   6.596   0.989   0.563 -0.8678  0.7146  0.0182
13462TIP3    H261802   6.451   0.955   0.535 -0.1660 -0.8318 -2.0366
13463TIP3   OH261803   2.330   2.148  10.811 -0.2987 -0.1798 -0.4476
13463TIP3    H161804   2.331   2.070  10.756 -0.6974 -0.0403 -0.6613
13463TIP3    H261805   2.416   2.150  10.853 -0.6305 -1.2857  0.3405
13464TIP3   OH261806   3.260   1.843  15.023 -0.3342  0.3242 -0.1354
13464TIP3    H161807   3.220   1.848  15.110  0.5423  0.8955  0.2372
13464TIP3    H261808   3.223   1.763  14.985 -1.1197  0.3482  0.5561
13465TIP3   OH261809   0.694   5.018  13.241  0.4574  0.3119 -0.3003
13465TIP3    H161810   0.659   5.107  13.235  0.7610  0.3762 -1.6067
13465TIP3    H261811   0.669   4.978  13.157  1.9904 -0.1918 -0.5366
13466TIP3   OH261812   1.310   0.803  12.832  0.2726  0.7185 -0.6423
13466TIP3    H161813   1.396   0.832  12.803  1.1906 -1.4568 -0.2566
13466TIP3    H261814   1.285   0.734  12.771 -0.1766 -0.2114  0.5503
13467TIP3   OH261815   1.087   1.876   2.346  0.1126  0.1467 -0.7301
13467TIP3    H161816   1.107   1.783   2.338  0.8459  0.3049 -0.8260
13467TIP3    H261817   1.136   1.917   2.274  0.7268  0.7282  0.0036
13468TIP3   OH261818   1.672   2.976  12.866 -0.0611 -0.0970  0.6705
13468TIP3    H161819   1.726   2.984  12.945  0.2170 -0.3585  0.5113
13468TIP3    H261820   1.703   2.895  12.824 -0.1067  0.1167  0.2185
13469TIP3   OH261821   5.663   1.362  14.687  0.2908  0.1338 -0.2262
13469TIP3    H161822   5.613   1.354  14.607  0.0890 -0.7156 -0.0245
13469TIP3    H261823   5.664   1.456  14.706 -0.6247  0.2248 -0.6038
13470TIP3   OH261824   6.614   1.852  13.488  0.3279  0.0347 -0.8894
13470TIP3    H161825   6.624   1.928  13.430  0.8149  0.7047  0.0477
13470TIP3    H261826   6.545   1.878  13.549  0.7923 -0.0972 -0.3003
13471TIP3   OH261827   0.608   4.186   1.862 -0.2694  0.7957  0.1718
13471TIP3    H161828   0.692   4.168   1.904  0.4312  1.3181 -0.9590
13471TIP3    H261829   0.606   4.281   1.851 -0.6069  0.7080 -0.6022
13472TIP3   OH261830   0.328   4.146   1.876  0.4732 -0.0604 -0.5733
13472TIP3    H161831   0.359   4.112   1.961  0.1581 -1.4898 -0.9946
13472TIP3    H261832   0.404   4.190   1.839  1.1086 -0.8486 -0.2481
13473TIP3   OH261833   3.855   2.673   4.174  0.5749 -0.3160 -0.2230
13473TIP3    H161834   3.855   2.758   4.218  0.9577 -0.2733 -0.3055
13473TIP3    H261835   3.803   2.617   4.231  0.0777  0.0443 -0.3082
13474TIP3   OH261836   4.332   4.090   1.047  0.5901  0.0365 -0.7939
13474TIP3    H161837   4.404   4.054   0.996  0.8768  0.4331 -0.6743
13474TIP3    H261838   4.337   4.185   1.032  0.9113  0.1992  0.2794
13475TIP3   OH261839   5.721   3.300   2.478 -0.0326  0.0205 -0.2821
13475TIP3    H161840   5.704   3.389   2.507  2.1660  0.3364  0.2409
13475TIP3    H261841   5.682   3.245   2.546  0.0748  0.6318  0.2862
13476TIP3   OH261842   6.439   0.807   2.348 -0.0601 -0.2592  0.3013
13476TIP3    H161843   6.407   0.877   2.406  0.4268  1.1724 -1.0750
13476TIP3    H261844   6.409   0.833   2.261  0.0427 -1.8569 -0.2399
13477TIP3   OH261845   6.769   3.522  13.232 -0.9164 -0.4190  0.0905
13477TIP3    H161846   6.846   3.478  13.194 -1.2406  0.4348 -1.6893
13477TIP3    H261847   6.699   3.505  13.169 -2.1498 -0.9673  1.5687
13478TIP3   OH261848   0.840   0.290  11.394 -0.8500 -0.6041  0.3553
13478TIP3    H161849   0.842   0.278  11.489 -2.5380  2.5448  0.9494
13478TIP3    H261850   0.747   0.298  11.374 -0.4693 -0.2951 -1.4283
13479TIP3   OH261851   6.328   6.673  11.591  0.2628 -0.8518  0.0347
13479TIP3    H161852   6.259   6.637  11.536 -2.2111  1.5033  1.3565
13479TIP3    H261853   6.385   6.721  11.531 -0.9495 -0.3986 -0.7921
13480TIP3   OH261854   5.667   3.597   2.483  0.0634 -0.4628  0.1413
13480TIP3    H161855   5.632   3.682   2.454 -0.4098 -0.2391  1.3266
13480TIP3    H261856   5.629   3.584   2.570 -0.1452 -2.0588 -0.1580
13481TIP3   OH261857   5.601   4.520  14.741  0.0112  0.2391 -0.1692
13481TIP3    H161858   5.686   4.561  14.753  0.2048 -0.5419  1.4541
13481TIP3    H261859   5.543   4.567  14.801 -0.1133 -0.8217  0.5610
13482TIP3   OH261860   2.596   0.106   0.409  0.6010 -0.0950  0.3393
13482TIP3    H161861   2.686   0.085   0.386  0.7755  1.7589 -0.9146
13482TIP3    H261862   2.603   0.174   0.476  0.1311 -0.3887  0.6919
13483TIP3   OH261863   3.032   1.075  14.667  0.1475  0.3324  0.1599
13483TIP3    H161864   2.967   1.005  14.656 -0.5371  0.7601  1.3146
13483TIP3    H261865   3.097   1.038  14.727  0.7020  0.0941 -0.5761
13484TIP3   OH261866   4.870   1.431   1.229 -0.1080 -0.5351  0.4083
13484TIP3    H161867   4.888   1.509   1.177 -2.5873 -0.1401  0.0299
13484TIP3    H261868   4.928   1.439   1.305  3.2934 -0.9026 -1.9294
13485TIP3   OH261869   2.477   4.581   1.600  0.0368 -0.0690 -0.1788
13485TIP3    H161870   2.547   4.636   1.636  0.2442 -1.5204  1.7901
13485TIP3    H261871   2.524   4.513   1.551  0.0121 -0.6438  0.5689
13486TIP3   OH261872   3.975   2.825   5.402 -0.0378  0.0422  0.4255
13486TIP3    H161873   3.970   2.855   5.311 -0.4021  0.3661  0.5536
13486TIP3    H261874   3.886   2.835   5.436 -0.0509 -0.6812  0.6270
13487TIP3   OH261875   5.500   0.590   5.602 -0.0858 -0.0567  0.5824
13487TIP3    H161876   5.436   0.653   5.569  0.7342  1.3908  1.6395
13487TIP3    H261877   5.487   0.590   5.697 -0.9441 -2.5025  0.5295
13488TIP3   OH261878   6.002   6.342   5.946  0.5925  0.8947 -0.0704
13488TIP3    H161879   5.977   6.414   5.887 -1.2049 -0.5038 -1.1372
13488TIP3    H261880   5.975   6.263   5.900  1.2483 -0.4024  1.6591
13489TIP3   OH261881   3.938   0.115  15.093 -0.6166  0.0366 -0.4840
13489TIP3    H161882   3.957   0.111  15.187 -0.5563 -0.2899 -0.5114
13489TIP3    H261883   3.967   0.031  15.058 -1.1597 -0.0570 -0.7070
13490TIP3   OH261884   3.297   3.051   6.384 -0.2799 -0.3263 -0.4831
13490TIP3    H161885   3.312   2.965   6.423  0.1829 -0.0212  0.0218
13490TIP3    H261886   3.217   3.083   6.425 -1.7187 -1.4387 -2.2906
13491TIP3   OH261887   3.932   2.966   5.177  0.6298 -0.1084  0.3080
13491TIP3    H161888   3.837   2.969   5.171  0.4202 -3.8077 -0.2774
13491TIP3    H261889   3.962   2.962   5.086  1.4043  1.2070  0.4811
13492TIP3   OH261890   3.039   0.852   3.976  0.3856  0.1835  0.3920
13492TIP3    H161891   3.071   0.782   3.920 -1.4602 -0.8887  0.5818
13492TIP3    H261892   3.080   0.835   4.061  1.1388  0.2501  0.0465
13493TIP3   OH261893   5.106   5.239   6.054 -0.3420 -0.1188 -0.1367
13493TIP3    H161894   5.072   5.244   5.964 -1.0978  1.0643  0.1941
13493TIP3    H261895   5.092   5.327   6.089 -1.6127 -0.9964  1.6994
13494TIP3   OH261896   4.838   2.969  15.458 -0.9042  0.2439  0.0214
13494TIP3    H161897   4.800   2.895  15.410 -5.1580  2.6613 -0.7513
13494TIP3    H261898   4.849   3.037  15.392  0.0952  1.3170  1.2468
13495TIP3   OH261899   0.195   1.203  11.507  0.0972  0.4188 -0.3822
13495TIP3    H161900   0.251   1.265  11.460  0.3092 -0.0553 -0.7680
13495TIP3    H261901   0.242   1.119  11.500 -0.5176  0.0773 -0.4569
13496TIP3   OH261902   3.421   1.092   3.994  0.0125 -0.4887  0.0057
13496TIP3    H161903   3.470   1.035   4.054  1.5777 -1.6285 -2.2164
13496TIP3    H261904   3.488   1.126   3.934 -1.7122 -1.0097 -2.3397
13497TIP3   OH261905   6.119   6.735   6.092  0.7435 -0.0854  0.4210
13497TIP3    H161906   6.088   6.667   6.151  2.4922  0.1880  1.7267
13497TIP3    H261907   6.039   6.772   6.054 -0.3697 -1.0602  1.7079
13498TIP3   OH261908   3.729   2.274  14.667  0.0171  0.1446 -0.3884
13498TIP3    H161909   3.694   2.303  14.751  2.5294 -0.0300  0.8001
13498TIP3    H261910   3.723   2.179  14.669  2.8599 -0.1193  1.0470
13499TIP3   OH261911   5.832   6.186  14.322 -0.1067 -0.2968  0.5044
13499TIP3    H161912   5.792   6.118  14.267 -0.1762 -0.3127  0.5753
13499TIP3    H261913   5.814   6.268  14.277 -0.5171 -0.2697  0.7129
13500TIP3   OH261914   5.835   1.810  17.033  0.1283  0.1452  0.1804
13500TIP3    H161915   5.825   1.753  16.957  1.2306 -1.4114  1.1325
13500TIP3    H261916   5.781   1.768  17.100 -0.5348  1.2877  0.3793
13501TIP3   OH261917   0.001   6.765  12.355 -0.0993 -0.2853  0.3507
13501TIP3    H161918   0.088   6.782  12.391 -0.1060 -1.1223  0.7996
13501TIP3    H261919   0.009   6.681  12.310 -0.6350 -0.2948  0.2552
13502TIP3   OH261920   6.459   5.974  10.872  0.7703  0.4506 -0.1729
13502TIP3    H161921   6.553   5.967  10.883  0.6169 -1.1829  0.4095
13502TIP3    H261922   6.422   5.931  10.950 -0.4559  1.2650 -0.2698
13503TIP3   OH261923   6.243   1.496   3.970 -0.1201  0.2575 -0.3240
13503TIP3    H161924   6.200   1.422   3.926 -0.6099  0.3933 -0.0841
13503TIP3    H261925   6.177   1.565   3.970  0.5591  0.9309 -1.1332
13504TIP3   OH261926   2.862   1.715   2.206  0.4716  0.0391  0.0824
13504TIP3    H161927   2.880   1.669   2.288 -0.6300  0.1144  0.3955
13504TIP3    H261928   2.916   1.672   2.141  0.2482 -1.0143  0.5719
13505TIP3   OH261929   6.171   4.463   0.128 -0.8262  0.4936  0.4987
13505TIP3    H161930   6.179   4.410   0.208 -0.8786  0.8699  0.7571
13505TIP3    H261931   6.086   4.506   0.136 -1.7292 -1.0094 -0.7201
13506TIP3   OH261932   0.633   0.619  12.423 -0.4753 -0.1363  0.3892
13506TIP3    H161933   0.537   0.615  12.417 -0.5696 -3.6628  1.8828
13506TIP3    H261934   0.649   0.685  12.490 -1.8081  0.6994 -0.0578
13507TIP3   OH261935   0.192   0.323  11.967  0.0882 -0.3456  0.0942
13507TIP3    H161936   0.097   0.331  11.961  0.2985  1.4870 -2.8325
13507TIP3    H261937   0.221   0.411  11.992  1.0497 -0.8967  0.9999
13508TIP3   OH261938   4.736   5.684   6.740  0.1050  0.1230 -0.6899
13508TIP3    H161939   4.795   5.633   6.683 -1.0786 -0.3188 -1.5532
13508TIP3    H261940   4.739   5.772   6.704  0.8747  0.2978 -0.2164
13509TIP3   OH261941   5.060   1.122   2.769  0.2777 -0.1946 -0.4013
13509TIP3    H161942   5.019   1.168   2.696 -1.9403 -0.9705  0.2416
13509TIP3    H261943   4.997   1.054   2.792  1.4870 -0.7798  1.4163
13510TIP3   OH261944   4.013   1.469  16.711 -0.7506 -0.0049 -0.4274
13510TIP3    H161945   4.071   1.527  16.662  1.7531 -0.9355  1.2102
13510TIP3    H261946   3.978   1.524  16.781  0.4711 -0.0656  0.2636
13511TIP3   OH261947   6.081   2.457  13.994 -0.6048 -0.0902 -0.0325
13511TIP3    H161948   6.137   2.481  13.920  3.2128 -3.1065  1.4813
13511TIP3    H261949   6.110   2.513  14.066 -0.0659 -1.0673  0.5417
13512TIP3   OH261950   5.933   1.639   5.895  0.4667  0.0387  0.1286
13512TIP3    H161951   5.909   1.602   5.980 -0.3246  2.0997  0.8763
13512TIP3    H261952   6.005   1.699   5.914  1.3749 -0.6567 -0.9525
13513TIP3   OH261953   0.552   5.065   0.133 -0.0390  0.0243  0.2734
13513TIP3    H161954   0.612   5.128   0.174  0.4318  0.7722 -1.4848
13513TIP3    H261955   0.471   5.114   0.121  0.1790  0.1826 -0.6644
13514TIP3   OH261956   5.487   2.646  13.045 -0.3561  0.4010  0.3870
13514TIP3    H161957   5.500   2.593  13.123 -1.5289 -0.1625  0.2152
13514TIP3    H261958   5.393   2.659  13.040 -0.2149  1.2121 -0.4289
13515TIP3   OH261959   3.357   2.082   5.516  0.0401  0.4930  0.0885
13515TIP3    H161960   3.358   2.173   5.547 -1.6237  0.9542 -1.0592
13515TIP3    H261961   3.433   2.042   5.557  0.2516  2.1379  1.4257
13516TIP3   OH261962   5.943   6.606   0.493 -0.1794  0.3741  0.1637
13516TIP3    H161963   5.985   6.608   0.408  1.6502 -1.6873  0.9278
13516TIP3    H261964   5.877   6.537   0.485 -1.3917  1.5194 -0.1140
13517TIP3   OH261965   5.344   6.695   0.861 -0.1547  0.0743  0.0134
13517TIP3    H161966   5.348   6.775   0.809 -2.1057 -0.1688 -0.5947
13517TIP3    H261967   5.367   6.723   0.950  3.6392  0.4205 -0.9091
13518TIP3   OH261968   5.242   1.584  14.204 -0.4304 -0.0695  0.3308
13518TIP3    H161969   5.233   1.634  14.123  0.3062  0.6003  0.6454
13518TIP3    H261970   5.325   1.537  14.194 -1.0693 -1.1875  0.0758
13519TIP3   OH261971   2.521   1.206  11.390  0.4635  0.0096 -0.4132
13519TIP3    H161972   2.518   1.296  11.356 -0.5099  0.1999  0.1139
13519TIP3    H261973   2.589   1.163  11.339 -1.0758  0.1926 -2.8094
13520TIP3   OH261974   1.871   2.833   3.874 -0.3749  0.1331  0.0513
13520TIP3    H161975   1.943   2.891   3.851  1.8194 -2.2522  0.4118
13520TIP3    H261976   1.843   2.795   3.790 -0.4898  0.2359  0.0416
13521TIP3   OH261977   3.675   5.947   6.351 -0.0357  0.1120  0.2893
13521TIP3    H161978   3.659   5.870   6.295  1.0058 -0.1311  0.3102
13521TIP3    H261979   3.590   5.992   6.354 -0.4854 -0.6657 -0.2825
13522TIP3   OH261980   0.243   3.087  14.394  0.1844  0.3591 -0.4628
13522TIP3    H161981   0.304   3.047  14.332  0.4094 -1.9717  1.1188
13522TIP3    H261982   0.190   3.014  14.425 -1.0919  1.7582  0.7717
13523TIP3   OH261983   0.760   0.428  16.794 -0.0910  0.1766  0.8861
13523TIP3    H161984   0.799   0.414  16.708  0.9204  0.4313  1.2926
13523TIP3    H261985   0.793   0.355  16.847  0.0259  0.5238  1.2984
13524TIP3   OH261986   4.881   5.359  14.006 -0.2805  0.2187  0.5884
13524TIP3    H161987   4.854   5.270  14.028 -0.0132  0.3806  1.6309
13524TIP3    H261988   4.931   5.350  13.925 -1.8332 -0.3292 -0.3621
13525TIP3   OH261989   0.805   2.746  14.697 -0.2305  0.1597  0.2134
13525TIP3    H161990   0.795   2.703  14.782 -0.3174  0.2735  0.2623
13525TIP3    H261991   0.873   2.812  14.713 -1.3401  1.2447  0.6186
13526TIP3   OH261992   0.673   1.353  13.519  0.0717  0.3496  1.0835
13526TIP3    H161993   0.765   1.328  13.523 -0.6132 -4.0919 -2.7313
13526TIP3    H261994   0.673   1.438  13.476  2.3711  0.0032  0.2620
13527TIP3   OH261995   5.850   4.482   0.920  0.2767  1.1038 -0.8620
13527TIP3    H161996   5.770   4.441   0.952  0.5428  0.9255 -0.4025
13527TIP3    H261997   5.822   4.543   0.853 -0.3557  1.8346  0.0427
13528TIP3   OH261998   3.710   0.445  14.295  0.1052 -0.1817  0.3980
13528TIP3    H161999   3.700   0.540  14.289  4.6594  0.5481  0.8620
13528TIP3    H262000   3.702   0.414  14.205 -0.1726  0.8093  0.0669
13529TIP3   OH262001   0.075   0.667  16.927 -0.4395 -0.0923  0.1178
13529TIP3    H162002   0.169   0.653  16.934 -0.4269  0.2356  0.7176
13529TIP3    H262003   0.045   0.675  17.017 -0.7390  1.6651 -0.0986
13530TIP3   OH262004   5.754   3.264  13.067 -0.2035  0.0926 -0.4339
13530TIP3    H162005   5.799   3.195  13.019 -0.6213  0.2841 -1.1190
13530TIP3    H262006   5.683   3.291  13.008 -0.3954  0.7039  0.0710
13531TIP3   OH262007   3.747   1.861   0.785  0.1158 -0.5190  0.3614
13531TIP3    H162008   3.688   1.934   0.765  1.9795  0.5168 -1.8212
13531TIP3    H262009   3.709   1.786   0.740 -1.6573 -0.8989  2.3744
13532TIP3   OH262010   6.698   6.693   1.047  0.1247  0.0065  0.2681
13532TIP3    H162011   6.623   6.639   1.070 -0.3464  0.3335 -0.4478
13532TIP3    H262012   6.718   6.742   1.127  1.0020 -1.6975  1.1450
13533TIP3   OH262013   0.133   5.593  16.216  0.3884  0.4306  0.0742
13533TIP3    H162014   0.198   5.571  16.283 -0.7294 -0.0346  1.0401
13533TIP3    H262015   0.050   5.560  16.252 -0.0678 -0.9833 -2.0831
13534TIP3   OH262016   6.666   4.447  13.505  0.1839  0.3090  0.4029
13534TIP3    H162017   6.595   4.498  13.545  0.4048  0.3071  0.7963
13534TIP3    H262018   6.743   4.470  13.555  0.9312  2.0444 -1.4038
13535TIP3   OH262019   2.121   0.003   4.667 -0.0835 -0.9552  0.1324
13535TIP3    H162020   2.040  -0.028   4.708 -0.6120 -0.3336 -0.4125
13535TIP3    H262021   2.174  -0.075   4.654 -0.8983 -1.4649 -0.1585
13536TIP3   OH262022   5.114   6.187  17.144  0.3580 -0.2460 -0.4243
13536TIP3    H162023   5.136   6.179  17.051 -2.2346  1.2556 -1.2445
13536TIP3    H262024   5.069   6.105  17.165  1.0895 -0.6568 -0.4054
13537TIP3   OH262025   3.013   3.644   0.062 -0.0844  0.7075 -0.3422
13537TIP3    H162026   2.919   3.623   0.053 -0.3123  0.5893  1.8313
13537TIP3    H262027   3.014   3.730   0.103  0.7883  0.8369 -0.6254
13538TIP3   OH262028   1.928   3.998  14.231  0.2292 -0.3887 -0.6268
13538TIP3    H162029   1.915   4.041  14.147 -0.9463 -0.9464 -0.7494
13538TIP3    H262030   1.841   3.996  14.271  0.6307 -0.8231  0.2572
13539TIP3   OH262031   3.401   5.777  11.243 -0.3665  0.1102 -0.1753
13539TIP3    H162032   3.361   5.835  11.178  1.7973  1.7004 -0.1958
13539TIP3    H262033   3.489   5.813  11.256  0.2409 -1.8364  1.5649
13540TIP3   OH262034   3.585   1.133   6.297 -0.1453  0.7735  0.1659
13540TIP3    H162035   3.667   1.102   6.260 -1.2118 -0.3161 -1.3966
13540TIP3    H262036   3.597   1.125   6.392  0.5407 -2.1872 -0.0702
13541TIP3   OH262037   2.990   5.468  16.831  0.3903 -0.7819 -0.0033
13541TIP3    H162038   2.946   5.395  16.874  0.3049 -0.7997 -0.1189
13541TIP3    H262039   3.056   5.498  16.894  1.1802 -1.6674 -0.3936
13542TIP3   OH262040   2.703   4.418  12.074  0.0346 -0.5462  0.3307
13542TIP3    H162041   2.690   4.455  11.987 -1.3757 -2.6044 -0.4059
13542TIP3    H262042   2.692   4.492  12.133 -1.4327  0.4674 -1.1199
13543TIP3   OH262043   4.575   5.316  14.297  0.3398 -0.5727  0.4014
13543TIP3    H162044   4.647   5.254  14.285 -1.1700 -2.1824 -0.7942
13543TIP3    H262045   4.619   5.399  14.317  2.4018 -2.2019  3.4978
13544TIP3   OH262046   2.274   3.622   3.600  0.2454  0.7895  0.2850
13544TIP3    H162047   2.351   3.575   3.632 -0.0746  1.1638  1.6440
13544TIP3    H262048   2.297   3.645   3.509  0.7655 -1.1512 -0.1244
13545TIP3   OH262049   5.604   3.209   2.251 -0.1586 -0.2515 -0.4398
13545TIP3    H162050   5.578   3.301   2.244  0.3390 -0.0937 -0.2211
13545TIP3    H262051   5.661   3.206   2.328 -1.2273 -0.9800  0.3624
13546TIP3   OH262052   3.812   1.684  16.580 -0.0919 -0.0521 -1.3241
13546TIP3    H162053   3.718   1.672  16.568 -1.2336  2.9492  2.4405
13546TIP3    H262054   3.843   1.602  16.618 -2.5311  0.4942  2.3950
13547TIP3   OH262055   0.013   5.027  10.979 -0.7026 -0.1968  0.3966
13547TIP3    H162056   0.088   5.012  10.922  0.8152  2.0843  1.6457
13547TIP3    H262057  -0.004   4.941  11.019  0.5350 -0.9910 -0.7008
13548TIP3   OH262058   5.584   5.518   0.792 -0.3360  0.5764  0.6524
13548TIP3    H162059   5.548   5.595   0.750  0.7978  0.0431 -1.4167
13548TIP3    H262060   5.573   5.447   0.728  1.9163 -0.1623  0.9935
13549TIP3   OH262061   5.452   1.380  14.154 -0.0629 -0.3343 -0.0212
13549TIP3    H162062   5.541   1.392  14.121 -0.2496  1.5921  0.0695
13549TIP3    H262063   5.462   1.374  14.249 -0.0005 -0.4986 -0.0379
13550TIP3   OH262064   5.137   6.674  12.299 -0.4036 -0.2449 -0.2633
13550TIP3    H162065   5.093   6.598  12.337 -1.0800  0.2837  0.0522
13550TIP3    H262066   5.121   6.667  12.205 -1.3860  0.0553 -0.1341
13551TIP3   OH262067   3.055   0.737  12.186 -0.1289 -0.2840  0.1388
13551TIP3    H162068   3.006   0.817  12.206 -1.9172 -1.6755  1.6793
13551TIP3    H262069   3.031   0.716  12.095 -2.3487 -0.8196  0.7911
13552TIP3   OH262070   6.138   4.510  16.981 -0.2994  0.3254 -0.5534
13552TIP3    H162071   6.226   4.545  16.995  0.0072 -0.8225  0.5803
13552TIP3    H262072   6.095   4.520  17.065 -0.6918 -0.6315 -0.6267
13553TIP3   OH262073   4.262   0.649  14.428  0.5822  0.3186 -0.7573
13553TIP3    H162074   4.257   0.559  14.460  0.6703  0.6027  0.0793
13553TIP3    H262075   4.197   0.697  14.480  2.3550  1.2728  0.7093
13554TIP3   OH262076   3.339   3.628  12.104 -0.9573  0.2643 -0.3179
13554TIP3    H162077   3.358   3.550  12.053 -2.4760  0.0192 -0.5419
13554TIP3    H262078   3.401   3.624  12.177 -1.2810 -1.3784 -0.0921
13555TIP3   OH262079   5.020   5.406   3.761  0.2728  0.2651  0.6389
13555TIP3    H162080   5.097   5.349   3.768  0.8339  1.2229  2.7839
13555TIP3    H262081   4.999   5.429   3.851 -0.5589  2.6485 -0.1123
13556TIP3   OH262082   5.805   0.361  12.342 -0.4535 -0.1663 -0.4118
13556TIP3    H162083   5.806   0.267  12.359  0.0968 -0.1865 -0.5299
13556TIP3    H262084   5.735   0.395  12.397 -0.3460 -0.5805 -0.0132
13557TIP3   OH262085   4.092   4.669  16.347  0.2557  0.1927 -0.0987
13557TIP3    H162086   4.157   4.654  16.278 -0.9964 -0.9479 -1.0923
13557TIP3    H262087   4.065   4.582  16.374  2.3353  0.4797  3.5614
13558TIP3   OH262088   1.503   1.601   1.160 -0.2426 -0.3717  0.0027
13558TIP3    H162089   1.538   1.580   1.247  1.0145  0.7860 -0.1884
13558TIP3    H262090   1.481   1.516   1.122 -1.7665 -0.8550  1.7941
13559TIP3   OH262091   5.078   5.642   5.926  0.5546 -0.3721 -0.5955
13559TIP3    H162092   5.046   5.574   5.986 -1.5588 -1.0097 -2.3107
13559TIP3    H262093   5.000   5.689   5.899  1.9086  2.6060  0.2027
13560TIP3   OH262094   5.685   2.269  11.602  0.6552  0.4479 -0.2580
13560TIP3    H162095   5.765   2.259  11.653  0.3217 -1.7511 -0.0794
13560TIP3    H262096   5.615   2.269  11.667  0.3671 -0.2159 -0.5590
13561TIP3   OH262097   0.151   3.762   4.608  0.5525 -0.3463  0.1328
13561TIP3    H162098   0.145   3.856   4.623  1.9977 -0.0713 -0.7813
13561TIP3    H262099   0.194   3.754   4.523 -0.0595 -1.8423 -0.0721
13562TIP3   OH262100   4.812   0.084  11.796 -0.0294  0.2733  0.3445
13562TIP3    H162101   4.727   0.072  11.753  0.5016  0.6587 -0.8461
13562TIP3    H262102   4.803   0.166  11.845  0.0585  0.9814 -0.8036
13563TIP3   OH262103   3.140   4.755   4.558 -0.5748 -0.6683  0.0470
13563TIP3    H162104   3.089   4.690   4.607  0.0846 -0.2261  1.3481
13563TIP3    H262105   3.104   4.839   4.584 -0.1833 -0.4199 -0.2020
13564TIP3   OH262106   0.169   0.464   0.481  0.2770  0.2095  0.4401
13564TIP3    H162107   0.222   0.504   0.550 -0.2813  0.8652  0.5036
13564TIP3    H262108   0.128   0.388   0.524 -1.7252  1.7827  1.5040
13565TIP3   OH262109   2.442   4.696   3.773  0.4285 -0.3831 -0.2080
13565TIP3    H162110   2.351   4.699   3.744 -0.3073 -3.0931  1.3940
13565TIP3    H262111   2.487   4.646   3.704  0.7713  0.9893 -1.0187
13566TIP3   OH262112   2.166   3.450  16.094  0.0274 -0.3928  0.1956
13566TIP3    H162113   2.191   3.409  16.012  0.6367 -0.1201  0.2403
13566TIP3    H262114   2.224   3.527  16.102 -0.2718 -0.2112  0.6950
13567TIP3   OH262115   4.061   4.530   0.559 -0.2292  0.1350 -0.0033
13567TIP3    H162116   4.062   4.520   0.654 -0.1329  2.3167  0.2796
13567TIP3    H262117   3.981   4.579   0.541 -0.0669  0.0389 -1.0059
13568TIP3   OH262118   0.997   5.351   1.006  0.0641  0.0877 -0.4801
13568TIP3    H162119   0.998   5.421   1.071 -1.5434  0.3382 -0.6957
13568TIP3    H262120   1.035   5.389   0.927 -0.0133  0.4515 -0.3398
13569TIP3   OH262121   3.859   0.779   0.511 -0.1284 -0.1540 -0.1235
13569TIP3    H162122   3.903   0.701   0.544  0.6606 -0.9467 -2.7751
13569TIP3    H262123   3.909   0.803   0.433 -2.9002  0.3884 -1.8698
13570TIP3   OH262124   0.172   1.290   1.700 -0.4329 -0.2798  0.0035
13570TIP3    H162125   0.241   1.351   1.724 -1.2738  0.5149  0.4605
13570TIP3    H262126   0.201   1.252   1.617 -1.1103  2.7996 -1.8226
13571TIP3   OH262127   4.784   0.016  16.197 -0.2194 -0.3071  0.2184
13571TIP3    H162128   4.717  -0.051  16.206 -0.9126  0.2392 -0.6553
13571TIP3    H262129   4.776   0.046  16.106  0.1463  0.8669  0.5499
13572TIP3   OH262130   2.337   0.436  13.299  0.2175 -0.2279 -0.8353
13572TIP3    H162131   2.302   0.525  13.307  0.2719 -0.3516  1.6681
13572TIP3    H262132   2.338   0.403  13.389  2.8647 -1.7457 -1.3250
13573TIP3   OH262133   5.063   3.745   1.722 -0.1814 -0.8129 -1.4467
13573TIP3    H162134   5.011   3.712   1.649  0.2317 -0.1601 -2.0535
13573TIP3    H262135   5.148   3.765   1.683 -0.4216  0.9826 -1.1281
13574TIP3   OH262136   1.705   2.598   2.770 -0.0972 -0.3184 -0.3071
13574TIP3    H162137   1.727   2.576   2.679  0.3790 -2.3036  0.2322
13574TIP3    H262138   1.788   2.625   2.809 -0.4581  1.3536 -0.6527
13575TIP3   OH262139   1.515   5.965   2.473  1.1803 -0.4587 -0.4066
13575TIP3    H162140   1.459   5.936   2.545  0.1962 -1.2794 -1.4650
13575TIP3    H262141   1.565   6.038   2.510 -0.1901 -0.0471  0.7499
13576TIP3   OH262142   2.793   5.933  11.572 -0.2417 -0.6324  0.3478
13576TIP3    H162143   2.786   6.018  11.615 -1.8370 -0.1299 -0.8030
13576TIP3    H262144   2.706   5.893  11.584 -0.1818 -1.1884 -0.9145
13577TIP3   OH262145   4.602   3.784  16.040 -0.1690  0.2252 -0.3249
13577TIP3    H162146   4.655   3.763  15.963 -0.0962  0.8450 -0.4473
13577TIP3    H262147   4.515   3.804  16.005 -1.0063 -2.4005 -0.0099
13578TIP3   OH262148   3.472   0.475  14.446  0.2240 -0.0054 -0.3541
13578TIP3    H162149   3.531   0.502  14.517  0.0472 -1.3272  0.3250
13578TIP3    H262150   3.530   0.437  14.380  0.2345 -0.4643 -0.0889
13579TIP3   OH262151   4.052   3.750  15.814  0.2103 -0.2217  0.1124
13579TIP3    H162152   3.983   3.815  15.826 -1.2230 -1.3188 -1.6676
13579TIP3    H262153   4.017   3.670  15.853  0.9008 -0.5454  0.0765
13580TIP3   OH262154   2.805   5.467  12.450 -0.0607 -0.3561 -0.0943
13580TIP3    H162155   2.803   5.420  12.367  0.9734  0.1370 -0.4147
13580TIP3    H262156   2.764   5.408  12.513 -0.8127 -0.7543 -0.9380
13581TIP3   OH262157   6.644   0.985  15.216 -0.1354  0.2242 -0.1600
13581TIP3    H162158   6.591   0.975  15.137  0.7166 -3.5145 -0.4289
13581TIP3    H262159   6.733   1.000  15.183  0.2592 -1.5563  0.0063
13582TIP3   OH262160   3.966   5.220  16.859 -0.3354  0.4829  0.1349
13582TIP3    H162161   3.974   5.314  16.841 -0.6953  0.0594 -2.7075
13582TIP3    H262162   3.986   5.178  16.775 -0.4593 -1.9866  1.2610
13583TIP3   OH262163   3.265   1.871  11.100  0.6376  0.3466  0.1699
13583TIP3    H162164   3.271   1.927  11.177 -0.8926 -0.0979  0.6350
13583TIP3    H262165   3.192   1.907  11.049  0.3343 -0.5796 -0.0644
13584TIP3   OH262166   3.185   2.715   5.724 -0.2040  0.5112 -0.6285
13584TIP3    H162167   3.240   2.685   5.796 -1.3923 -3.0827 -1.0005
13584TIP3    H262168   3.100   2.731   5.765 -0.0338  1.7397 -0.7381
13585TIP3   OH262169   3.296   2.163   1.083 -0.2854 -0.0021 -1.2082
13585TIP3    H162170   3.259   2.218   1.152  1.2229 -1.3319  0.7520
13585TIP3    H262171   3.228   2.097   1.066 -1.2017  1.1034 -2.0034
13586TIP3   OH262172   6.781   6.777   0.775  0.1187 -0.3805 -0.4105
13586TIP3    H162173   6.749   6.744   0.859  0.3432 -0.0434 -0.1897
13586TIP3    H262174   6.703   6.811   0.732  0.3776  2.1187  0.8934
13587TIP3   OH262175   5.924   4.225   4.196  0.1857  0.3157 -0.1594
13587TIP3    H162176   5.981   4.216   4.272 -0.6589  0.9171  0.5629
13587TIP3    H262177   5.984   4.227   4.121  1.0317 -0.1877  0.4879
13588TIP3   OH262178   5.737   5.290  17.065 -0.0362  0.0110  0.1155
13588TIP3    H162179   5.730   5.195  17.074  0.7656  0.0475  1.4432
13588TIP3    H262180   5.665   5.325  17.118  0.0830  0.1508  0.1884
13589TIP3   OH262181   4.938   3.772  12.016 -0.3979  0.5243  0.2096
13589TIP3    H162182   4.906   3.685  11.993 -1.0406  0.8288 -0.0598
13589TIP3    H262183   4.919   3.826  11.939  4.2524 -0.0802 -1.7475
13590TIP3   OH262184   5.462   3.728   5.512  0.7435  0.3741  0.3114
13590TIP3    H162185   5.484   3.783   5.588  0.1281  0.3928  0.4815
13590TIP3    H262186   5.546   3.692   5.484  0.8953 -0.2127  1.4519
13591TIP3   OH262187   2.654   2.017  15.059 -0.4436 -0.0474  0.1160
13591TIP3    H162188   2.613   2.072  15.126 -0.0011  0.5257 -0.0849
13591TIP3    H262189   2.698   2.078  15.000 -1.3908 -0.4970 -1.0930
13592TIP3   OH262190   4.496   5.370   4.839 -0.1836  0.0673 -0.2349
13592TIP3    H162191   4.459   5.457   4.825 -0.4023 -0.1796 -1.2429
13592TIP3    H262192   4.420   5.311   4.841  0.0823 -0.5238 -2.9149
13593TIP3   OH262193   1.618   1.312  15.757  0.1337  0.0940 -0.1953
13593TIP3    H162194   1.558   1.386  15.757 -0.4139 -0.3316  0.8483
13593TIP3    H262195   1.563   1.236  15.777  1.1836 -0.1390  2.2450
13594TIP3   OH262196   6.611   1.508   5.729 -0.6886  0.0655 -0.1890
13594TIP3    H162197   6.552   1.433   5.734  0.2130 -0.7486 -1.2255
13594TIP3    H262198   6.685   1.478   5.676  1.2206  0.6935  1.9344
13595TIP3   OH262199   5.144   0.095  13.561 -0.1645 -0.0334  0.3472
13595TIP3    H162200   5.049   0.092  13.551 -0.2513  1.6084  0.3681
13595TIP3    H262201   5.171   0.003  13.563 -1.6966 -0.5243 -0.0939
13596TIP3   OH262202   1.931   0.749  11.004 -0.3952  0.0219 -0.6921
13596TIP3    H162203   1.927   0.784  10.915 -0.9226  1.4455 -0.1194
13596TIP3    H262204   1.869   0.676  11.004  0.5233 -0.7946 -1.8229
13597TIP3   OH262205   4.661   3.523   4.568 -0.1816  0.0090 -0.5331
13597TIP3    H162206   4.594   3.497   4.631  1.1731  0.3735  1.1336
13597TIP3    H262207   4.638   3.612   4.543 -0.1222  0.2702  0.3194
13598TIP3   OH262208   4.120   1.789   2.676  0.0406 -0.3525  0.0454
13598TIP3    H162209   4.129   1.809   2.770 -0.5733  3.2093 -0.5046
13598TIP3    H262210   4.209   1.798   2.642  0.5681 -3.2265  0.4130
13599TIP3   OH262211   4.299   3.223   5.577  0.1709  0.3596 -0.0982
13599TIP3    H162212   4.263   3.136   5.560  0.8987 -0.0389  0.3393
13599TIP3    H262213   4.237   3.265   5.637 -0.3046  0.2403 -0.5000
13600TIP3   OH262214   2.919   0.153  14.997  0.0693 -0.1150  0.4515
13600TIP3    H162215   2.852   0.143  14.930  1.8004  0.1968 -1.4313
13600TIP3    H262216   2.887   0.102  15.072 -2.1667 -0.0463 -0.4059
13601TIP3   OH262217   5.532   0.714   2.805 -0.3241 -0.3415  0.2868
13601TIP3    H162218   5.537   0.635   2.751  3.0961  0.9831 -1.6079
13601TIP3    H262219   5.570   0.688   2.889 -1.0978 -1.1745  0.4007
13602TIP3   OH262220   2.983   3.408   4.664  0.0958 -0.1104 -0.2803
13602TIP3    H162221   3.043   3.362   4.606  0.1175 -0.5162  0.0569
13602TIP3    H262222   2.967   3.347   4.736 -0.3644  0.1692 -0.1373
13603TIP3   OH262223   4.161   3.070  16.409 -0.6783  0.8080 -0.0996
13603TIP3    H162224   4.106   3.044  16.335 -0.9075 -0.6369  0.5467
13603TIP3    H262225   4.137   3.010  16.479  3.0108 -1.2269 -0.3301
13604TIP3   OH262226   5.342   6.740   3.805  0.5003 -0.1471 -0.5966
13604TIP3    H162227   5.291   6.711   3.730 -0.5743 -2.2232  0.8299
13604TIP3    H262228   5.305   6.692   3.879  1.1623  2.1822  1.3865
13605TIP3   OH262229   3.111   2.552   3.346 -0.0923  0.0655  0.2161
13605TIP3    H162230   3.159   2.524   3.424 -0.9092 -2.2697 -0.0557
13605TIP3    H262231   3.019   2.536   3.367 -0.3322 -0.4242 -1.1375
13606TIP3   OH262232   6.278   3.214   4.523  0.6349  0.6373 -0.0037
13606TIP3    H162233   6.206   3.161   4.490  1.3272 -1.1165  1.1408
13606TIP3    H262234   6.355   3.157   4.516  1.2666  1.1546  2.0246
13607TIP3   OH262235   6.121   0.928  12.965 -0.2321  0.5789 -0.8319
13607TIP3    H162236   6.175   1.001  12.936 -0.4496  0.5647 -1.2790
13607TIP3    H262237   6.105   0.945  13.058  1.7370 -0.1608 -0.3101
13608TIP3   OH262238   1.397   5.709   4.653 -0.1139  0.3407  0.0649
13608TIP3    H162239   1.408   5.687   4.745 -0.0443  4.2764  1.1466
13608TIP3    H262240   1.326   5.651   4.624 -3.0291  1.6456  3.7607
13609TIP3   OH262241   5.596   0.971  11.540  0.4794  0.2756 -0.4331
13609TIP3    H162242   5.683   0.942  11.569 -0.2470 -2.0816 -0.3485
13609TIP3    H262243   5.592   0.947  11.448 -0.1072  0.2043 -0.3968
13610TIP3   OH262244   2.761   4.069  13.802  0.3515  0.7512  0.5513
13610TIP3    H162245   2.671   4.069  13.770  1.0105  0.7504 -1.5040
13610TIP3    H262246   2.760   4.123  13.880 -1.5288  0.2411  0.9232
13611TIP3   OH262247   5.689   4.810  13.413 -0.0577 -0.1226 -0.1122
13611TIP3    H162248   5.706   4.745  13.481 -1.4995 -0.7804 -0.3244
13611TIP3    H262249   5.596   4.798  13.393  0.1361  0.6591 -1.5735
13612TIP3   OH262250   4.952   5.554   2.758  0.1771 -0.4646 -0.4908
13612TIP3    H162251   4.910   5.627   2.712 -0.8947 -0.4235  0.5107
13612TIP3    H262252   4.888   5.483   2.754  0.0765 -0.4811  0.8665
13613TIP3   OH262253   6.083   5.606   0.783 -0.1074 -0.0995 -0.2565
13613TIP3    H162254   6.107   5.545   0.713  0.0764  0.4485 -0.6733
13613TIP3    H262255   6.076   5.551   0.861 -0.2071 -0.6976 -0.6823
13614TIP3   OH262256   2.797   5.856  13.391 -0.0750  0.0126 -0.3562
13614TIP3    H162257   2.775   5.847  13.483 -0.2287 -1.7034 -0.5336
13614TIP3    H262258   2.892   5.866  13.389  0.1155 -1.5253 -0.0726
13615TIP3   OH262259   2.762   0.233  10.948 -0.1753 -0.1037 -0.2646
13615TIP3    H162260   2.834   0.171  10.941  0.0203  0.1018 -0.1164
13615TIP3    H262261   2.692   0.196  10.894  0.1882 -0.0983 -0.7465
13616TIP3   OH262262   1.264   6.048  12.011  0.0115 -0.3146 -0.3628
13616TIP3    H162263   1.325   6.007  11.949 -0.0930 -0.6331 -0.2585
13616TIP3    H262264   1.234   6.127  11.967  1.7801  0.7603  0.2408
13617TIP3   OH262265   3.743   2.791   6.355  0.4014 -0.5169 -0.0439
13617TIP3    H162266   3.837   2.799   6.336 -0.0767  0.2459 -2.3628
13617TIP3    H262267   3.706   2.750   6.278 -1.3418  0.2577  0.3360
13618TIP3   OH262268   5.076   2.104   2.957 -0.1096  0.5007 -0.5448
13618TIP3    H162269   5.068   2.013   2.926  1.5653 -0.4689  1.5958
13618TIP3    H262270   5.071   2.097   3.053 -1.0255  2.8414 -0.3552
13619TIP3   OH262271   1.081   5.166  11.679 -0.0945  0.6800  0.2116
13619TIP3    H162272   1.114   5.212  11.756  3.2652 -2.8953  1.2666
13619TIP3    H262273   1.110   5.219  11.604  1.3457  1.5690  1.3518
13620TIP3   OH262274   5.612   3.480   2.722  0.0032  0.0564  0.0514
13620TIP3    H162275   5.590   3.400   2.771  1.7101 -0.2662  0.3361
13620TIP3    H262276   5.670   3.529   2.781 -1.1433  1.6155 -0.0570
13621TIP3   OH262277   4.573   0.122   4.942 -0.6557  0.0305 -0.1066
13621TIP3    H162278   4.663   0.122   4.972 -0.8400  1.5954  0.5382
13621TIP3    H262279   4.529   0.188   4.995 -2.6238 -1.8867  0.8418
13622TIP3   OH262280   3.788   4.749  13.121  0.6140  0.4743 -0.1497
13622TIP3    H162281   3.825   4.661  13.118 -0.1133  0.1529  0.0057
13622TIP3    H262282   3.794   4.781  13.031  0.7747  0.2263 -0.2289
13623TIP3   OH262283   6.408   1.664   3.712 -0.2108  1.0548 -0.2433
13623TIP3    H162284   6.330   1.625   3.752 -0.0979  0.4405 -0.6042
13623TIP3    H262285   6.481   1.613   3.748 -0.0720  0.8208 -0.8540
13624TIP3   OH262286   5.628   6.498  11.477 -0.5411  0.7137 -0.1750
13624TIP3    H162287   5.682   6.575  11.494 -1.1115  0.9729  0.5348
13624TIP3    H262288   5.670   6.428  11.527  1.9479 -0.3442 -3.4273
13625TIP3   OH262289   0.309   1.260  16.723  0.1012  0.0152 -0.5327
13625TIP3    H162290   0.243   1.198  16.751  0.3353 -0.2023 -0.4631
13625TIP3    H262291   0.368   1.268  16.797 -0.5483  1.1821 -0.1177
13626TIP3   OH262292   5.739   3.275   5.499 -0.1449 -0.2970  0.2480
13626TIP3    H162293   5.661   3.226   5.470 -0.4231  0.6263 -0.6199
13626TIP3    H262294   5.710   3.318   5.579 -0.0292 -1.1914  0.7886
13627TIP3   OH262295   4.861   2.703  13.540  0.4812 -0.4905 -0.9553
13627TIP3    H162296   4.790   2.665  13.488  0.1595 -1.5782  0.2182
13627TIP3    H262297   4.908   2.628  13.575  1.2507  0.2187 -0.4202
13628TIP3   OH262298   1.513   2.583   4.728  0.5594  0.1185 -0.0846
13628TIP3    H162299   1.520   2.556   4.819 -1.2546  0.2623  0.1353
13628TIP3    H262300   1.450   2.523   4.689  2.2957 -0.7926 -1.6353
13629TIP3   OH262301   4.110   0.563   1.481  0.5059 -0.3196 -0.2136
13629TIP3    H162302   4.164   0.489   1.509  1.3848  0.3547 -0.0562
13629TIP3    H262303   4.174   0.632   1.460 -0.1199 -0.4227 -2.8746
13630TIP3   OH262304   1.628   0.227  11.816  0.1134  0.2280  0.1359
13630TIP3    H162305   1.610   0.200  11.906  0.9968  1.3872  0.6959
13630TIP3    H262306   1.712   0.274  11.822  0.7075 -0.5509 -1.4658
13631TIP3   OH262307   3.701   1.878   5.047 -0.0330 -0.0796  0.4061
13631TIP3    H162308   3.759   1.832   4.987  1.2591  1.4938  0.3733
13631TIP3    H262309   3.668   1.811   5.107  0.4912 -1.2749 -0.6219
13632TIP3   OH262310   2.824   6.663   0.402 -0.5138 -0.3917 -0.3661
13632TIP3    H162311   2.792   6.702   0.321  1.5355  0.3372 -0.8990
13632TIP3    H262312   2.916   6.645   0.385  0.6912  2.0366  2.5489
13633TIP3   OH262313   5.447   1.417  11.000 -0.3823 -0.0640  0.3461
13633TIP3    H162314   5.506   1.351  10.965 -0.6900 -0.0413 -0.2195
13633TIP3    H262315   5.359   1.379  10.991 -0.5409  0.3249  0.2230
13634TIP3   OH262316   0.594   4.772  12.719  0.2078 -0.2492 -0.0726
13634TIP3    H162317   0.660   4.744  12.781 -0.2096  0.1286  0.5488
13634TIP3    H262318   0.528   4.702  12.720  0.7035 -0.7470 -0.8774
13635TIP3   OH262319   0.764   0.913   2.390 -0.3009 -0.0504 -0.3753
13635TIP3    H162320   0.854   0.921   2.418 -0.3417  4.1622 -0.8351
13635TIP3    H262321   0.770   0.878   2.301  1.0185  1.2778 -0.8442
13636TIP3   OH262322   1.682   5.661  14.692  0.3506  0.0409  0.1661
13636TIP3    H162323   1.744   5.590  14.706  1.8181  1.1592 -0.3558
13636TIP3    H262324   1.699   5.722  14.764 -0.4930  0.1265  0.2984
13637TIP3   OH262325   5.683   4.601  11.791  0.1691 -0.1577  0.0935
13637TIP3    H162326   5.773   4.624  11.814 -0.1108 -0.1500  1.2460
13637TIP3    H262327   5.635   4.607  11.874 -0.3519 -2.8358  0.0654
13638TIP3   OH262328   0.272   0.582  14.997 -0.0091 -0.0328 -0.5654
13638TIP3    H162329   0.177   0.574  14.989 -0.0242 -1.0116  0.4156
13638TIP3    H262330   0.305   0.495  14.978  0.6922  0.2610 -0.7238
13639TIP3   OH262331   3.196   5.971   5.752 -0.0922  0.7742  0.5565
13639TIP3    H162332   3.132   6.010   5.693 -0.2195  1.1616  0.9407
13639TIP3    H262333   3.218   6.042   5.814  0.1044  0.4056  0.9152
13640TIP3   OH262334   1.947   3.789  13.731  0.3233  0.3210  0.6534
13640TIP3    H162335   2.022   3.847  13.739  0.1514  0.2732  3.9186
13640TIP3    H262336   1.947   3.762  13.639  2.3161  2.8725 -0.2129
13641TIP3   OH262337   1.226   3.729   2.138  0.1119  0.4090 -0.7836
13641TIP3    H162338   1.256   3.640   2.118 -1.0010 -0.3113  0.5382
13641TIP3    H262339   1.293   3.786   2.100  1.3353 -1.0155 -0.8699
13642TIP3   OH262340   6.692   2.554   5.336 -0.3700  0.2182  0.4072
13642TIP3    H162341   6.729   2.484   5.390 -0.6860 -0.0723  0.2546
13642TIP3    H262342   6.599   2.531   5.328 -0.0218 -0.6710 -1.6642
13643TIP3   OH262343   1.997   6.482   2.124 -0.1911  0.1982 -0.0112
13643TIP3    H162344   2.069   6.545   2.131  0.0166 -0.0061 -0.2983
13643TIP3    H262345   1.930   6.516   2.184  0.3717  0.0733  0.7016
13644TIP3   OH262346   2.755   0.835   0.928 -0.0779 -0.1812  0.0102
13644TIP3    H162347   2.802   0.883   0.997 -0.1045 -0.6644  0.3700
13644TIP3    H262348   2.790   0.870   0.846  0.2321  0.1273  0.2705
13645TIP3   OH262349   3.165   5.002   1.567 -0.0042 -0.0312 -0.2677
13645TIP3    H162350   3.109   4.993   1.490  0.6196  0.1823 -0.7449
13645TIP3    H262351   3.103   4.999   1.641 -0.7650  1.1539 -0.8150
13646TIP3   OH262352   3.965   3.942   4.410 -0.0177  0.0438  0.1273
13646TIP3    H162353   3.871   3.950   4.390  0.1502  0.9852 -0.3366
13646TIP3    H262354   3.982   3.848   4.408 -0.5113 -0.0617 -1.9422
13647TIP3   OH262355   4.275   2.041  13.773 -0.1740  0.0258  0.1580
13647TIP3    H162356   4.337   1.993  13.828 -0.4232  0.7186  1.0712
13647TIP3    H262357   4.287   2.133  13.797  0.1822  0.4376 -1.4508
13648TIP3   OH262358   0.326   4.922  14.231  0.8156 -0.3104  0.2387
13648TIP3    H162359   0.327   5.017  14.229 -3.1700 -0.0872  1.0772
13648TIP3    H262360   0.349   4.896  14.141 -1.0333  1.6324 -0.8927
13649TIP3   OH262361   6.080   1.938  12.826  0.4144  0.2053  0.2253
13649TIP3    H162362   6.144   2.007  12.808  0.6219  0.5163  1.9557
13649TIP3    H262363   6.114   1.893  12.903 -0.2609 -1.1730 -0.2420
13650TIP3   OH262364   4.925   3.608  17.234 -0.2182  0.1232  0.2970
13650TIP3    H162365   4.923   3.703  17.244 -1.8260  0.3611 -1.6559
13650TIP3    H262366   4.918   3.594  17.140 -0.0348 -1.9399  0.5502
13651TIP3   OH262367   6.348   4.791  13.814 -0.2848  0.1850  0.6447
13651TIP3    H162368   6.311   4.832  13.892  0.8896 -1.9995  2.4619
13651TIP3    H262369   6.441   4.779  13.834  0.3771  0.7811 -1.6832
13652TIP3   OH262370   0.473   5.409  13.744  0.0873 -0.4580  0.3468
13652TIP3    H162371   0.490   5.404  13.650  0.5867 -0.9548  0.4569
13652TIP3    H262372   0.545   5.463  13.778 -0.4715  0.2970  0.3564
13653TIP3   OH262373   5.270   4.156  13.315 -0.2477 -0.4460  0.1789
13653TIP3    H162374   5.269   4.250  13.298  1.2225 -0.0165  2.0749
13653TIP3    H262375   5.242   4.149  13.406 -0.2109 -1.8377  0.0932
13654TIP3   OH262376   2.283   2.793  17.134  0.6681 -0.1265  0.5325
13654TIP3    H162377   2.325   2.786  17.220 -2.4248 -2.9746  2.0082
13654TIP3    H262378   2.225   2.718  17.129 -0.4721  0.7790 -3.4862
13655TIP3   OH262379   5.599   0.562   5.018 -0.1666  0.1745 -0.4975
13655TIP3    H162380   5.688   0.541   5.047 -0.5062 -0.3311  0.2154
13655TIP3    H262381   5.588   0.510   4.938  0.0008 -0.1718 -0.3010
13656TIP3   OH262382   5.796   3.814   3.388  0.2140  0.0061  0.0544
13656TIP3    H162383   5.706   3.822   3.419  0.3832  0.6819  0.3738
13656TIP3    H262384   5.850   3.829   3.465  0.6093 -0.5636 -0.0996
13657TIP3   OH262385   0.005   1.033   3.722 -0.8199  0.1127  0.4306
13657TIP3    H162386   0.002   1.043   3.627 -2.7118 -0.3286  0.3981
13657TIP3    H262387  -0.042   1.109   3.756 -0.3905  0.1304  1.0000
13658TIP3   OH262388   2.047   2.897  14.010  0.2051 -0.1469 -0.0149
13658TIP3    H162389   2.001   2.920  13.929 -1.0014  0.6356  0.8723
13658TIP3    H262390   2.062   2.802  14.002  0.1413 -0.0804 -1.1592
13659TIP3   OH262391   3.734   4.172  13.614 -1.2479 -0.3132  0.0859
13659TIP3    H162392   3.714   4.088  13.656 -0.9830 -1.0962 -1.2750
13659TIP3    H262393   3.817   4.156  13.568 -0.3323  1.1948  1.1157
13660TIP3   OH262394   4.610   4.369   3.021  0.3188 -0.6374 -0.1312
13660TIP3    H162395   4.677   4.438   3.017  1.2232 -1.5161 -0.5821
13660TIP3    H262396   4.651   4.294   2.979 -1.8387 -0.4922 -2.7838
13661TIP3   OH262397   4.239   2.266   6.361  0.0553 -0.2725 -0.5130
13661TIP3    H162398   4.320   2.240   6.316  0.1159 -0.9590 -0.0153
13661TIP3    H262399   4.178   2.195   6.343  0.8867 -2.0061  2.6891
13662TIP3   OH262400   1.617   4.215   2.301 -0.0196 -0.0786  0.5005
13662TIP3    H162401   1.681   4.145   2.290  1.1892  1.0626  0.1272
13662TIP3    H262402   1.564   4.212   2.221  1.9777  1.3694 -0.9401
13663TIP3   OH262403   4.565   6.389  15.501 -0.1432 -0.5556 -0.4852
13663TIP3    H162404   4.630   6.358  15.438  0.7459  1.8134 -0.8393
13663TIP3    H262405   4.519   6.459  15.456  0.4335  1.1415  1.3971
13664TIP3   OH262406   0.056   4.230  14.261 -0.2391 -0.2700 -0.0089
13664TIP3    H162407  -0.005   4.297  14.229  1.0336  0.7091 -0.4562
13664TIP3    H262408   0.057   4.242  14.356 -1.0752 -0.6035  0.0518
13665TIP3   OH262409   1.401   5.364   6.164 -0.3066 -0.3085  1.0261
13665TIP3    H162410   1.384   5.398   6.076 -0.1766 -1.3188  0.5934
13665TIP3    H262411   1.393   5.440   6.221 -0.8679  0.2781  0.1967
13666TIP3   OH262412   1.618   1.307   5.922  0.2679 -0.1494  0.1016
13666TIP3    H162413   1.604   1.360   5.844 -0.7854 -0.9415 -0.2609
13666TIP3    H262414   1.706   1.272   5.912  1.0675  1.6271  0.4325
13667TIP3   OH262415   3.547   6.421   0.969 -0.3076 -0.1986  0.3156
13667TIP3    H162416   3.639   6.419   0.996 -0.2507 -1.4006  0.0663
13667TIP3    H262417   3.541   6.496   0.910  0.9877 -1.2993 -1.3000
13668TIP3   OH262418   6.031   6.258   1.752 -0.5934  0.1290  0.4533
13668TIP3    H162419   6.058   6.225   1.666 -0.6103  1.3859 -0.0651
13668TIP3    H262420   6.103   6.236   1.810 -0.4060 -0.3886  0.0327
13669TIP3   OH262421   0.822   4.906  17.062 -0.1997  0.8333 -0.0700
13669TIP3    H162422   0.786   4.947  16.983 -3.3402  0.2610  0.9099
13669TIP3    H262423   0.855   4.979  17.114 -0.0165  1.4236 -0.9764
13670TIP3   OH262424   2.078   5.813   3.200  0.1913 -0.3783 -0.5535
13670TIP3    H162425   2.108   5.833   3.288 -0.3657 -1.1518 -0.1790
13670TIP3    H262426   2.062   5.719   3.200 -1.7635 -0.0943 -0.8675
13671TIP3   OH262427   1.905   0.626  12.129 -0.4998 -0.1824  0.0985
13671TIP3    H162428   1.982   0.604  12.076 -1.3461 -0.5782 -0.9915
13671TIP3    H262429   1.940   0.681  12.200  0.6361  0.5182 -0.9614
13672TIP3   OH262430   4.205   6.429  11.815 -0.1303 -0.3707  0.1958
13672TIP3    H162431   4.197   6.387  11.901 -0.3322  1.2087  1.0022
13672TIP3    H262432   4.295   6.411  11.787 -0.3187 -1.5943  0.3475
13673TIP3   OH262433   6.246   6.545   0.560 -0.0386 -0.4022 -0.1382
13673TIP3    H162434   6.259   6.454   0.582 -1.8619 -1.1671 -1.8349
13673TIP3    H262435   6.152   6.559   0.572  0.1716  1.2026 -0.1130
13674TIP3   OH262436   4.392   0.958  13.366  0.6473  0.3106  0.2837
13674TIP3    H162437   4.466   1.017  13.378  1.1258 -0.0315 -0.8674
13674TIP3    H262438   4.349   0.989  13.286  0.3403 -0.3137  0.2022
13675TIP3   OH262439   4.267   4.110   0.624  0.3529  0.2405  0.4243
13675TIP3    H162440   4.358   4.082   0.614  0.2866  0.0991  0.2037
13675TIP3    H262441   4.250   4.162   0.545 -0.3742 -1.4145 -0.5728
13676TIP3   OH262442   1.617   0.236   3.713 -0.0762  0.3773  0.0715
13676TIP3    H162443   1.645   0.299   3.778  3.5232  2.4091 -3.0346
13676TIP3    H262444   1.581   0.289   3.642 -0.9158 -1.4521 -0.9505
13677TIP3   OH262445   2.922   0.580   1.802 -0.5469  0.3695  0.2842
13677TIP3    H162446   2.927   0.591   1.897  1.4357 -1.0813  0.4247
13677TIP3    H262447   2.863   0.649   1.773 -1.3885  0.7187  2.5805
13678TIP3   OH262448   5.318   3.592  11.188  0.4539  0.3478 -0.6288
13678TIP3    H162449   5.403   3.632  11.201 -0.0983  1.5226 -0.5276
13678TIP3    H262450   5.337   3.499  11.175  1.8085  0.7097 -1.4324
13679TIP3   OH262451   6.577   0.520   0.979  0.1284 -0.4856  0.4839
13679TIP3    H162452   6.624   0.439   0.962 -0.7562 -0.7725 -0.6988
13679TIP3    H262453   6.641   0.589   0.964  0.2819 -0.8839 -0.7489
13680TIP3   OH262454   3.261   4.654  14.226 -0.5325  0.0490 -0.2384
13680TIP3    H162455   3.320   4.579  14.215  0.0412 -0.0404  2.5186
13680TIP3    H262456   3.184   4.632  14.174 -0.1439 -2.1876  0.0138
13681TIP3   OH262457   3.709   3.554  14.025 -0.6500  0.2881 -0.2872
13681TIP3    H162458   3.614   3.567  14.026 -0.7194 -0.1884  1.1458
13681TIP3    H262459   3.730   3.519  14.112  0.9363  1.0963 -0.3042
13682TIP3   OH262460   4.859   1.942   1.217 -0.1415  0.0527 -1.0423
13682TIP3    H162461   4.921   1.939   1.144 -1.3010  1.8903 -2.1743
13682TIP3    H262462   4.910   1.978   1.290  1.4760 -3.2960 -0.3472
13683TIP3   OH262463   2.290   6.358   2.478  0.0994  0.6278  0.1586
13683TIP3    H162464   2.352   6.373   2.406 -0.5350  0.0162 -0.5297
13683TIP3    H262465   2.240   6.439   2.483  0.1570  0.6803 -0.0805
13684TIP3   OH262466   2.683   6.347   6.728 -0.9584 -0.2300 -0.1120
13684TIP3    H162467   2.597   6.313   6.703 -0.1310 -1.4637 -1.4496
13684TIP3    H262468   2.741   6.322   6.656  0.2124  2.0456 -0.0592
13685TIP3   OH262469   3.869   3.623   2.759  0.0827  0.4051  0.1217
13685TIP3    H162470   3.867   3.700   2.701  0.9071  0.0953 -0.3177
13685TIP3    H262471   3.960   3.616   2.787 -0.5929  1.7724  3.1463
13686TIP3   OH262472   6.558   3.978  12.856  0.2823  0.2050 -0.0447
13686TIP3    H162473   6.572   3.884  12.839 -2.7887 -0.3263 -0.2971
13686TIP3    H262474   6.520   3.981  12.943  0.1914  1.2129 -0.1093
13687TIP3   OH262475   4.397   6.409   4.884 -0.1786 -0.3065  0.1385
13687TIP3    H162476   4.345   6.480   4.847 -0.4850 -0.3378  0.5078
13687TIP3    H262477   4.407   6.431   4.976 -1.3044 -1.3321  0.5348
13688TIP3   OH262478   3.445   5.560   4.843 -0.2412  0.2113 -0.0693
13688TIP3    H162479   3.536   5.589   4.846 -0.2768  0.2982  0.1674
13688TIP3    H262480   3.432   5.531   4.753  0.4998 -1.3480  0.2914
13689TIP3   OH262481   0.063   5.312   0.452  0.3862 -0.0970 -0.0973
13689TIP3    H162482   0.132   5.253   0.481  0.2974  0.0562  0.4478
13689TIP3    H262483   0.105   5.398   0.450  0.4341 -0.1309 -0.5859
13690TIP3   OH262484   1.535   5.886  14.985 -0.0803 -0.1684 -0.4336
13690TIP3    H162485   1.579   5.959  14.942 -0.3855 -0.1591 -0.7393
13690TIP3    H262486   1.585   5.870  15.065 -1.3856  1.9609  0.9064
13691TIP3   OH262487   3.460   5.431  16.905  0.4987 -0.1466  0.2063
13691TIP3    H162488   3.541   5.427  16.957 -0.2397 -1.2365  1.3120
13691TIP3    H262489   3.485   5.480  16.827  2.3633 -0.8495  0.3102
13692TIP3   OH262490   3.683   2.928   3.300 -0.1073 -0.0312 -0.0917
13692TIP3    H162491   3.635   2.887   3.372  1.7372  0.0149  1.2610
13692TIP3    H262492   3.641   3.014   3.289 -1.7157 -0.8389 -0.5053
13693TIP3   OH262493   6.403   1.493  12.598 -0.4387 -0.0669  0.0336
13693TIP3    H162494   6.324   1.465  12.644 -2.0998  0.2080 -2.4398
13693TIP3    H262495   6.372   1.558  12.535  2.1298  1.6735  0.4084
13694TIP3   OH262496   1.139   0.244  16.737  0.3976 -0.0623  0.1996
13694TIP3    H162497   1.166   0.331  16.765  0.8496 -0.4137  0.8971
13694TIP3    H262498   1.116   0.254  16.645 -0.9328  1.0805  0.6366
13695TIP3   OH262499   4.918   0.702   2.580 -0.5829 -0.3472  0.0494
13695TIP3    H162500   4.951   0.756   2.652 -2.6386 -0.1229  0.8850
13695TIP3    H262501   4.997   0.678   2.530  0.5675  2.1740  0.4932
13696TIP3   OH262502   5.865   1.793  16.032 -0.0585  0.5461  0.0494
13696TIP3    H162503   5.908   1.867  15.988  2.5235 -1.8004 -1.7655
13696TIP3    H262504   5.897   1.797  16.122  0.3857  1.3896 -0.1301
13697TIP3   OH262505   5.536   5.396  16.364  0.2805 -0.1171  0.2676
13697TIP3    H162506   5.479   5.466  16.396  0.4319 -0.2642  0.8685
13697TIP3    H262507   5.533   5.329  16.433  1.7365  0.1732  0.6401
13698TIP3   OH262508   4.842   4.271  15.859  0.0663 -0.3775 -0.4097
13698TIP3    H162509   4.832   4.200  15.923 -0.0924 -0.3757 -0.4296
13698TIP3    H262510   4.754   4.281  15.822 -0.1530  0.4742  0.2848
13699TIP3   OH262511   3.635   1.959   3.237 -0.2099  0.6388  0.3314
13699TIP3    H162512   3.559   1.988   3.187  1.3924  3.2790 -0.8175
13699TIP3    H262513   3.647   1.867   3.212 -3.4946 -0.1896  1.3375
13700TIP3   OH262514   0.727   3.205   1.772  0.1593 -0.2244 -0.2840
13700TIP3    H162515   0.739   3.180   1.680  3.4739 -1.6855  0.3791
13700TIP3    H262516   0.652   3.153   1.801 -1.4476  0.8334 -2.2543
13701TIP3   OH262517   3.168   1.040  13.998  0.2459  0.2559 -0.4897
13701TIP3    H162518   3.129   0.960  14.033  1.3481  0.1076  0.4742
13701TIP3    H262519   3.248   1.010  13.956  1.1570  0.9272  0.7073
13702TIP3   OH262520   4.736   4.902   2.197 -0.0081 -0.4152  0.2562
13702TIP3    H162521   4.804   4.853   2.243  0.2065 -0.7067 -0.3710
13702TIP3    H262522   4.777   4.930   2.115 -0.2961  0.3590  0.3645
13703TIP3   OH262523   0.648   1.023   0.461 -0.0410 -0.5411 -0.7189
13703TIP3    H162524   0.638   1.111   0.496 -1.8883 -0.6321 -0.9384
13703TIP3    H262525   0.698   0.976   0.529  1.4326  0.7738 -0.8390
13704TIP3   OH262526   4.284   1.096   5.524 -0.0866  0.5196 -0.5673
13704TIP3    H162527   4.262   1.006   5.498  0.3634  0.8513 -2.2585
13704TIP3    H262528   4.325   1.087   5.610 -2.7916 -0.5494  0.7323
13705TIP3   OH262529   4.680   1.388  14.698 -0.7016  0.0068 -0.8430
13705TIP3    H162530   4.707   1.369  14.609  0.2838  0.7863 -0.7221
13705TIP3    H262531   4.704   1.310  14.748  1.3585  0.6720 -0.7410
13706TIP3   OH262532   0.546   0.796  15.843  0.0966 -0.0012  0.2227
13706TIP3    H162533   0.600   0.835  15.775 -0.4472 -0.8449 -0.7305
13706TIP3    H262534   0.456   0.810  15.814 -0.1213 -1.8470 -0.1344
13707TIP3   OH262535   0.624   5.326  16.129  0.0621 -0.0006  0.1691
13707TIP3    H162536   0.567   5.257  16.164 -2.7608  1.5024 -1.1499
13707TIP3    H262537   0.603   5.330  16.036  0.7815  2.0437  0.0417
13708TIP3   OH262538   1.778   6.227   1.945  0.3731  0.5049  0.1935
13708TIP3    H162539   1.736   6.298   1.993  1.4934  0.5289  1.1981
13708TIP3    H262540   1.751   6.240   1.854 -1.7467  0.5018  0.7693
13709TIP3   OH262541   0.802   3.336  15.184 -0.4539  0.2989  0.0199
13709TIP3    H162542   0.751   3.401  15.232 -1.9479 -1.2376  0.5867
13709TIP3    H262543   0.887   3.334  15.229 -0.2771  1.9976 -0.1736
13710TIP3   OH262544   6.676   5.557  12.363  0.2476 -0.2897 -0.6440
13710TIP3    H162545   6.609   5.625  12.376 -0.8715 -1.6907  1.9214
13710TIP3    H262546   6.758   5.605  12.356 -0.2972  1.4371  2.4817
13711TIP3   OH262547   3.937   4.476   5.723 -0.2683  0.1996  0.4173
13711TIP3    H162548   3.941   4.391   5.767 -0.1599  0.0885  0.1958
13711TIP3    H262549   4.004   4.529   5.767 -0.1255  0.0735  0.3514
13712TIP3   OH262550   4.240   6.199  15.672 -0.2164  0.1986 -0.2754
13712TIP3    H162551   4.148   6.228  15.669 -0.2794  0.4388  2.1018
13712TIP3    H262552   4.290   6.280  15.681 -0.0779 -0.0807  2.0153
13713TIP3   OH262553   0.431   6.665   3.924 -0.5853  0.7440 -0.3043
13713TIP3    H162554   0.457   6.598   3.861 -1.3285  0.5650 -0.4316
13713TIP3    H262555   0.431   6.746   3.874  0.5669  0.8952 -0.0881
13714TIP3   OH262556   5.632   2.978   2.115  0.6865  0.8692 -0.3533
13714TIP3    H162557   5.618   3.071   2.133  1.1161  0.9343 -0.3488
13714TIP3    H262558   5.659   2.941   2.199  0.7679  0.7899 -0.4142
13715TIP3   OH262559   4.128   3.902   6.236 -0.1150  0.4721 -0.2948
13715TIP3    H162560   4.081   3.893   6.154  1.2890 -1.4188 -0.9797
13715TIP3    H262561   4.098   3.827   6.289  1.4701 -0.3257 -0.4581
13716TIP3   OH262562   1.211   2.211   4.131  0.5545  0.0722 -0.6131
13716TIP3    H162563   1.139   2.262   4.169  0.4839 -0.0094 -0.6368
13716TIP3    H262564   1.283   2.222   4.193  0.8127  0.9030 -1.0602
13717TIP3   OH262565   6.784   6.043  10.345  0.5768  0.5506  0.0495
13717TIP3    H162566   6.853   6.077  10.403  0.9560  0.0924 -0.1263
13717TIP3    H262567   6.719   6.006  10.404  0.8710  0.2564  0.1950
13718TIP3   OH262568   3.823   5.285  15.361 -0.3578  0.1870  0.1338
13718TIP3    H162569   3.820   5.191  15.382  0.1498  0.1460  0.0288
13718TIP3    H262570   3.885   5.321  15.424  0.0544  0.3174 -0.3472
13719TIP3   OH262571   1.461   3.447  16.265 -0.2292 -0.4725 -0.0157
13719TIP3    H162572   1.492   3.357  16.268  1.8957  0.2141  1.4803
13719TIP3    H262573   1.539   3.500  16.280 -1.2430  1.6933 -1.7020
13720TIP3   OH262574   6.564   0.698   4.313 -0.2878 -1.0516 -0.6661
13720TIP3    H162575   6.558   0.618   4.261 -2.3264 -1.2395 -0.2391
13720TIP3    H262576   6.571   0.769   4.249 -1.2303 -1.3947 -1.1559
13721TIP3   OH262577   5.189   2.024  13.563 -0.4297 -0.6164 -0.5381
13721TIP3    H162578   5.194   2.094  13.629  0.6121 -1.1679 -0.0194
13721TIP3    H262579   5.207   2.069  13.480  1.5822 -0.4562 -0.0678
13722TIP3   OH262580   1.597   3.576  11.322  0.3400  0.7516 -0.1501
13722TIP3    H162581   1.613   3.498  11.270  1.7126 -0.5223  1.9986
13722TIP3    H262582   1.683   3.619  11.327  0.1490  1.0575  0.6680
13723TIP3   OH262583   6.468   3.115  16.071 -0.0380  0.0384 -0.5470
13723TIP3    H162584   6.449   3.208  16.080  0.5625  0.0456  1.0192
13723TIP3    H262585   6.445   3.077  16.156  0.2877 -1.1346 -0.9580
13724TIP3   OH262586   1.499   4.810   3.782  0.3156 -0.4189 -0.3432
13724TIP3    H162587   1.452   4.853   3.853  1.8837 -0.7193  0.9120
13724TIP3    H262588   1.518   4.881   3.720 -0.5273 -0.0530 -0.2052
13725TIP3   OH262589   2.192   6.486  10.781  0.3571 -0.2716  0.1732
13725TIP3    H162590   2.184   6.557  10.716  1.5894 -0.2325  0.0443
13725TIP3    H262591   2.101   6.463  10.802 -0.0710  0.1787 -1.0582
13726TIP3   OH262592   6.233   4.892  13.586  0.0093  0.0532  0.0402
13726TIP3    H162593   6.273   4.852  13.663  3.7125  1.3840 -0.9964
13726TIP3    H262594   6.153   4.933  13.619  0.8284 -0.4518  2.9162
13727TIP3   OH262595   3.271   3.656  14.514  0.5049  0.3363  0.2656
13727TIP3    H162596   3.256   3.750  14.526  1.4374  0.3840  1.2347
13727TIP3    H262597   3.328   3.651  14.437 -2.5069  0.2785 -2.1302
13728TIP3   OH262598   2.527   1.840  15.654  0.2489  0.3999 -0.1128
13728TIP3    H162599   2.491   1.798  15.733 -2.2163  1.9585 -0.2840
13728TIP3    H262600   2.570   1.769  15.607  1.1564 -0.7465  2.2395
13729TIP3   OH262601   1.862   2.879   4.950 -0.7420  0.0392  0.1232
13729TIP3    H162602   1.924   2.926   5.006  0.6184 -1.5240 -0.0150
13729TIP3    H262603   1.786   2.863   5.006 -0.2622  0.3291  0.8727
13730TIP3   OH262604   3.767   3.830   3.427 -0.3619  0.0581 -0.4576
13730TIP3    H162605   3.705   3.864   3.362 -0.7229 -0.6012 -0.4650
13730TIP3    H262606   3.823   3.904   3.447 -1.4022  0.7770 -0.1508
13731TIP3   OH262607   4.240   3.682  16.645  0.0205 -0.1425  0.6999
13731TIP3    H162608   4.189   3.666  16.725  0.1377 -0.5222  0.7010
13731TIP3    H262609   4.202   3.622  16.581  0.8478 -0.8620  0.8659
13732TIP3   OH262610   1.228   4.922  11.049  0.2534  0.0032  0.4804
13732TIP3    H162611   1.265   4.933  10.961  1.5606 -1.8135  0.7310
13732TIP3    H262612   1.172   4.845  11.042 -1.1794  0.9707  0.8349
13733TIP3   OH262613   1.666   4.057  12.561 -0.1289  0.2287 -0.7079
13733TIP3    H162614   1.743   4.092  12.515 -0.3933  1.4087 -0.2924
13733TIP3    H262615   1.691   4.058  12.653  0.9672 -3.5469 -0.8277
13734TIP3   OH262616   6.322   3.986   0.461  0.0603 -0.5802 -0.1528
13734TIP3    H162617   6.370   3.923   0.514  1.7202 -0.5673 -1.5602
13734TIP3    H262618   6.233   3.952   0.457 -0.0101 -0.8317  2.1776
13735TIP3   OH262619   4.512   6.100   5.160 -0.1408  0.0050  0.4761
13735TIP3    H162620   4.585   6.160   5.173 -1.3018  1.2620  1.6146
13735TIP3    H262621   4.550   6.013   5.169  1.1288  0.6347  1.5539
13736TIP3   OH262622   5.864   3.037   5.381 -0.3641  0.6563  0.1848
13736TIP3    H162623   5.845   3.120   5.337 -0.4330 -0.1115 -1.2799
13736TIP3    H262624   5.950   3.050   5.420 -0.3932  1.4386  0.0086
13737TIP3   OH262625   6.217   2.395  12.231 -0.0531 -0.0756  0.2039
13737TIP3    H162626   6.124   2.417  12.232 -0.4754 -1.6985  0.3659
13737TIP3    H262627   6.262   2.478  12.245 -1.5364  0.4683  2.1873
13738TIP3   OH262628   2.910   2.782   0.246  0.4735  0.3940  0.3907
13738TIP3    H162629   2.975   2.750   0.183  0.5625 -0.5217  0.9408
13738TIP3    H262630   2.900   2.711   0.309 -0.6907  0.7338  0.6056
13739TIP3   OH262631   4.267   0.543   2.060 -0.5022  0.2005 -0.0423
13739TIP3    H162632   4.184   0.575   2.025 -0.8134 -3.0000 -2.6990
13739TIP3    H262633   4.243   0.478   2.125 -0.2199 -1.5822 -1.6364
13740TIP3   OH262634   2.105   0.840  11.616 -0.7254 -0.0312 -0.5944
13740TIP3    H162635   2.091   0.933  11.637 -0.1141 -0.0864  0.1268
13740TIP3    H262636   2.187   0.838  11.567  0.3723 -0.3670  1.1644
13741TIP3   OH262637   5.930   6.250   4.013 -0.0537 -0.0638  0.2360
13741TIP3    H162638   5.891   6.336   3.995 -0.5159 -0.2166  0.4944
13741TIP3    H262639   6.024   6.267   4.015 -0.0794  0.2634 -0.6507
13742TIP3   OH262640   3.432   3.371  11.371 -0.0791  0.6643  0.1825
13742TIP3    H162641   3.443   3.287  11.325  1.6697  0.6411  0.5810
13742TIP3    H262642   3.401   3.431  11.304  1.2082  0.3224 -0.7493
13743TIP3   OH262643   3.591   0.404  17.171 -0.1921  0.4034 -0.4912
13743TIP3    H162644   3.590   0.338  17.240 -3.9861 -0.3201 -1.0106
13743TIP3    H262645   3.622   0.483  17.214  0.3411 -0.7119  1.2617
13744TIP3   OH262646   2.184   1.381  17.145 -0.4053 -0.8092  0.2951
13744TIP3    H162647   2.154   1.300  17.102  0.2724 -0.6162 -0.5679
13744TIP3    H262648   2.147   1.376  17.233 -0.5992 -1.9321  0.1676
13745TIP3   OH262649   1.833   1.413  16.991 -0.4331  0.2873  0.1737
13745TIP3    H162650   1.745   1.420  16.953 -0.5199 -1.0899  0.0577
13745TIP3    H262651   1.881   1.358  16.929 -0.3878 -1.4814  1.6801
13746TIP3   OH262652   0.394   3.142  15.200  0.0343  0.1348 -0.3676
13746TIP3    H162653   0.384   3.227  15.158  1.1374  0.4463 -0.0310
13746TIP3    H262654   0.474   3.149  15.251 -0.4917 -0.7278  0.6139
13747TIP3   OH262655   6.026   5.706   0.413 -0.7210 -0.3872  0.2865
13747TIP3    H162656   6.060   5.763   0.483  0.4400  0.5633 -0.9781
13747TIP3    H262657   6.103   5.656   0.385 -0.6501  0.7130 -1.6371
13748TIP3   OH262658   6.391   4.832   3.607  0.2140 -0.0217 -0.4790
13748TIP3    H162659   6.457   4.792   3.665 -0.5875  0.2551  0.6634
13748TIP3    H262660   6.403   4.926   3.619  0.6742  0.0629 -1.5216
13749TIP3   OH262661   1.049   5.154  16.813  0.7048 -0.1059 -0.3965
13749TIP3    H162662   1.036   5.088  16.745  0.6365 -0.4819 -0.0238
13749TIP3    H262663   1.115   5.117  16.871 -1.1307 -1.0032  1.2348
13750TIP3   OH262664   2.903   5.036   0.542  0.1172  0.0556  0.7071
13750TIP3    H162665   2.933   4.987   0.465  0.2178  1.2667 -0.0554
13750TIP3    H262666   2.980   5.087   0.570  0.0066 -0.1710  1.4491
13751TIP3   OH262667   3.909   6.290  10.680  0.3119  0.2621 -0.2171
13751TIP3    H162668   3.971   6.260  10.613 -1.1874 -1.0058 -1.1260
13751TIP3    H262669   3.914   6.385  10.677  2.3710  0.1933 -0.0828
13752TIP3   OH262670   4.281   0.568   2.435  0.5370 -0.2936  0.0987
13752TIP3    H162671   4.286   0.493   2.494  0.8604  0.0786  0.5489
13752TIP3    H262672   4.213   0.544   2.372  0.2217 -0.7137  0.5872
13753TIP3   OH262673   5.942   5.949   4.221 -0.4390 -0.4893 -0.1099
13753TIP3    H162674   5.959   5.958   4.315 -0.9328  0.4264 -0.0988
13753TIP3    H262675   6.000   6.012   4.180  0.1532 -1.2537 -0.4690
13754TIP3   OH262676   0.875   6.042  13.474  0.1492 -0.1812 -0.1581
13754TIP3    H162677   0.950   6.025  13.531  0.2282 -0.5839 -0.3755
13754TIP3    H262678   0.908   6.028  13.385  0.2629  1.3530 -0.3796
13755TIP3   OH262679   1.929   6.030   0.492 -0.7388  0.1775 -0.0281
13755TIP3    H162680   1.857   6.080   0.453  0.1643  0.7709 -0.9714
13755TIP3    H262681   1.957   5.970   0.423  0.3820  0.7098 -0.0582
13756TIP3   OH262682   3.389   3.137  10.500 -0.0357 -0.3791  0.4111
13756TIP3    H162683   3.382   3.144  10.405  0.0158  0.6201  0.4736
13756TIP3    H262684   3.379   3.227  10.532 -1.8389 -0.9056  1.4810
13757TIP3   OH262685   5.497   6.508  16.043  0.4554  0.1413  0.2018
13757TIP3    H162686   5.438   6.549  15.979  1.0669 -0.9566 -1.1396
13757TIP3    H262687   5.572   6.567  16.047  0.5677  0.0533 -0.3948
13758TIP3   OH262688   2.581   4.161  15.535 -0.0282  0.5591 -0.0134
13758TIP3    H162689   2.654   4.104  15.561 -0.2479  0.6686  0.8551
13758TIP3    H262690   2.624   4.240  15.501  0.2692  0.0839 -0.7798
13759TIP3   OH262691   0.486   4.547   0.359 -0.3002  0.5331 -0.2613
13759TIP3    H162692   0.495   4.642   0.355 -1.1762  0.6084 -0.7922
13759TIP3    H262693   0.415   4.532   0.422 -0.1043  0.2242 -0.1091
13760TIP3   OH262694   2.406   0.928   2.027 -0.4117 -0.0678  0.4454
13760TIP3    H162695   2.448   1.002   2.070 -0.9445  0.1306  0.6343
13760TIP3    H262696   2.477   0.867   2.009  0.5195  1.6363 -2.1919
13761TIP3   OH262697   6.549   0.217   2.153  0.6369  0.3855 -0.4725
13761TIP3    H162698   6.614   0.159   2.194 -0.0292 -0.6709 -0.8601
13761TIP3    H262699   6.488   0.157   2.110 -2.4022  1.0734  2.4201
13762TIP3   OH262700   3.191   3.667  11.034  0.2160 -0.2082 -0.4188
13762TIP3    H162701   3.238   3.631  11.110 -0.8835 -0.1296  0.3107
13762TIP3    H262702   3.165   3.589  10.985 -1.4207 -0.4174  0.7173
13763TIP3   OH262703   3.249   6.717   4.311 -0.1470 -0.3321 -0.3225
13763TIP3    H162704   3.188   6.717   4.237 -0.6647  0.8403  0.0851
13763TIP3    H262705   3.328   6.759   4.276 -1.2855  2.6912  0.4299
13764TIP3   OH262706   5.545   6.506   3.963  0.1155 -0.5526 -0.4161
13764TIP3    H162707   5.542   6.412   3.978  0.3263 -0.4093  0.5860
13764TIP3    H262708   5.456   6.536   3.981  0.3394 -0.3978  0.4835
13765TIP3   OH262709   1.852   4.964  13.977  0.0149  0.1467  0.7602
13765TIP3    H162710   1.779   4.975  13.916  1.2014 -0.4343 -0.8351
13765TIP3    H262711   1.879   4.873  13.966 -0.5782 -0.4100  3.2109
13766TIP3   OH262712   4.605   4.330  16.447 -0.5294 -0.2806  0.3698
13766TIP3    H162713   4.667   4.323  16.519  0.8863 -1.5388 -0.8915
13766TIP3    H262714   4.560   4.414  16.462 -0.5223 -0.6423  2.8320
13767TIP3   OH262715   1.273   0.493   5.857  0.1508  0.9101 -0.2900
13767TIP3    H162716   1.251   0.582   5.884  0.2894  1.0063 -0.4944
13767TIP3    H262717   1.194   0.442   5.877  0.8992  0.5710  2.1864
13768TIP3   OH262718   2.750   3.651  17.237 -1.0326  0.1174 -0.0114
13768TIP3    H162719   2.721   3.652  17.328  0.1537 -0.2108  0.3997
13768TIP3    H262720   2.670   3.649  17.185 -1.7704 -2.4861  1.0656
13769TIP3   OH262721   4.420   0.715  11.667 -0.9033 -0.0041  0.5685
13769TIP3    H162722   4.328   0.736  11.650 -0.4715  2.3849  0.8516
13769TIP3    H262723   4.451   0.676  11.585 -1.4197  2.0083 -0.6563
13770TIP3   OH262724   5.077   1.796  17.215  0.9514  0.3744 -0.2480
13770TIP3    H162725   5.114   1.716  17.178  1.1093  0.0640  0.5399
13770TIP3    H262726   4.991   1.804  17.175 -0.4064 -1.9133  1.8625
13771TIP3   OH262727   2.916   5.060   2.385 -0.7931  0.5525 -0.1884
13771TIP3    H162728   2.970   5.137   2.402  1.0426 -0.9864  1.3776
13771TIP3    H262729   2.958   5.018   2.310  0.3416 -0.6887  1.0800
13772TIP3   OH262730   0.513   0.078   2.511  0.7431  0.2244  0.4446
13772TIP3    H162731   0.585   0.017   2.496  1.1282  0.5043  1.1267
13772TIP3    H262732   0.456   0.033   2.573  1.8585  1.1866  2.2308
13773TIP3   OH262733   4.630   3.059   4.097  0.2994 -0.0993 -0.0634
13773TIP3    H162734   4.561   3.082   4.035  0.8857  1.2763 -0.2399
13773TIP3    H262735   4.586   3.054   4.182  0.1957  2.3452  0.0936
13774TIP3   OH262736   3.781   5.746  16.705  0.7359  0.1765 -0.2812
13774TIP3    H162737   3.818   5.745  16.617  0.4864 -0.5380 -0.3841
13774TIP3    H262738   3.694   5.784  16.694  0.9292  0.6363 -0.2476
13775TIP3   OH262739   0.573   3.775   6.124 -0.1131 -0.2592  0.1392
13775TIP3    H162740   0.550   3.758   6.216 -1.6532 -0.8979 -0.3233
13775TIP3    H262741   0.498   3.741   6.075  0.3583  0.7448 -1.3183
13776TIP3   OH262742   2.775   3.680   3.499  0.2905 -0.4727  0.1435
13776TIP3    H162743   2.716   3.748   3.466 -0.3593 -1.1414 -0.1106
13776TIP3    H262744   2.844   3.728   3.545 -0.2794  0.3434  0.1692
13777TIP3   OH262745   5.165   2.507   1.507  0.0334 -0.2945  0.3245
13777TIP3    H162746   5.104   2.460   1.564 -3.4466  2.2287 -1.0006
13777TIP3    H262747   5.110   2.544   1.438  3.2760  1.3474 -1.6333
13778TIP3   OH262748   4.376   4.338  14.181  0.1980 -0.4380 -0.1971
13778TIP3    H162749   4.368   4.391  14.261 -2.6070 -2.7056  1.1729
13778TIP3    H262750   4.445   4.275  14.201  0.5208 -0.0860 -0.1736
13779TIP3   OH262751   4.377   4.535   2.360 -0.3433  0.7658  0.4206
13779TIP3    H162752   4.427   4.615   2.342 -0.0490  0.7081  0.9501
13779TIP3    H262753   4.423   4.467   2.311 -0.6126  0.9222 -0.0577
13780TIP3   OH262754   1.076   1.589  13.789  0.1581 -0.5994 -0.2177
13780TIP3    H162755   1.106   1.552  13.871 -0.2858 -0.2052  0.1339
13780TIP3    H262756   0.980   1.592  13.798  0.1762  0.6570 -0.2029
13781TIP3   OH262757   0.060   1.310  12.700 -0.0561 -0.1300 -0.2595
13781TIP3    H162758  -0.020   1.345  12.740 -0.3295 -0.9294 -0.0878
13781TIP3    H262759   0.100   1.257  12.770  1.1406  1.0253 -0.0158
13782TIP3   OH262760   4.349   6.653  14.010 -0.4153  0.1597 -0.4537
13782TIP3    H162761   4.426   6.686  14.056  1.2068 -1.4179 -1.9098
13782TIP3    H262762   4.333   6.566  14.049 -0.2317 -0.3550 -1.4987
13783TIP3   OH262763   1.828   4.480  13.926 -0.2307  0.2177 -0.7366
13783TIP3    H162764   1.893   4.460  13.993  1.9919 -0.7169 -3.0158
13783TIP3    H262765   1.795   4.394  13.898 -3.0651  0.6834  0.8257
13784TIP3   OH262766   1.629   1.192   3.108 -0.2057  0.6130 -0.8207
13784TIP3    H162767   1.619   1.256   3.178 -1.4492  1.6108 -1.8771
13784TIP3    H262768   1.612   1.240   3.027 -0.3174 -0.8456 -1.7157
13785TIP3   OH262769   1.896   2.922   2.777 -0.4799  0.1238 -0.5297
13785TIP3    H162770   1.931   3.001   2.738 -0.5279  0.2968 -0.2251
13785TIP3    H262771   1.955   2.852   2.749  0.3670  0.4691  0.3322
13786TIP3   OH262772   2.105   1.329  10.832 -0.2267 -0.2245 -0.4766
13786TIP3    H162773   2.079   1.383  10.906  0.3392  1.3559 -1.3810
13786TIP3    H262774   2.037   1.344  10.766 -1.2418 -2.3518  0.0085
13787TIP3   OH262775   6.401   5.850  15.433 -0.0200  0.1694 -0.6909
13787TIP3    H162776   6.358   5.908  15.370 -0.1302  0.2834 -0.5130
13787TIP3    H262777   6.444   5.909  15.495 -0.3583  0.0725 -0.3520
13788TIP3   OH262778   5.592   3.153  13.269  0.4945 -0.1214  0.4484
13788TIP3    H162779   5.509   3.157  13.222 -0.5565 -0.7696  2.1534
13788TIP3    H262780   5.651   3.210  13.220 -0.8519  0.0879 -0.9889
13789TIP3   OH262781   5.672   4.011   1.136 -0.2415  0.6649  0.2914
13789TIP3    H162782   5.737   3.943   1.155  1.4160  1.6399 -1.6316
13789TIP3    H262783   5.628   3.980   1.057 -0.6520  1.0442  0.3696
13790TIP3   OH262784   2.987   2.211   3.285 -0.1878 -0.4085 -0.1047
13790TIP3    H162785   3.055   2.270   3.317 -0.3360 -0.3469  0.0995
13790TIP3    H262786   3.020   2.123   3.304 -0.2820 -0.3713  0.2303
13791TIP3   OH262787   6.514   3.921  16.678  0.0105  0.2254  0.0784
13791TIP3    H162788   6.590   3.903  16.733  0.3524  1.4932  0.0614
13791TIP3    H262789   6.551   3.939  16.592 -0.6310 -4.1595 -1.3897
13792TIP3   OH262790   5.130   1.852  12.588  0.2843 -0.0525 -0.4041
13792TIP3    H162791   5.119   1.794  12.513  2.5566 -1.6912  0.4277
13792TIP3    H262792   5.155   1.936  12.550 -0.7177 -0.2312 -1.5244
13793TIP3   OH262793   6.504   5.538  11.921 -0.1504 -0.1082 -0.1308
13793TIP3    H162794   6.500   5.465  11.983 -1.1366  0.4951  0.5449
13793TIP3    H262795   6.573   5.595  11.955 -0.5223  0.0991  0.2941
13794TIP3   OH262796   3.419   5.676  13.995 -0.6381 -0.5500  0.5696
13794TIP3    H162797   3.486   5.621  13.954 -1.2911 -0.9482  0.0280
13794TIP3    H262798   3.452   5.765  13.986 -0.0023 -0.7727  0.6451
13795TIP3   OH262799   5.537   5.069  13.990 -0.4251  0.1413  0.8657
13795TIP3    H162800   5.607   5.075  14.055  0.8188 -0.5389 -0.3617
13795TIP3    H262801   5.559   4.992  13.937 -0.5546  1.4969 -1.3033
13796TIP3   OH262802   3.868   0.397   4.562  0.4712  0.0536 -0.3646
13796TIP3    H162803   3.914   0.478   4.587 -1.9855  1.7691 -0.9702
13796TIP3    H262804   3.938   0.334   4.545  2.4870  1.3674  2.1886
13797TIP3   OH262805   6.303   4.901  14.682  0.7614  0.0547 -0.5394
13797TIP3    H162806   6.288   4.995  14.684  0.1479 -0.0101 -1.5483
13797TIP3    H262807   6.216   4.862  14.687  0.7594 -0.3950 -3.0653
13798TIP3   OH262808   4.480   5.263  13.652 -0.4439  0.4536 -0.1605
13798TIP3    H162809   4.473   5.222  13.565 -1.5848 -1.1323  0.6361
13798TIP3    H262810   4.573   5.262  13.671 -0.3006 -0.4324 -0.8181
13799TIP3   OH262811   3.956   1.337   4.835  0.3857 -0.2280 -0.1933
13799TIP3    H162812   3.884   1.277   4.816  1.2476 -1.2704 -0.2647
13799TIP3    H262813   3.920   1.424   4.819 -1.3327 -0.6132  1.2721
13800TIP3   OH262814   6.425   0.178   4.128 -0.3034 -0.1952  0.6953
13800TIP3    H162815   6.352   0.116   4.126 -1.2353  0.8669  0.6278
13800TIP3    H262816   6.488   0.138   4.187 -2.0679  0.0517  2.8677
13801TIP3   OH262817   0.329   1.592  16.855  0.0081  0.1539 -0.0615
13801TIP3    H162818   0.320   1.564  16.764 -1.9105  1.7192 -0.4392
13801TIP3    H262819   0.285   1.524  16.905  2.3282 -1.4551 -0.0971
13802TIP3   OH262820   0.656   6.746  11.493  0.4694 -0.3799 -0.0260
13802TIP3    H162821   0.586   6.722  11.553  0.9049 -0.3176  0.5214
13802TIP3    H262822   0.630   6.832  11.459 -0.7620 -1.2968 -1.4771
13803TIP3   OH262823   0.199   2.961   3.176  0.3941  0.2601 -0.2512
13803TIP3    H162824   0.254   2.889   3.206 -0.0684  0.0009 -0.0230
13803TIP3    H262825   0.109   2.929   3.185  0.2305  0.1362 -1.9777
13804TIP3   OH262826   5.886   4.046  15.341 -0.3047  0.6345 -0.0477
13804TIP3    H162827   5.914   4.068  15.253 -1.7370 -0.1216 -0.7257
13804TIP3    H262828   5.911   4.121  15.394  1.1054  0.8573 -0.9612
13805TIP3   OH262829   5.015   4.040   4.860 -0.1718  0.2594  0.5205
13805TIP3    H162830   5.028   4.057   4.953 -2.1736  2.0510  0.5470
13805TIP3    H262831   4.935   4.088   4.838  1.6019  2.0590 -2.7216
13806TIP3   OH262832   0.047   6.134  15.997 -0.0660 -0.4391 -0.0935
13806TIP3    H162833   0.032   6.223  15.966  2.5433  1.3395  3.0591
13806TIP3    H262834   0.003   6.131  16.083 -0.6292 -2.4503 -0.3900
13807TIP3   OH262835   4.934   6.374   5.300  0.5654  0.3271  0.3034
13807TIP3    H162836   4.935   6.466   5.326 -0.7719  0.3878  0.2122
13807TIP3    H262837   5.027   6.351   5.288  0.9180  1.6247  0.4095
13808TIP3   OH262838   3.645   1.674   3.220 -0.1125 -0.1988 -0.4806
13808TIP3    H162839   3.663   1.610   3.151 -1.6628 -1.0853 -0.1337
13808TIP3    H262840   3.550   1.669   3.231  0.0811  0.0139  1.6185
13809TIP3   OH262841   1.051   0.745   0.237  0.3007 -0.1519 -0.5913
13809TIP3    H162842   1.125   0.685   0.229  1.6315  1.3975 -0.5058
13809TIP3    H262843   0.977   0.697   0.200  0.4409 -3.1661  2.5275
13810TIP3   OH262844   2.548   4.517  16.291 -0.3004 -0.0954  0.0202
13810TIP3    H162845   2.482   4.484  16.352 -0.3039 -0.6397 -0.2758
13810TIP3    H262846   2.583   4.596  16.334  0.6851 -1.2234  1.3991
13811TIP3   OH262847   2.478   2.346   2.180 -0.1878 -0.1962 -0.0179
13811TIP3    H162848   2.548   2.389   2.228 -1.5717  1.6690  0.4430
13811TIP3    H262849   2.408   2.334   2.244 -0.7623 -0.8808 -0.7541
13812TIP3   OH262850   4.588   0.404   1.014  0.2211  0.1983  0.1157
13812TIP3    H162851   4.531   0.353   0.955  1.0447 -2.1748  1.2530
13812TIP3    H262852   4.646   0.452   0.955 -0.3979 -0.3975 -1.0286
13813TIP3   OH262853   2.031   0.029   5.444 -0.1049  0.5529  0.2559
13813TIP3    H162854   2.007  -0.064   5.440  0.2381  0.5009 -1.1362
13813TIP3    H262855   1.947   0.075   5.435 -0.0310  0.3617 -1.8647
13814TIP3   OH262856   6.427   3.624  15.541 -0.1112 -0.2239  0.4091
13814TIP3    H162857   6.481   3.560  15.589  0.0469 -0.3276  0.0964
13814TIP3    H262858   6.491   3.684  15.502 -0.3076  1.2393  2.2150
13815TIP3   OH262859   5.754   6.281  12.353 -0.2596  0.2665 -0.0728
13815TIP3    H162860   5.821   6.240  12.298 -0.1751  1.4103 -0.8480
13815TIP3    H262861   5.687   6.212  12.363  1.0513 -0.9328  0.8287
13816TIP3   OH262862   5.587   0.022   1.837  0.2238  0.2323  0.0848
13816TIP3    H162863   5.594   0.117   1.821  1.1703  0.1286 -0.1993
13816TIP3    H262864   5.676  -0.004   1.863  0.6685 -1.0014 -2.3282
13817TIP3   OH262865   0.901   4.004   1.762 -0.3444 -0.6834  0.3785
13817TIP3    H162866   0.883   3.911   1.764  0.3740 -0.9149 -1.5036
13817TIP3    H262867   0.971   4.017   1.826 -1.7586 -1.0719  2.0567
13818TIP3   OH262868   5.908   4.016   6.157  0.0575 -0.8295 -0.3422
13818TIP3    H162869   5.839   4.041   6.095 -0.4086 -1.7005 -0.1880
13818TIP3    H262870   5.862   3.987   6.235  0.6523  1.1043  0.7927
13819TIP3   OH262871   3.563   1.283   2.824  0.1214 -0.1538 -0.0403
13819TIP3    H162872   3.567   1.346   2.751  1.0189  1.1801  1.0988
13819TIP3    H262873   3.651   1.285   2.862 -0.0839 -1.4929  0.5516
13820TIP3   OH262874   5.305   1.009   4.162  0.4608  0.2620 -0.2799
13820TIP3    H162875   5.357   1.081   4.127  0.4231 -0.2649 -1.4637
13820TIP3    H262876   5.353   0.980   4.239  0.7242  1.2373 -0.0601
13821TIP3   OH262877   2.735   5.157  13.518 -0.6317 -0.7675 -0.5668
13821TIP3    H162878   2.806   5.200  13.471 -0.3418 -0.1001  0.4310
13821TIP3    H262879   2.755   5.064  13.513  0.3168 -0.5853 -0.3141
13822TIP3   OH262880   4.361   5.953  15.422  0.1961 -0.0653  0.2551
13822TIP3    H162881   4.393   6.043  15.428 -0.8318  0.2813  0.8228
13822TIP3    H262882   4.332   5.932  15.511 -0.1312 -0.7402 -0.0062
13823TIP3   OH262883   3.397   6.232   0.532  0.4351  0.2532  0.6936
13823TIP3    H162884   3.348   6.313   0.514  0.3492 -0.0092 -0.3045
13823TIP3    H262885   3.488   6.261   0.539  0.5463  0.3254 -0.6935
13824TIP3   OH262886   6.029   1.623  15.674 -0.5110  0.0407 -0.0812
13824TIP3    H162887   5.972   1.552  15.705  0.9673 -0.3943  1.8335
13824TIP3    H262888   6.075   1.652  15.752  1.3628  0.8649 -1.4267
13825TIP3   OH262889   4.222   4.350   4.315  0.2142 -0.1780 -0.1566
13825TIP3    H162890   4.216   4.256   4.297  1.1981 -0.2346 -0.2691
13825TIP3    H262891   4.241   4.389   4.230  1.9712 -0.1310  0.2046
13826TIP3   OH262892   2.813   0.835   0.151 -0.3702 -0.4554  0.6785
13826TIP3    H162893   2.775   0.874   0.229  0.5359 -2.0996  2.0054
13826TIP3    H262894   2.901   0.807   0.178  0.4680  0.1072 -1.3016
13827TIP3   OH262895   2.250   3.500  14.600  0.0553 -0.5157 -0.3010
13827TIP3    H162896   2.328   3.553  14.585 -0.5751  0.5571  0.1581
13827TIP3    H262897   2.280   3.431  14.659  0.1387  1.2937  1.9056
13828TIP3   OH262898   4.844   6.413   2.056 -0.6095  0.2661  0.0301
13828TIP3    H162899   4.922   6.433   2.108 -1.7742  2.0222  1.1986
13828TIP3    H262900   4.812   6.498   2.026 -2.2878 -0.3640 -0.0905
13829TIP3   OH262901   4.283   2.793  12.978  0.3859  0.7075 -0.3718
13829TIP3    H162902   4.323   2.877  12.954 -1.5434  1.2725 -1.8967
13829TIP3    H262903   4.355   2.730  12.974  1.8332  2.2356  0.5875
13830TIP3   OH262904   5.211   2.673  13.057 -0.1463  0.2217 -0.0777
13830TIP3    H162905   5.209   2.600  13.119 -3.0917  0.9755  0.8838
13830TIP3    H262906   5.122   2.676  13.021 -0.0676  3.1212 -0.2692
13831TIP3   OH262907   6.455   0.362  13.054  0.0366  0.1260 -0.1126
13831TIP3    H162908   6.399   0.345  12.979 -0.5587  1.6311 -0.0545
13831TIP3    H262909   6.468   0.276  13.095  0.5129 -0.7448 -1.9996
13832TIP3   OH262910   5.273   4.247  14.003  0.2995 -0.0714 -0.5693
13832TIP3    H162911   5.181   4.235  14.028  0.0300  1.6154 -0.5708
13832TIP3    H262912   5.309   4.159  13.998 -1.1542 -0.7361  0.0743
13833TIP3   OH262913   2.128   6.511  12.067 -0.2376 -0.0233 -0.1201
13833TIP3    H162914   2.099   6.550  12.149  0.6837  0.3477  0.0416
13833TIP3    H262915   2.048   6.481  12.025 -0.6934 -0.4758  1.0445
13834TIP3   OH262916   6.538   1.903  14.793 -0.4053  0.4456  0.4244
13834TIP3    H162917   6.633   1.893  14.788 -0.6558 -2.0879 -0.7920
13834TIP3    H262918   6.525   1.991  14.827  2.3711  0.6201  1.2597
13835TIP3   OH262919   5.112   6.168  16.353  0.3130  0.2212 -0.8391
13835TIP3    H162920   5.050   6.173  16.280  1.0868  0.6499 -1.4831
13835TIP3    H262921   5.147   6.257  16.361 -0.0265  0.2641  0.2923
13836TIP3   OH262922   5.162   0.446  14.578 -0.0291  0.4034 -0.1007
13836TIP3    H162923   5.200   0.391  14.509 -0.4960  0.5670 -0.4904
13836TIP3    H262924   5.079   0.405  14.599  0.5390 -0.2028  1.0625
13837TIP3   OH262925   2.574   1.654  11.883  0.6156  0.0513 -0.2994
13837TIP3    H162926   2.562   1.575  11.830 -3.0502 -1.4033  2.2396
13837TIP3    H262927   2.534   1.724  11.831 -0.1776 -0.7041 -0.7361
13838TIP3   OH262928   3.332   6.215   2.372 -0.4167  0.0812  0.6750
13838TIP3    H162929   3.414   6.219   2.421  0.0614  0.2342 -0.1303
13838TIP3    H262930   3.300   6.126   2.387  0.6048 -0.4416 -0.1279
13839TIP3   OH262931   0.060   4.824  11.322 -0.1258  0.2668 -0.2167
13839TIP3    H162932   0.034   4.914  11.301 -0.4638  0.0886 -0.5677
13839TIP3    H262933   0.050   4.776  11.240 -0.9633 -0.3252  0.2122
13840TIP3   OH262934   6.177   0.012   4.139  0.7808  1.1380  0.5675
13840TIP3    H162935   6.114   0.072   4.179 -0.7780 -0.0148 -0.0573
13840TIP3    H262936   6.177  -0.065   4.196 -0.1312  0.2021 -0.6287
13841TIP3   OH262937   3.374   5.164  12.418  0.5235  0.3887  0.0711
13841TIP3    H162938   3.329   5.103  12.360  0.2357 -0.7218  1.4112
13841TIP3    H262939   3.304   5.222  12.451 -0.4644 -2.4074  3.5103
13842TIP3   OH262940   4.201   2.531   4.793  0.5666  0.4765 -0.0891
13842TIP3    H162941   4.272   2.484   4.834  0.4950 -0.5605 -1.1094
13842TIP3    H262942   4.217   2.623   4.816  0.8374  0.0162  1.7236
13843TIP3   OH262943   1.098   0.145  10.940 -0.1842 -0.2518  0.4044
13843TIP3    H162944   1.065   0.184  11.021 -0.1608 -0.1650  0.3726
13843TIP3    H262945   1.020   0.120  10.891 -0.1931 -1.1291  0.8455
13844TIP3   OH262946   2.487   1.142   2.257 -0.3659 -0.6706 -0.0308
13844TIP3    H162947   2.555   1.180   2.312 -1.1605 -0.2373  0.6866
13844TIP3    H262948   2.447   1.074   2.312 -0.3385 -1.0999 -0.5372
13845TIP3   OH262949   3.920   2.252   1.092 -0.1465  0.0882  0.1196
13845TIP3    H162950   3.944   2.264   1.000 -2.1626  0.4285 -0.4166
13845TIP3    H262951   3.950   2.165   1.115 -0.5592 -0.4187 -1.2088
13846TIP3   OH262952   0.334   2.598  12.295  0.4941 -0.5432 -0.3195
13846TIP3    H162953   0.360   2.690  12.301  0.8298 -0.6742  0.2586
13846TIP3    H262954   0.249   2.600  12.252  0.4798  0.0393 -0.2691
13847TIP3   OH262955   3.256   0.351   0.516  0.0923 -0.4211 -0.4919
13847TIP3    H162956   3.190   0.409   0.476 -0.1643 -0.6853 -0.4603
13847TIP3    H262957   3.311   0.409   0.567 -0.6968 -0.3028  0.2520
13848TIP3   OH262958   1.005   3.705   5.305  0.3260 -0.0726 -0.4096
13848TIP3    H162959   0.939   3.751   5.253  0.0020 -0.9218 -0.7688
13848TIP3    H262960   0.956   3.637   5.352  0.7693  0.0526  0.2413
13849TIP3   OH262961   0.059   2.669   4.632  0.6243 -0.2103 -0.3808
13849TIP3    H162962   0.072   2.576   4.650 -0.0735 -0.0941  0.7865
13849TIP3    H262963   0.122   2.714   4.688  0.2244  0.0576 -0.1423
13850TIP3   OH262964   2.582   1.120  17.224 -0.5186  0.3407 -0.1740
13850TIP3    H162965   2.659   1.165  17.190  0.5707 -1.2690  0.0610
13850TIP3    H262966   2.565   1.161  17.309  0.4551  0.2979  0.0471
13851TIP3   OH262967   3.238   0.096   4.543 -0.4710  0.1274 -0.8812
13851TIP3    H162968   3.253   0.049   4.461 -0.7528 -0.1724 -0.7626
13851TIP3    H262969   3.325   0.122   4.572 -0.2600 -0.7640 -0.6896
13852TIP3   OH262970   5.912   2.850   3.529 -0.1436 -0.4890  0.0955
13852TIP3    H162971   5.981   2.847   3.462 -1.0607  1.2948 -1.0020
13852TIP3    H262972   5.856   2.775   3.509  0.4305 -0.8488 -0.1969
13853TIP3   OH262973   5.678   6.643  13.109 -0.0475  0.2415  0.0472
13853TIP3    H162974   5.731   6.709  13.064  0.7001 -0.3347  0.0732
13853TIP3    H262975   5.735   6.608  13.177 -1.1702  1.1087  1.4970
13854TIP3   OH262976   4.224   5.043   0.777 -0.1793  0.2250  0.0237
13854TIP3    H162977   4.289   5.109   0.755 -2.4161  2.0791 -1.5992
13854TIP3    H262978   4.157   5.092   0.827 -1.8807 -0.7611 -1.1857
13855TIP3   OH262979   0.204   6.376  15.754 -0.4854 -0.1770 -0.1999
13855TIP3    H162980   0.139   6.420  15.700  1.4216  1.1377 -1.5768
13855TIP3    H262981   0.189   6.409  15.842 -1.4360  0.3558 -0.5486
13856TIP3   OH262982   1.219   3.682  15.891  0.1653 -0.4374  0.1287
13856TIP3    H162983   1.266   3.766  15.883 -0.4813  0.1041  1.5920
13856TIP3    H262984   1.283   3.624  15.932  0.9122 -0.9632 -1.6811
13857TIP3   OH262985   4.436   4.766  16.291  0.2590  0.2453  0.4392
13857TIP3    H162986   4.447   4.710  16.215 -1.1901  0.7693 -0.1944
13857TIP3    H262987   4.421   4.853  16.255  2.0724  1.0047  1.3972
13858TIP3   OH262988   3.630   5.555   2.713 -0.7578  0.4308 -0.2629
13858TIP3    H162989   3.642   5.493   2.641 -0.3306 -0.2455  0.3750
13858TIP3    H262990   3.719   5.582   2.736 -0.8476  0.1652  0.4110
13859TIP3   OH262991   4.994   5.880  17.076  0.1425 -0.3837 -0.0532
13859TIP3    H162992   5.039   5.834  17.005 -1.6810 -3.1230  0.3932
13859TIP3    H262993   4.926   5.931  17.032 -0.3949 -1.3474 -0.3727
13860TIP3   OH262994   3.582   6.650  13.275 -0.4115 -0.1320  0.6378
13860TIP3    H162995   3.492   6.678  13.264 -0.4097  0.3675  1.7569
13860TIP3    H262996   3.625   6.723  13.319  0.6368 -0.2130 -0.2127
13861TIP3   OH262997   5.233   6.002  10.385 -1.2860  0.4699 -0.3376
13861TIP3    H162998   5.293   5.942  10.339 -0.6086  1.1549 -0.3719
13861TIP3    H262999   5.209   5.955  10.465 -0.9717  0.0378 -0.4935
13862TIP3   OH263000   5.670   1.507   0.292  0.2281  0.0909 -0.5098
13862TIP3    H163001   5.754   1.543   0.263  0.7580 -0.7205 -0.0251
13862TIP3    H263002   5.660   1.426   0.242  0.5864 -0.7140  0.6953
13863TIP3   OH263003   3.320   1.667   0.322  0.1719 -0.0179 -0.2383
13863TIP3    H163004   3.245   1.725   0.310  0.0912  0.2991  1.5272
13863TIP3    H263005   3.292   1.584   0.284 -1.5113 -0.2057  1.2969
13864TIP3   OH263006   6.752   2.993   1.478  0.1307  0.2029 -0.5241
13864TIP3    H163007   6.805   3.005   1.557 -0.5743 -1.3090  0.2130
13864TIP3    H263008   6.678   3.052   1.490 -0.5751 -0.8637  0.5212
13865TIP3   OH263009   4.507   0.084   5.410 -0.5562  0.2991 -0.2280
13865TIP3    H163010   4.562   0.102   5.486 -0.9276  0.2477  0.0553
13865TIP3    H263011   4.558   0.116   5.335  0.2082 -0.4860 -0.0533
13866TIP3   OH263012   6.277   1.737   3.477 -0.2453 -0.1319 -0.2719
13866TIP3    H163013   6.280   1.656   3.426 -0.7544 -0.4357  0.1736
13866TIP3    H263014   6.326   1.717   3.556 -1.3633 -0.3975  0.3759
13867TIP3   OH263015   3.786   5.684  12.834  0.1865 -0.3945 -0.6002
13867TIP3    H163016   3.749   5.761  12.791 -1.2321 -0.2627  0.7938
13867TIP3    H263017   3.713   5.624  12.844  1.4062 -2.3209 -2.3364
13868TIP3   OH263018   0.333   2.089  11.312  0.4550 -0.1987 -0.0967
13868TIP3    H163019   0.410   2.108  11.365 -1.4979  5.2370  1.5280
13868TIP3    H263020   0.331   2.158  11.246 -1.8153 -1.5787 -1.6407
13869TIP3   OH263021   1.248   2.768  14.183  0.1746 -0.1333  0.0887
13869TIP3    H163022   1.318   2.712  14.216  0.2870  0.0508  0.1649
13869TIP3    H263023   1.197   2.712  14.125  0.7548 -0.0897 -0.4604
13870TIP3   OH263024   1.764   3.191   4.577  0.1203 -0.4111 -0.1763
13870TIP3    H163025   1.715   3.143   4.644  2.3204 -1.3267  0.8798
13870TIP3    H263026   1.798   3.123   4.519  0.4598  0.1536 -0.6517
13871TIP3   OH263027   3.310   6.680  12.740  0.1573 -0.5283  0.2737
13871TIP3    H163028   3.238   6.738  12.714  0.0522 -0.6565  0.2791
13871TIP3    H263029   3.322   6.698  12.833  0.1338 -0.5040  0.2718
13872TIP3   OH263030   1.009   5.741   5.059  0.2921  0.1404 -0.0981
13872TIP3    H163031   1.094   5.700   5.076  0.7077  0.8138 -0.5468
13872TIP3    H263032   0.951   5.667   5.039  0.8019 -0.3111  0.0622
13873TIP3   OH263033   3.304   4.299  13.390 -0.5520 -0.2998 -0.1611
13873TIP3    H163034   3.313   4.390  13.363 -2.2976 -0.3852 -1.2197
13873TIP3    H263035   3.322   4.299  13.484 -0.8151  1.1807 -0.0962
13874TIP3   OH263036   3.736   6.342   5.368 -0.6991 -0.5070  0.5168
13874TIP3    H163037   3.769   6.264   5.414  1.9910  1.0684  1.5220
13874TIP3    H263038   3.746   6.413   5.431 -2.5374  0.7843 -0.5614
13875TIP3   OH263039   2.207   4.134  15.626  0.1696 -0.2296 -0.2484
13875TIP3    H163040   2.136   4.197  15.616  1.0641  1.0629  1.0518
13875TIP3    H263041   2.232   4.111  15.537  0.0205  1.5274 -0.7855
13876TIP3   OH263042   4.348   5.851   1.752  0.0590 -0.3289 -0.2521
13876TIP3    H163043   4.356   5.842   1.847 -1.2184 -3.3790 -0.3402
13876TIP3    H263044   4.437   5.834   1.719  0.1553 -0.9986  0.3248
13877TIP3   OH263045   0.649   5.477  13.972 -0.3344 -0.5472 -0.3249
13877TIP3    H163046   0.740   5.477  13.943  1.1123 -2.6034  3.5941
13877TIP3    H263047   0.638   5.561  14.017 -1.0489  0.4514 -2.2148
13878TIP3   OH263048   4.171   2.328   2.274  0.1315 -0.4699  0.0712
13878TIP3    H163049   4.150   2.421   2.266  1.8124 -0.1754 -1.7219
13878TIP3    H263050   4.230   2.323   2.350 -1.1338 -0.3420  1.0945
13879TIP3   OH263051   1.139   2.933  13.207  0.4565  0.1106  0.2632
13879TIP3    H163052   1.180   2.849  13.228 -0.1308  0.0436  1.2185
13879TIP3    H263053   1.137   2.936  13.111  1.0017 -0.7031  0.2183
13880TIP3   OH263054   4.999   2.462  16.612  0.3326  0.0989 -0.1835
13880TIP3    H163055   5.008   2.370  16.636  0.6273 -0.1926 -1.3243
13880TIP3    H263056   4.906   2.481  16.622 -0.0404 -0.8118 -1.5016
13881TIP3   OH263057   3.413   4.773  11.163  0.6512  0.2703  0.4260
13881TIP3    H163058   3.484   4.801  11.105 -0.1902  1.9059  0.1433
13881TIP3    H263059   3.415   4.835  11.235  0.2449 -0.3798  1.0083
13882TIP3   OH263060   5.574   5.364  13.156  0.5865 -0.6345  0.0601
13882TIP3    H163061   5.487   5.346  13.192  0.1773  1.5028  0.2734
13882TIP3    H263062   5.632   5.303  13.202 -0.6465 -1.4061  0.6521
13883TIP3   OH263063   1.609   3.722   4.774 -0.5859  0.6583 -0.0423
13883TIP3    H163064   1.654   3.639   4.787 -1.2876 -0.1138 -2.1263
13883TIP3    H263065   1.530   3.715   4.827 -0.9640 -0.3047 -0.7064
13884TIP3   OH263066   2.015   1.955  13.071  0.2316  0.5059 -0.1534
13884TIP3    H163067   1.922   1.934  13.067  0.3518  0.1145 -1.2700
13884TIP3    H263068   2.026   2.028  13.010  0.8509 -0.2664 -0.9960
13885TIP3   OH263069   0.661   4.658  11.369  0.0739  0.1778 -0.4338
13885TIP3    H163070   0.587   4.637  11.312 -0.4153 -0.4589  0.4130
13885TIP3    H263071   0.710   4.725  11.321 -0.2430 -0.4444 -1.6606
13886TIP3   OH263072   5.226   1.891  16.227  0.4652  1.0133 -0.0106
13886TIP3    H163073   5.257   1.800  16.234 -0.1565  0.8219  0.2780
13886TIP3    H263074   5.250   1.917  16.138  1.2541  0.7951  0.1306
13887TIP3   OH263075   0.419   1.056   5.972 -0.0838  0.0945 -0.0630
13887TIP3    H163076   0.508   1.035   5.998 -0.9411 -2.0343  1.4318
13887TIP3    H263077   0.382   1.104   6.046 -0.4149  0.3405 -0.3762
13888TIP3   OH263078   0.030   0.606  14.710 -0.6516 -0.1397  0.1237
13888TIP3    H163079   0.029   0.651  14.625  0.0641 -1.9294 -0.9075
13888TIP3    H263080   0.007   0.673  14.773 -0.0961  1.5383 -1.3658
13889TIP3   OH263081   5.822   3.733   5.601 -0.1489 -0.3500  0.3687
13889TIP3    H163082   5.840   3.770   5.687 -2.7618  0.3951  0.6812
13889TIP3    H263083   5.797   3.642   5.618 -0.0873 -0.3740  0.3305
13890TIP3   OH263084   6.000   0.337  11.979  0.0750 -0.3705 -0.2707
13890TIP3    H163085   5.997   0.246  11.949 -1.0912 -1.1567  2.0270
13890TIP3    H263086   6.076   0.341  12.036  0.6017  0.3491 -0.9997
13891TIP3   OH263087   1.735   6.108  16.192  0.2546  0.3928 -0.3221
13891TIP3    H163088   1.711   6.081  16.103  0.3509  1.1455 -0.5852
13891TIP3    H263089   1.663   6.165  16.220  1.1835  1.8365 -0.7261
13892TIP3   OH263090   4.034   6.297   4.381  0.3847  0.2157  0.5751
13892TIP3    H163091   4.081   6.251   4.451  1.8350 -1.6766 -1.4865
13892TIP3    H263092   4.044   6.390   4.402  0.8039 -0.2649  2.7990
13893TIP3   OH263093   1.399   4.412  13.807 -0.2160  0.3656  0.5065
13893TIP3    H163094   1.326   4.351  13.800 -1.1899  1.4850  0.6685
13893TIP3    H263095   1.441   4.408  13.721  0.5500 -1.4884  0.9193
13894TIP3   OH263096   4.207   2.720   5.528  0.2384  0.1122  0.3160
13894TIP3    H163097   4.201   2.644   5.470 -0.2764  0.2368  0.1988
13894TIP3    H263098   4.150   2.786   5.488  1.3246  0.8630 -0.0348
13895TIP3   OH263099   4.758   3.305   3.409 -0.3719 -0.9677 -0.3841
13895TIP3    H163100   4.766   3.344   3.496 -0.9599  0.7788 -1.0701
13895TIP3    H263101   4.823   3.236   3.408 -0.3856 -1.0600  1.4582
13896TIP3   OH263102   6.017   3.910  17.164  0.5672  0.0942  0.0868
13896TIP3    H163103   5.923   3.922  17.180 -0.3530 -2.8996 -2.1472
13896TIP3    H263104   6.048   3.996  17.139 -1.3741  1.3334  1.6248
13897TIP3   OH263105   6.423   2.493   5.332 -0.0171 -0.6327  0.4093
13897TIP3    H163106   6.369   2.528   5.262  0.3908 -0.9557 -0.0685
13897TIP3    H263107   6.376   2.517   5.412 -0.0325  0.5187  0.0780
13898TIP3   OH263108   0.336   0.342  16.337  0.0723  0.5969 -0.6367
13898TIP3    H163109   0.323   0.432  16.369  0.6528  0.5603 -0.2976
13898TIP3    H263110   0.247   0.310  16.321 -0.5675 -0.3561  3.5996
13899TIP3   OH263111   5.258   1.538   2.280  0.3494  0.3055  0.1826
13899TIP3    H163112   5.273   1.577   2.366 -1.0892  0.9911  0.1652
13899TIP3    H263113   5.203   1.602   2.234  1.4963  0.1975 -1.4501
13900TIP3   OH263114   0.229   5.154   2.056 -0.3727  0.0250 -0.0515
13900TIP3    H163115   0.152   5.099   2.075 -0.6572  0.5237  0.2557
13900TIP3    H263116   0.219   5.230   2.113  0.3185  0.1312 -0.0634
13901TIP3   OH263117   2.894   2.286  11.231 -0.1948 -0.1337  0.1783
13901TIP3    H163118   2.934   2.217  11.284  2.8838  0.4302 -1.2231
13901TIP3    H263119   2.832   2.239  11.175 -0.3055 -1.3186  1.2267
13902TIP3   OH263120   0.474   3.273  11.987  0.5919  0.2653 -0.1322
13902TIP3    H163121   0.484   3.245  12.078  1.0839  1.1203  0.0918
13902TIP3    H263122   0.562   3.270  11.951  1.0035  3.0283  0.3883
13903TIP3   OH263123   2.609   3.964  16.163 -0.6975 -0.0026  0.8229
13903TIP3    H163124   2.546   3.894  16.143 -2.5822  0.7591  3.5386
13903TIP3    H263125   2.573   4.041  16.117  0.7997 -0.4938 -1.2963
13904TIP3   OH263126   0.356   4.220  13.658  0.6326  0.4066 -0.0792
13904TIP3    H163127   0.333   4.133  13.692 -0.6616  1.7402  2.7837
13904TIP3    H263128   0.271   4.263  13.642  1.2392  1.5999 -0.2025
13905TIP3   OH263129   1.967   5.495   3.360  0.2757 -0.0479  0.0783
13905TIP3    H163130   1.963   5.410   3.404  0.7444  0.5800  1.3963
13905TIP3    H263131   2.044   5.538   3.398 -0.1161  1.0636 -0.3553
13906TIP3   OH263132   1.328   1.256  12.768  0.6852 -0.4258  0.4562
13906TIP3    H163133   1.346   1.221  12.681  1.0796  3.2672 -1.1295
13906TIP3    H263134   1.237   1.234  12.785  0.6684 -1.3901 -0.7676
13907TIP3   OH263135   1.160   0.518   0.796  0.1056 -0.2146  0.3273
13907TIP3    H163136   1.078   0.567   0.797 -0.0932 -0.4620 -1.1709
13907TIP3    H263137   1.139   0.434   0.836  0.0806  0.3474  1.5344
13908TIP3   OH263138   1.956   3.290   1.865  0.4561  0.2697 -0.2443
13908TIP3    H163139   1.895   3.307   1.793  0.1749  1.1304  0.1711
13908TIP3    H263140   2.001   3.374   1.878  0.6608  0.0619  0.4302
13909TIP3   OH263141   2.850   0.755   3.708 -0.1645  0.2197  0.2457
13909TIP3    H163142   2.943   0.772   3.726 -0.4746 -0.1149  2.4217
13909TIP3    H263143   2.808   0.758   3.794 -1.7781 -2.0077 -0.3858
13910TIP3   OH263144   3.914   5.570  16.152  0.7229 -0.7374 -0.1630
13910TIP3    H163145   3.958   5.526  16.225 -2.9930 -0.7485  2.3801
13910TIP3    H263146   3.877   5.498  16.100 -0.9689 -0.7641  1.0077
13911TIP3   OH263147   4.180   1.200   1.078  0.5845  0.0046  1.4532
13911TIP3    H163148   4.128   1.244   1.145 -0.0348  0.6853  0.5684
13911TIP3    H263149   4.168   1.107   1.095 -0.2517  0.1645  1.7765
13912TIP3   OH263150   1.833   2.937  15.405 -0.2307 -0.2896 -0.3414
13912TIP3    H163151   1.739   2.933  15.387 -0.2338  0.3179 -0.4561
13912TIP3    H263152   1.841   2.999  15.478 -0.0139 -1.1139  0.3525
13913TIP3   OH263153   0.628   1.069  12.805  0.5548 -0.4435  0.4158
13913TIP3    H163154   0.628   1.141  12.868  0.2576 -0.9355  0.9856
13913TIP3    H263155   0.688   1.004  12.841  3.8759  1.0466 -1.9285
13914TIP3   OH263156   6.718   0.127   3.838  0.5540 -0.1892  0.6721
13914TIP3    H163157   6.729   0.150   3.746 -2.3796 -0.4818  0.1456
13914TIP3    H263158   6.709   0.212   3.883 -3.0495  0.0163 -0.1762
13915TIP3   OH263159   0.954   1.583  12.667 -0.2714 -0.3852  0.1398
13915TIP3    H163160   1.037   1.535  12.674 -1.3102 -2.3661 -0.5997
13915TIP3    H263161   0.944   1.602  12.574 -1.2068 -1.1984  0.0646
13916TIP3   OH263162   0.636   6.484  13.002 -0.4133  0.4978  0.1647
13916TIP3    H163163   0.609   6.475  12.911  0.7676 -0.5024 -0.1044
13916TIP3    H263164   0.554   6.475  13.052 -0.8035 -0.9897 -0.6984
13917TIP3   OH263165   5.523   3.337  15.502  0.2920 -0.0323 -0.8542
13917TIP3    H163166   5.485   3.292  15.578 -0.0639 -1.4026 -1.8250
13917TIP3    H263167   5.617   3.331  15.516  0.4083 -3.4171 -2.1776
13918TIP3   OH263168   4.566   1.880  10.919  0.3888  0.3102  0.5709
13918TIP3    H163169   4.496   1.939  10.890 -0.8898 -1.7050 -0.7217
13918TIP3    H263170   4.636   1.892  10.855  0.1520  0.4646  0.3398
13919TIP3   OH263171   0.419   6.702   0.733  0.2014 -0.7317  0.0355
13919TIP3    H163172   0.472   6.709   0.812  0.4065 -2.5254  0.0976
13919TIP3    H263173   0.359   6.630   0.751 -0.6168 -0.3220 -0.9631
13920TIP3   OH263174   0.610   5.090   3.628  0.2039 -0.9007  0.4520
13920TIP3    H163175   0.679   5.094   3.562 -1.1024  1.4394 -0.9286
13920TIP3    H263176   0.536   5.049   3.584 -1.1078  1.8305 -0.1263
13921TIP3   OH263177   1.072   2.004  12.982 -0.0743 -0.5373  0.1929
13921TIP3    H163178   1.034   1.954  12.909 -4.3312  2.4573  0.0158
13921TIP3    H263179   1.145   2.052  12.942 -1.5180  0.0619 -1.9156
13922TIP3   OH263180   6.204   2.618  10.980  0.6886  0.1378 -0.2091
13922TIP3    H163181   6.135   2.663  10.930  2.3838 -0.5635 -3.4937
13922TIP3    H263182   6.265   2.688  11.005 -0.6530  0.6313  1.8959
13923TIP3   OH263183   5.952   2.964  12.275  0.3000  0.5428 -0.5519
13923TIP3    H163184   6.036   2.954  12.229 -0.0174 -1.7278 -0.7320
13923TIP3    H263185   5.919   3.049  12.246  0.8312 -0.1288 -3.3971
13924TIP3   OH263186   5.604   1.244   3.409  0.3526 -0.1505 -0.3659
13924TIP3    H163187   5.517   1.244   3.449 -0.2958  1.7417 -1.6474
13924TIP3    H263188   5.587   1.240   3.315  1.6011  1.0482 -0.6684
13925TIP3   OH263189   1.050   3.143   4.259  0.0440 -0.3729 -0.9118
13925TIP3    H163190   1.028   3.057   4.225 -0.8147 -0.5557  0.0830
13925TIP3    H263191   1.144   3.137   4.280  0.2778 -0.6632 -1.9681
13926TIP3   OH263192   1.956   0.660   3.055 -0.0486 -0.1901 -0.0370
13926TIP3    H163193   1.964   0.720   3.129  1.7068 -0.4070 -0.0191
13926TIP3    H263194   1.988   0.709   2.980 -1.2120 -0.1944 -0.5666
13927TIP3   OH263195   3.025   2.608  13.766  0.6777  0.6238  0.2823
13927TIP3    H163196   3.099   2.667  13.749  1.0627  0.0140 -0.2122
13927TIP3    H263197   2.948   2.658  13.741  0.8415  1.5538  1.5294
13928TIP3   OH263198   1.821   0.499  10.971 -0.4043 -0.1611  0.3522
13928TIP3    H163199   1.825   0.407  10.946 -1.3992  0.0557 -0.7226
13928TIP3    H263200   1.758   0.537  10.910 -0.5717  1.0820  1.2639
13929TIP3   OH263201   4.533   2.877  12.384  0.2506 -0.3478 -0.3100
13929TIP3    H163202   4.501   2.853  12.297  3.7515 -2.7538 -1.1518
13929TIP3    H263203   4.555   2.970  12.376 -2.1818  0.2621 -0.9459
13930TIP3   OH263204   3.100   0.538  16.290  0.0082 -0.1132  0.4513
13930TIP3    H163205   3.131   0.495  16.369  0.6212 -0.2519  0.1440
13930TIP3    H263206   3.029   0.482  16.259  0.0937 -0.3287  0.6380
13931TIP3   OH263207   6.209   4.832  13.298  0.3645 -0.2216 -0.2526
13931TIP3    H163208   6.226   4.738  13.292 -3.3029 -1.2556  1.8391
13931TIP3    H263209   6.215   4.851  13.392 -0.8912  1.1130 -0.4080
13932TIP3   OH263210   0.704   0.106  14.889  0.1295  0.1965  0.1391
13932TIP3    H163211   0.775   0.060  14.933  0.0257 -0.2213 -0.1252
13932TIP3    H263212   0.624   0.074  14.932  0.1704  1.8932  1.5746
13933TIP3   OH263213   3.469   5.229   5.161  0.4425  0.1670 -0.6774
13933TIP3    H163214   3.442   5.318   5.138  0.2761  0.2154 -0.3078
13933TIP3    H263215   3.472   5.182   5.078 -1.2404  0.0318 -0.6962
13934TIP3   OH263216   1.708   2.779  11.344  0.0277 -0.5540 -0.6636
13934TIP3    H163217   1.742   2.706  11.396  0.5810  1.4044  1.9337
13934TIP3    H263218   1.781   2.801  11.285  0.8614 -0.4592  0.3706
13935TIP3   OH263219   5.027   2.419  16.325 -0.4410  0.6194 -0.0930
13935TIP3    H163220   5.032   2.326  16.344 -0.5806  0.5498 -0.4108
13935TIP3    H263221   5.015   2.460  16.411 -1.0470  0.2972 -0.0186
13936TIP3   OH263222   3.581   4.663  14.258 -0.2306 -0.1764 -0.1233
13936TIP3    H163223   3.596   4.585  14.311  1.4701  0.1280 -0.0849
13936TIP3    H263224   3.604   4.736  14.315  0.4671  0.2095 -0.8657
13937TIP3   OH263225   3.145   3.815  12.183 -0.1730 -0.0907  0.2086
13937TIP3    H163226   3.203   3.740  12.170 -1.0712 -0.9585  1.0681
13937TIP3    H263227   3.205   3.887  12.204  0.7560 -0.3521 -1.3297
13938TIP3   OH263228   0.821   0.390   4.185 -0.2242  0.2210 -0.0796
13938TIP3    H163229   0.912   0.391   4.154  0.5298  1.0897  2.0170
13938TIP3    H263230   0.800   0.296   4.192  0.8747 -0.0138  0.3576
13939TIP3   OH263231   5.444   5.021  16.380 -0.5836  0.3964 -0.1721
13939TIP3    H163232   5.457   4.927  16.362 -1.7081  0.5148 -1.8068
13939TIP3    H263233   5.372   5.046  16.324 -0.6455  2.1575  0.6424
13940TIP3   OH263234   3.352   4.547   5.350  0.2893 -0.0542 -0.1213
13940TIP3    H163235   3.346   4.451   5.356  0.2045 -0.1645 -1.6781
13940TIP3    H263236   3.306   4.569   5.269  1.8158  1.1498 -0.7151
13941TIP3   OH263237   3.099   6.654  13.373 -0.0099 -0.3294  0.2282
13941TIP3    H163238   3.173   6.668  13.314 -0.2810  1.0759  0.1794
13941TIP3    H263239   3.134   6.671  13.461  0.2594 -1.8855  0.4515
13942TIP3   OH263240   1.723   2.268   1.590 -0.3006  0.6118 -0.9297
13942TIP3    H163241   1.715   2.351   1.542 -1.6891  1.0573  0.0246
13942TIP3    H263242   1.644   2.219   1.568 -0.1890  0.1555 -0.3416
13943TIP3   OH263243   1.535   0.112  17.217 -0.2583 -0.0957 -0.4057
13943TIP3    H163244   1.447   0.146  17.231 -0.5301 -0.2486 -1.6507
13943TIP3    H263245   1.592   0.173  17.264 -0.8620  1.1712 -1.2756
13944TIP3   OH263246   6.129   4.103   2.202 -0.6617 -0.1586  0.7329
13944TIP3    H163247   6.126   4.049   2.281  1.2387 -0.1354  0.8673
13944TIP3    H263248   6.182   4.179   2.227 -2.6423  1.4466  0.3234
13945TIP3   OH263249   3.413   3.908   5.637 -0.1027 -0.0108 -0.0842
13945TIP3    H163250   3.335   3.959   5.615  1.3412  1.2691 -2.7192
13945TIP3    H263251   3.459   3.960   5.702 -1.7414 -1.1852  2.1620
13946TIP3   OH263252   1.824   6.714   0.303  0.4522  0.2456 -0.1515
13946TIP3    H163253   1.848   6.623   0.318  0.9444  0.2266 -1.0215
13946TIP3    H263254   1.788   6.716   0.215 -0.7671  0.6703  0.3376
13947TIP3   OH263255   1.808   0.859   5.559  0.5655 -0.2558 -0.0653
13947TIP3    H163256   1.736   0.820   5.511  1.3351 -0.0336 -1.4555
13947TIP3    H263257   1.886   0.814   5.526  1.2119  0.6231  0.2195
13948TIP3   OH263258   3.191   2.927  13.369  0.1821 -0.8086 -0.4925
13948TIP3    H163259   3.207   3.020  13.386  0.9169 -0.8767 -0.7426
13948TIP3    H263260   3.245   2.908  13.293  1.2421 -1.7833  0.4578
13949TIP3   OH263261   4.627   1.646  15.275 -0.0174 -0.3983  0.5355
13949TIP3    H163262   4.637   1.553  15.256  1.6620 -0.4173  1.3762
13949TIP3    H263263   4.711   1.673  15.313 -0.1682  1.6597 -0.4429
13950TIP3   OH263264   5.028   3.140  12.440 -0.1640 -0.3138 -0.1292
13950TIP3    H163265   5.012   3.129  12.346 -0.5693 -1.4818  0.0589
13950TIP3    H263266   5.085   3.067  12.464  1.2683  0.8702  0.2499
13951TIP3   OH263267   0.944   0.761   4.608  0.0916  0.0678  0.1674
13951TIP3    H163268   1.019   0.792   4.557  0.6110  1.5231  1.7631
13951TIP3    H263269   0.909   0.839   4.650 -1.9388 -0.6975 -0.0172
13952TIP3   OH263270   4.997   4.725  11.374  0.1124  0.1882 -0.4074
13952TIP3    H163271   5.002   4.704  11.467  1.2474 -1.1833 -0.7501
13952TIP3    H263272   4.928   4.791  11.368 -0.4709 -0.2274  1.3043
13953TIP3   OH263273   0.042   3.673  15.659 -0.5644  0.0940  0.3346
13953TIP3    H163274   0.005   3.597  15.703 -1.5876  2.0103  3.1143
13953TIP3    H263275  -0.034   3.724  15.631  0.0993  0.0697 -1.6868
13954TIP3   OH263276   2.953   0.112   6.250  0.2810 -0.0479  0.3575
13954TIP3    H163277   2.883   0.174   6.228 -0.7232 -0.7299  1.5147
13954TIP3    H263278   3.034   0.161   6.235 -0.4445  0.9422 -0.4706
13955TIP3   OH263279   6.074   1.046  14.186  0.1524 -0.8125 -0.2840
13955TIP3    H163280   5.981   1.037  14.162  0.1130  0.2522 -0.5904
13955TIP3    H263281   6.111   1.102  14.118  1.0345 -1.2558 -0.1803
13956TIP3   OH263282   2.169   2.480   0.690 -0.2711 -0.2660 -0.2314
13956TIP3    H163283   2.156   2.531   0.610  0.3058  1.9787  1.0351
13956TIP3    H263284   2.264   2.468   0.696 -0.4266 -2.2725 -0.9046
13957TIP3   OH263285   1.742   3.439   1.741 -0.3336 -0.0279 -0.1978
13957TIP3    H163286   1.687   3.373   1.784 -0.6242  0.2416 -0.1555
13957TIP3    H263287   1.698   3.458   1.659 -0.5517  0.5295  0.0465
13958TIP3   OH263288   5.527   5.610  16.176  0.0317 -0.2898 -0.7391
13958TIP3    H163289   5.537   5.598  16.081  0.2689 -1.7731 -0.5614
13958TIP3    H263290   5.550   5.524  16.213  0.8778  0.5362  0.7316
13959TIP3   OH263291   5.095   1.554  16.514  0.4588 -0.6565 -0.0667
13959TIP3    H163292   5.152   1.573  16.439  1.2135  3.5041  1.3000
13959TIP3    H263293   5.010   1.592  16.489  0.6043  0.3991  0.9466
13960TIP3   OH263294   4.916   3.768   3.206 -0.2611 -0.2738 -0.1262
13960TIP3    H163295   5.009   3.772   3.228  0.0304 -1.1860 -1.1176
13960TIP3    H263296   4.880   3.703   3.267 -0.0932 -0.4612 -0.2244
13961TIP3   OH263297   6.022   6.432  12.964 -0.1442  0.2314  0.2831
13961TIP3    H163298   6.055   6.437  12.874  2.9167 -1.0282  1.2140
13961TIP3    H263299   6.037   6.520  13.000  1.4594 -0.0534  0.3873
13962TIP3   OH263300   2.776   5.368   2.551  0.1147 -0.0946  0.3368
13962TIP3    H163301   2.708   5.391   2.488  0.2297 -1.8104 -0.4541
13962TIP3    H263302   2.844   5.433   2.537 -0.1709 -0.0307 -0.8184
13963TIP3   OH263303   0.162   2.289   1.958  0.1230  0.1337 -0.4074
13963TIP3    H163304   0.218   2.249   1.891  0.9084 -0.9881  0.8582
13963TIP3    H263305   0.223   2.324   2.023 -0.5596 -1.6313  1.3015
13964TIP3   OH263306   2.949   0.218   2.335  0.1951  0.1136  0.2922
13964TIP3    H163307   2.855   0.227   2.323 -0.0787 -1.4874  0.9343
13964TIP3    H263308   2.981   0.185   2.251 -0.0991 -0.9072  0.5560
13965TIP3   OH263309   3.937   6.304  13.176  0.5425 -0.3786  0.0217
13965TIP3    H163310   3.965   6.308  13.267 -1.5724  0.7767  0.6796
13965TIP3    H263311   3.928   6.395  13.150  0.8442 -0.7003 -1.2725
13966TIP3   OH263312   3.377   4.290   4.606  0.0656 -0.2231  0.5594
13966TIP3    H163313   3.472   4.292   4.596  0.0940  0.6891  0.9237
13966TIP3    H263314   3.363   4.259   4.695  0.0434  0.1724  0.6969
13967TIP3   OH263315   2.237   5.799  15.441 -0.1801 -0.3948  0.0559
13967TIP3    H163316   2.248   5.872  15.501 -0.2359 -0.8174  0.5948
13967TIP3    H263317   2.218   5.724  15.498 -1.7012 -0.5211 -0.5786
13968TIP3   OH263318   4.525   2.272  14.805 -0.5774 -0.3756  0.0847
13968TIP3    H163319   4.438   2.254  14.771 -0.5475 -1.3740  0.4971
13968TIP3    H263320   4.538   2.207  14.874 -0.1071  0.7194  1.0800
13969TIP3   OH263321   2.552   3.032  14.907 -0.6161  0.1942  0.2718
13969TIP3    H163322   2.627   2.999  14.956 -0.0825  1.8319  0.6439
13969TIP3    H263323   2.533   2.964  14.843  2.1811  0.3528 -0.8665
13970TIP3   OH263324   3.771   6.099  15.925  0.2199 -0.2424 -0.3736
13970TIP3    H163325   3.775   6.195  15.929 -0.4431 -0.2196 -0.2791
13970TIP3    H263326   3.863   6.072  15.919  0.4230  0.3857 -0.1289
13971TIP3   OH263327   5.793   3.317  15.529 -1.0118 -0.2267 -0.3229
13971TIP3    H163328   5.795   3.411  15.511  0.7567 -0.3595 -1.0535
13971TIP3    H263329   5.827   3.309  15.618 -2.6667 -0.0943  0.3513
13972TIP3   OH263330   3.732   4.911  16.615 -0.9555  0.2344  0.2773
13972TIP3    H163331   3.760   4.820  16.619  2.3872  1.0646 -0.8765
13972TIP3    H263332   3.774   4.946  16.536 -2.4755  2.6994  0.4439
13973TIP3   OH263333   0.510   2.952  14.931 -0.0372 -0.0977  0.0447
13973TIP3    H163334   0.596   2.987  14.953 -0.6062  0.8261  0.8907
13973TIP3    H263335   0.516   2.858  14.947  0.1778  0.2445  2.3010
13974TIP3   OH263336   5.385   4.168  14.538 -0.2686 -0.8207 -0.0993
13974TIP3    H163337   5.297   4.141  14.563 -0.1596  0.6578  2.1103
13974TIP3    H263338   5.425   4.089  14.503 -1.3473 -2.4366  2.0933
13975TIP3   OH263339   1.195   3.181   2.134 -0.2097 -0.9473 -0.5441
13975TIP3    H163340   1.289   3.169   2.147  0.1069  1.0054 -0.7111
13975TIP3    H263341   1.160   3.187   2.223 -0.2576 -2.0309 -0.4737
13976TIP3   OH263342   6.354   4.081  12.497  0.7742  0.5023 -0.0766
13976TIP3    H163343   6.439   4.052  12.462  1.7793  0.1597  2.4421
13976TIP3    H263344   6.334   4.018  12.566 -1.8216  0.3131 -0.9254
13977TIP3   OH263345   4.389   1.039  16.655  0.0553  0.4403  0.0633
13977TIP3    H163346   4.362   0.951  16.680  0.8829  0.4740  1.1629
13977TIP3    H263347   4.465   1.025  16.598 -0.2514  0.4342 -0.3496
13978TIP3   OH263348   2.198   2.875   1.102  0.0275  0.6770  0.3100
13978TIP3    H163349   2.246   2.939   1.154  1.1114 -0.0159  0.1989
13978TIP3    H263350   2.132   2.840   1.161  0.5939  0.6140  0.9141
13979TIP3   OH263351   5.339   5.271   3.706 -0.3403  0.3867  0.6209
13979TIP3    H163352   5.421   5.319   3.714  0.0955  0.0024 -1.1574
13979TIP3    H263353   5.365   5.179   3.701 -0.8873  0.2496  0.1759
13980TIP3   OH263354   6.116   3.966   4.931 -0.4200 -0.2631  0.7638
13980TIP3    H163355   6.133   3.924   5.015  0.9884  0.6516  0.9778
13980TIP3    H263356   6.203   3.979   4.893 -1.0193 -0.3998 -0.7182
13981TIP3   OH263357   0.532   3.244  14.109  0.3280  0.1575  0.6299
13981TIP3    H163358   0.466   3.235  14.178 -0.3039  0.9377  0.1576
13981TIP3    H263359   0.609   3.200  14.143 -0.2986 -0.3770  1.3950
13982TIP3   OH263360   4.416   2.294  14.217  0.0602  0.2341 -0.2881
13982TIP3    H163361   4.409   2.380  14.175 -0.0600  0.3223 -0.0881
13982TIP3    H263362   4.451   2.313  14.304 -0.0725  0.0922 -0.2036
13983TIP3   OH263363   1.587   3.840  11.297  0.8066  0.2066  0.1551
13983TIP3    H163364   1.541   3.772  11.346  0.5931  0.0175 -0.3077
13983TIP3    H263365   1.666   3.797  11.265  0.4168  0.0255 -0.5798
13984TIP3   OH263366   6.287   4.756   3.956 -0.1178 -0.1951 -0.0630
13984TIP3    H163367   6.248   4.695   3.893 -0.3412  0.6803 -0.7765
13984TIP3    H263368   6.214   4.786   4.009  0.0523 -0.8363  0.5580
13985TIP3   OH263369   5.331   3.541   3.959  0.0703 -0.0707 -0.0930
13985TIP3    H163370   5.268   3.589   4.013 -1.2062 -1.5578 -0.1729
13985TIP3    H263371   5.373   3.480   4.021  0.7919  0.2890 -0.2184
13986TIP3   OH263372   1.632   3.423  13.592 -0.2676 -0.9135 -0.0744
13986TIP3    H163373   1.579   3.343  13.596 -1.2493 -0.2438  1.4626
13986TIP3    H263374   1.571   3.493  13.616  0.5379  0.3391 -1.5136
13987TIP3   OH263375   6.198   5.005  15.763 -0.0638  0.3922  0.0662
13987TIP3    H163376   6.277   5.026  15.812 -1.1732  1.8193  1.3373
13987TIP3    H263377   6.174   4.917  15.793  1.1133 -0.1437 -0.4921
13988TIP3   OH263378   1.193   5.001  15.020  0.2772  0.3695  0.2472
13988TIP3    H163379   1.152   5.056  14.953 -0.5840 -0.2524  0.2427
13988TIP3    H263380   1.196   4.914  14.981 -0.3516 -0.0234  1.0598
13989TIP3   OH263381   6.148   6.457   1.100  0.0312  0.0830  0.0632
13989TIP3    H163382   6.079   6.489   1.159 -1.0204  0.1142 -1.1512
13989TIP3    H263383   6.101   6.418   1.027  1.3182 -1.4629  0.0169
13990TIP3   OH263384   1.898   2.841  11.158  0.4981 -0.4370 -0.0667
13990TIP3    H163385   1.894   2.799  11.072 -1.4436  0.3240 -0.4210
13990TIP3    H263386   1.991   2.854  11.175  0.9340 -0.6551 -2.0312
13991TIP3   OH263387   4.218   0.234   6.504  0.4357 -0.0440  0.1007
13991TIP3    H163388   4.300   0.195   6.532  1.2399  0.4029 -1.5186
13991TIP3    H263389   4.237   0.328   6.497  0.4286 -0.1596 -2.2401
13992TIP3   OH263390   2.100   3.836  11.227 -0.3583  0.0362  0.0104
13992TIP3    H163391   2.083   3.879  11.144 -1.4484 -0.5631 -0.0938
13992TIP3    H263392   2.179   3.879  11.261  1.1513 -0.8925 -2.1393
13993TIP3   OH263393   1.753   2.639  11.576 -0.2225  0.3399  0.3398
13993TIP3    H163394   1.696   2.574  11.534 -0.4260 -0.1919  1.3930
13993TIP3    H263395   1.833   2.590  11.597 -0.7111  0.1607  1.9278
13994TIP3   OH263396   1.283   2.260   1.315 -0.0128  0.0641  0.0306
13994TIP3    H163397   1.317   2.325   1.376  1.4329 -1.2860  0.7504
13994TIP3    H263398   1.351   2.253   1.248 -1.4326  1.2971 -1.6282
13995TIP3   OH263399   4.454   6.775   3.995  0.2361 -0.0662  0.6483
13995TIP3    H163400   4.414   6.774   4.081 -0.2793 -1.1830  0.4219
13995TIP3    H263401   4.548   6.774   4.012  0.1810  1.5951  1.1842
13996TIP3   OH263402   0.018   1.925  10.909 -0.6285  0.5941 -0.5345
13996TIP3    H163403   0.022   2.000  10.850  0.9937  1.3834  0.4966
13996TIP3    H263404   0.101   1.929  10.957 -0.7061 -1.6245 -0.1533
13997TIP3   OH263405   2.141   6.603   0.929  0.0803  0.1549  0.1871
13997TIP3    H163406   2.124   6.576   1.019 -1.3759  1.5403  0.3612
13997TIP3    H263407   2.099   6.536   0.875 -0.4398  0.1813  0.5558
13998TIP3   OH263408   4.426   3.342   5.008 -0.4505 -0.5551  0.0682
13998TIP3    H163409   4.377   3.422   4.988 -0.5561 -0.9440 -1.2907
13998TIP3    H263410   4.426   3.338   5.104 -2.3688 -0.1127  0.1193
13999TIP3   OH263411   3.141   4.873  14.057 -0.0428  0.5144  0.2380
13999TIP3    H163412   3.202   4.947  14.054  1.0654 -0.2562  2.1360
13999TIP3    H263413   3.139   4.841  13.967  2.3778  0.5923  0.0966
14000TIP3   OH263414   2.099   2.061  14.418  0.4781 -0.5154 -0.1569
14000TIP3    H163415   2.005   2.080  14.415  0.5026 -0.4791 -0.7914
14000TIP3    H263416   2.138   2.129  14.364  0.5662 -2.3529 -2.5831
14001TIP3   OH263417   3.124   4.381   3.426 -0.0937  0.2391 -0.2774
14001TIP3    H163418   3.092   4.331   3.501 -0.9463  1.3544  0.1270
14001TIP3    H263419   3.136   4.316   3.357  0.2124 -0.7293  0.6635
14002TIP3   OH263420   2.030   3.645   1.334 -0.2383 -0.8531 -0.4205
14002TIP3    H163421   2.058   3.553   1.338 -1.8644 -1.3751 -0.0775
14002TIP3    H263422   1.953   3.649   1.392  0.8020  1.1246  0.9272
14003TIP3   OH263423   5.100   4.847  11.649  0.4583  0.3656  0.1042
14003TIP3    H163424   5.158   4.802  11.712  0.4751 -0.1611 -0.2803
14003TIP3    H263425   5.026   4.875  11.702  1.0134  0.9597  0.5846
14004TIP3   OH263426   6.323   4.593   2.168 -0.2126 -0.1145 -0.9289
14004TIP3    H163427   6.375   4.659   2.214 -0.9573 -0.8131  1.0503
14004TIP3    H263428   6.386   4.542   2.119  0.6963  0.4410 -0.3700
14005TIP3   OH263429   6.017   1.738   1.928 -0.7399  0.2439 -0.1977
14005TIP3    H163430   5.964   1.779   1.997 -1.6314 -0.7975 -0.2280
14005TIP3    H263431   6.107   1.746   1.959 -0.9243  1.7505  0.0226
14006TIP3   OH263432   4.323   4.110  17.131 -0.2354 -0.4172  0.0767
14006TIP3    H163433   4.355   4.041  17.189  0.2088  1.4241  2.1618
14006TIP3    H263434   4.396   4.125  17.070  2.3091  2.1386  3.3346
14007TIP3   OH263435   2.492   0.748  12.510 -0.2945 -0.2249  0.0306
14007TIP3    H163436   2.502   0.653  12.517 -1.6210 -0.5964 -2.2127
14007TIP3    H263437   2.398   0.761  12.493  0.0249  1.4162 -0.6382
14008TIP3   OH263438   3.236   3.976   4.488  0.0827 -0.8779 -0.1297
14008TIP3    H163439   3.296   4.000   4.418  0.1225 -0.7483 -0.0523
14008TIP3    H263440   3.197   3.894   4.460 -2.3846  0.7460 -1.8661
14009TIP3   OH263441   1.399   2.252   3.905 -0.1205 -0.2043 -0.1461
14009TIP3    H163442   1.318   2.286   3.944  0.2185  0.2907  0.1462
14009TIP3    H263443   1.421   2.175   3.957 -1.2767 -1.3184 -1.2550
14010TIP3   OH263444   0.264   3.800   3.460  0.0603  0.3353  0.0008
14010TIP3    H163445   0.296   3.725   3.509  0.2303  1.8074  2.3295
14010TIP3    H263446   0.292   3.785   3.370  3.5315 -0.5289  1.0804
14011TIP3   OH263447   1.215   2.422   2.621 -0.4317 -0.5132 -0.6736
14011TIP3    H163448   1.295   2.439   2.672 -1.2768  0.2977  0.4412
14011TIP3    H263449   1.215   2.489   2.554  0.0560 -0.8123 -0.9816
14012TIP3   OH263450   4.083   1.169  12.019  0.4162 -0.6041 -0.9268
14012TIP3    H163451   4.101   1.237  12.085  0.7251 -0.5583 -1.0585
14012TIP3    H263452   4.010   1.204  11.968  0.5660 -0.3738 -0.9848
14013TIP3   OH263453   3.506   6.163   5.427  0.5672 -0.3273 -0.2541
14013TIP3    H163454   3.591   6.119   5.436  0.9380  0.4220  0.0927
14013TIP3    H263455   3.520   6.249   5.467 -0.4022 -0.2441 -0.0681
14014TIP3   OH263456   4.882   0.754  12.452 -0.7545  0.4648 -0.4699
14014TIP3    H163457   4.957   0.707  12.488  0.3678  0.7916 -2.2610
14014TIP3    H263458   4.920   0.816  12.389 -2.4624  1.2221 -0.8161
14015TIP3   OH263459   5.720   4.518   5.444 -0.7032  0.0435  0.2181
14015TIP3    H163460   5.784   4.522   5.373 -2.0888  2.2401 -1.0338
14015TIP3    H263461   5.724   4.428   5.475 -0.4707 -1.2436 -3.1125
14016TIP3   OH263462   1.371   3.054  17.206  0.0681  0.3041 -0.3464
14016TIP3    H163463   1.454   3.098  17.225  1.0192 -1.1834 -0.8548
14016TIP3    H263464   1.309   3.091  17.269  0.7751  2.3760 -0.8047
14017TIP3   OH263465   6.387   2.512   5.805  0.3408  0.4824  0.6301
14017TIP3    H163466   6.392   2.473   5.892 -1.0803  0.8991  0.9154
14017TIP3    H263467   6.343   2.595   5.818 -1.3152 -0.1366 -0.6719
14018TIP3   OH263468   4.548   3.293   3.202 -0.4299  0.2711 -0.2205
14018TIP3    H163469   4.617   3.292   3.269  1.4656  0.5083 -2.0900
14018TIP3    H263470   4.562   3.212   3.152 -1.9296  0.0145 -0.2861
14019TIP3   OH263471   5.676   4.091   5.807 -0.3166  0.6301  0.2529
14019TIP3    H163472   5.643   4.126   5.890 -0.6904  1.2235 -0.1339
14019TIP3    H263473   5.708   4.168   5.760  1.0659  0.1482  0.3575
14020TIP3   OH263474   0.858   2.217  15.549 -0.2096 -0.0848 -0.3529
14020TIP3    H163475   0.802   2.293  15.534 -0.1741 -0.0457 -0.2864
14020TIP3    H263476   0.857   2.204  15.644  0.4579  0.3459 -0.2815
14021TIP3   OH263477   6.630   6.333   4.810  0.1460 -0.2297 -0.3481
14021TIP3    H163478   6.590   6.276   4.743 -3.0214  0.1025  1.0666
14021TIP3    H263479   6.597   6.421   4.788 -0.0923  0.0391  1.0427
14022TIP3   OH263480   5.602   4.206  13.485 -0.1054  0.2259 -0.6651
14022TIP3    H163481   5.575   4.171  13.570  1.1089  0.8866  0.0212
14022TIP3    H263482   5.582   4.136  13.423 -2.2383  0.2265 -0.0617
14023TIP3   OH263483   0.160   4.001   2.528  0.0600 -0.0550 -0.7436
14023TIP3    H163484   0.224   4.064   2.497 -1.5846  2.6183  0.8853
14023TIP3    H263485   0.076   4.047   2.522 -1.3041 -2.2394  0.1645
14024TIP3   OH263486   1.574   0.067  16.652 -0.1203 -1.2181  1.1195
14024TIP3    H163487   1.497   0.036  16.700 -0.2054 -1.0785  1.0711
14024TIP3    H263488   1.593   0.152  16.690 -0.5912 -0.8023  0.4476
14025TIP3   OH263489   2.002   3.565   2.076 -0.2692 -0.0129  0.3058
14025TIP3    H163490   2.087   3.549   2.115  0.6719 -0.6526 -1.8187
14025TIP3    H263491   1.941   3.511   2.127  0.9281 -1.0797  0.6663
14026TIP3   OH263492   5.769   0.774  16.849  0.0086  0.0665  0.1884
14026TIP3    H163493   5.716   0.742  16.921 -1.9810  1.8763 -0.3440
14026TIP3    H263494   5.812   0.852  16.883 -1.7488  1.5353 -0.7562
14027TIP3   OH263495   1.012   1.868   1.322  0.3693  0.2387  0.4326
14027TIP3    H163496   1.037   1.949   1.277 -0.1303  0.2312  0.1267
14027TIP3    H263497   1.012   1.891   1.415  3.0570 -0.1874  0.6068
14028TIP3   OH263498   2.157   2.186  12.906  0.6605 -0.0245 -0.4804
14028TIP3    H163499   2.251   2.178  12.918  0.7089  0.2844 -0.6513
14028TIP3    H263500   2.143   2.176  12.812  0.2226 -3.0009 -0.1796
14029TIP3   OH263501   2.609   3.606  16.195 -0.1402 -0.2085 -0.5074
14029TIP3    H163502   2.515   3.607  16.175  0.1753 -0.1620 -2.1028
14029TIP3    H263503   2.615   3.649  16.280 -1.5170  0.2089 -0.5903
14030TIP3   OH263504   6.503   4.570   3.619 -0.8257  0.6290 -0.2381
14030TIP3    H163505   6.426   4.518   3.594 -1.0434  0.8067  0.0487
14030TIP3    H263506   6.526   4.619   3.540  0.3883 -1.1101 -1.0311
14031TIP3   OH263507   5.700   1.887   0.719 -0.6732 -0.2857  0.1976
14031TIP3    H163508   5.684   1.889   0.625  1.3930  1.0114 -0.1962
14031TIP3    H263509   5.637   1.824   0.753 -2.4552  0.2968 -1.8446
14032TIP3   OH263510   1.458   1.161   2.395 -0.0746  0.0311  0.2200
14032TIP3    H163511   1.519   1.118   2.335 -1.0347 -0.2362 -0.5903
14032TIP3    H263512   1.468   1.254   2.376 -1.4868 -0.1088 -1.5396
14033TIP3   OH263513   4.706   1.220   3.496  0.1855 -0.5672 -0.1225
14033TIP3    H163514   4.717   1.137   3.543 -2.3400 -0.4018  0.9296
14033TIP3    H263515   4.686   1.194   3.406 -0.7772 -1.1315  0.2432
14034TIP3   OH263516   2.331   6.395  15.112 -0.3115  0.3695  0.0506
14034TIP3    H163517   2.331   6.469  15.051  0.6221 -0.0816 -0.5280
14034TIP3    H263518   2.399   6.336  15.078  0.7931  0.4500  1.9323
14035TIP3   OH263519   0.281   2.778  16.493 -0.3191 -0.2694 -0.0771
14035TIP3    H163520   0.236   2.824  16.564 -0.9850 -2.2775  0.8784
14035TIP3    H263521   0.212   2.754  16.432 -0.3018 -1.5623  0.3726
14036TIP3   OH263522   0.776   1.952  15.389 -0.2886 -0.4587 -0.1061
14036TIP3    H163523   0.858   1.988  15.423 -1.0560  1.7300 -0.4230
14036TIP3    H263524   0.709   1.979  15.452 -0.8481 -1.9435 -0.0228
14037TIP3   OH263525   1.652   5.578   4.092  0.4317  0.1207 -0.1982
14037TIP3    H163526   1.722   5.558   4.154  0.3412  0.7466  0.1169
14037TIP3    H263527   1.626   5.667   4.114 -0.0606  0.1054 -0.7031
14038TIP3   OH263528   0.591   2.752  11.675  0.5731 -0.2707 -0.1216
14038TIP3    H163529   0.509   2.742  11.626 -0.3480  1.5583  0.9558
14038TIP3    H263530   0.659   2.728  11.612 -0.6065  1.0317 -2.0082
14039TIP3   OH263531   4.926   4.966   6.174 -0.0512  0.3502 -0.1370
14039TIP3    H163532   4.887   5.034   6.119 -1.4324 -0.9490 -0.8456
14039TIP3    H263533   4.863   4.954   6.245 -0.6452 -1.2148 -0.8632
14040TIP3   OH263534   5.454   4.938   3.848  0.6353  0.3892  0.3184
14040TIP3    H163535   5.371   4.905   3.813  0.0744  1.1446  0.8764
14040TIP3    H263536   5.521   4.889   3.802 -0.1371 -2.1850  1.7103
14041TIP3   OH263537   6.687   1.643   2.502 -0.3804  0.2872 -0.1263
14041TIP3    H163538   6.730   1.562   2.473  0.6919  0.7867  0.0131
14041TIP3    H263539   6.750   1.712   2.482 -2.0707  1.3773 -2.0797
14042TIP3   OH263540   0.815   1.311  11.013  0.4566 -0.2510  0.4547
14042TIP3    H163541   0.755   1.343  10.945  0.5567 -0.5574  0.2229
14042TIP3    H263542   0.757   1.289  11.087  0.4372  1.0769  0.8720
14043TIP3   OH263543   1.876   5.828  14.795 -0.0642 -0.5957  0.3087
14043TIP3    H163544   1.853   5.917  14.770 -0.5178 -0.4232  1.2959
14043TIP3    H263545   1.898   5.785  14.712 -0.6630  0.1927 -0.2752
14044TIP3   OH263546   2.322   4.003  14.494 -0.4785 -0.4971  0.3560
14044TIP3    H163547   2.317   3.925  14.439 -1.5201  0.9447 -1.6898
14044TIP3    H263548   2.230   4.024  14.513 -0.3119  1.1606 -0.5392
14045TIP3   OH263549   3.828   5.250   0.993 -0.4320 -0.5124 -0.6512
14045TIP3    H163550   3.825   5.161   0.956 -2.0856 -0.5306 -0.5293
14045TIP3    H263551   3.780   5.243   1.075 -0.1652  0.4012 -0.4128
14046TIP3   OH263552   6.539   3.775   0.989 -0.0540  0.5957  0.0385
14046TIP3    H163553   6.617   3.726   1.015  0.8412  1.1693 -1.4616
14046TIP3    H263554   6.556   3.864   1.019  0.4774  1.0087 -1.4167
14047TIP3   OH263555   5.896   2.777   0.455 -0.2000 -0.1190 -0.2180
14047TIP3    H163556   5.896   2.848   0.518  0.8754  0.2134 -0.5818
14047TIP3    H263557   5.925   2.817   0.373  0.1701 -0.9171 -0.4887
14048TIP3   OH263558   2.310   4.034  14.916  0.2093  0.5707  0.7587
14048TIP3    H163559   2.227   4.019  14.871 -0.4341  2.4424  1.2416
14048TIP3    H263560   2.355   3.950  14.912 -1.1477 -0.1354 -0.6534
14049TIP3   OH263561   4.095   4.095   5.271  0.7382 -0.0825  0.5954
14049TIP3    H163562   4.026   4.135   5.219  0.2912  0.9464  1.9208
14049TIP3    H263563   4.094   4.003   5.246 -0.4406  0.1069 -0.1235
14050TIP3   OH263564   4.167   0.439  12.134  0.5402  0.0063  0.1312
14050TIP3    H163565   4.077   0.465  12.115 -0.4346 -3.8018 -1.3697
14050TIP3    H263566   4.184   0.476  12.221 -2.7226  0.2953  0.7946
14051TIP3   OH263567   1.762   2.758  11.977 -0.0697  0.2994  0.5299
14051TIP3    H163568   1.741   2.784  12.067  0.2275 -1.6008  1.2036
14051TIP3    H263569   1.711   2.818  11.922 -1.2057  0.7337  1.9754
14052TIP3   OH263570   1.410   2.858  13.141  0.1955  0.0141  0.0814
14052TIP3    H163571   1.330   2.830  13.186 -0.5912 -0.1217 -1.3483
14052TIP3    H263572   1.400   2.952  13.130 -0.3389 -0.1740 -1.1491
14053TIP3   OH263573   0.124   6.649  10.748 -0.0604  0.0208 -0.0662
14053TIP3    H163574   0.159   6.603  10.825 -1.7777 -1.4301 -0.0821
14053TIP3    H263575   0.047   6.695  10.782  1.0888  2.1718 -0.2595
14054TIP3   OH263576   0.038   0.422  14.062 -0.2509  0.4445  0.0002
14054TIP3    H163577   0.039   0.454  13.972 -2.3042 -1.2713 -0.7157
14054TIP3    H263578   0.116   0.461  14.102  0.8489  1.0808 -2.5550
14055TIP3   OH263579   5.764   6.300  15.622 -0.3767  0.2413  0.1767
14055TIP3    H163580   5.714   6.218  15.619 -0.5123  0.3368 -0.3411
14055TIP3    H263581   5.798   6.310  15.533 -1.6200  1.5109 -0.1991
14056TIP3   OH263582   3.183   1.011   1.397 -0.2782 -0.2088 -0.0214
14056TIP3    H163583   3.159   1.097   1.429 -1.1066 -0.7922  0.9814
14056TIP3    H263584   3.207   1.025   1.305  1.7349  1.4332  0.6781
14057TIP3   OH263585   0.846   0.845   0.977  0.4327 -0.0620  0.3565
14057TIP3    H163586   0.845   0.753   0.950 -1.9433 -0.0908  0.2688
14057TIP3    H263587   0.893   0.890   0.908 -0.2653 -0.9472 -0.7345
14058TIP3   OH263588   6.342   3.614  12.165  0.8925  0.2404  0.6228
14058TIP3    H163589   6.310   3.524  12.163  1.6414 -0.0686 -2.8260
14058TIP3    H263590   6.431   3.606  12.199  1.5135 -0.6163 -1.0783
14059TIP3   OH263591   4.391   5.613   4.759 -0.2752  0.1838 -0.0608
14059TIP3    H163592   4.325   5.609   4.829 -0.5567  1.7937 -0.1960
14059TIP3    H263593   4.392   5.704   4.732  2.0416  0.2229 -0.0652
14060TIP3   OH263594   4.788   0.920   4.530  0.2361  0.2110  0.3444
14060TIP3    H163595   4.804   0.878   4.614  0.8695 -0.0640  0.0877
14060TIP3    H263596   4.819   0.857   4.465 -1.0417  0.0594 -0.1357
14061TIP3   OH263597   5.548   3.878   3.119  0.8464  0.0056  0.4023
14061TIP3    H163598   5.628   3.837   3.086  0.4407  0.2186 -0.8783
14061TIP3    H263599   5.486   3.806   3.129  0.9272 -0.0395  0.5851
14062TIP3   OH263600   4.541   2.517   0.101 -0.0512 -0.4581  0.3946
14062TIP3    H163601   4.580   2.543   0.184  2.7791  0.3220 -1.0553
14062TIP3    H263602   4.502   2.598   0.067  1.5133 -0.0035 -0.3874
14063TIP3   OH263603   4.125   1.087  13.819  0.6196  0.4806 -0.0594
14063TIP3    H163604   4.180   1.056  13.748  1.8240 -0.0525  1.0522
14063TIP3    H263605   4.070   1.012  13.842  0.4990  0.5317 -0.1824
14064TIP3   OH263606   5.161   5.418  12.472 -0.3453 -0.3772  0.9812
14064TIP3    H163607   5.133   5.366  12.397  0.0471 -1.3098  1.4589
14064TIP3    H263608   5.230   5.475  12.438 -2.1416  1.3345 -0.0121
14065TIP3   OH263609   1.003   6.786   4.018  0.1873  0.5512  0.9586
14065TIP3    H163610   0.928   6.802   4.076 -1.9399 -0.4309 -1.3653
14065TIP3    H263611   1.023   6.693   4.030 -1.4599 -0.1366 -1.0775
14066TIP3   OH263612   0.763   6.286   4.456  0.0993  0.3356  0.4693
14066TIP3    H163613   0.730   6.284   4.366 -1.3407  0.7370  0.9700
14066TIP3    H263614   0.778   6.379   4.473 -1.2992  0.4377  1.2186
14067TIP3   OH263615   3.845   5.831  13.870  0.7210  0.0090  0.3096
14067TIP3    H163616   3.766   5.811  13.821 -0.9746 -0.0908  2.8795
14067TIP3    H263617   3.840   5.924  13.890  0.3016 -0.3136  1.9110
14068TIP3   OH263618   5.273   6.636  11.676  0.2157 -0.2409  0.1490
14068TIP3    H163619   5.258   6.722  11.636 -0.1093 -1.1902 -1.8537
14068TIP3    H263620   5.193   6.617  11.725 -0.3986 -0.1449 -0.8133
14069TIP3   OH263621   5.877   5.327   1.873 -0.6126  0.6567 -0.2223
14069TIP3    H163622   5.808   5.278   1.828 -0.6029  0.7509 -0.3406
14069TIP3    H263623   5.954   5.317   1.817  0.2969 -1.9038  1.3279
14070TIP3   OH263624   4.661   2.380   4.647 -0.2678  0.1125 -0.0652
14070TIP3    H163625   4.586   2.321   4.637  1.3158 -2.4458  2.0403
14070TIP3    H263626   4.735   2.331   4.609  0.6649  1.8855 -0.6281
14071TIP3   OH263627   5.697   3.618  13.144 -0.5852  0.4632  0.0214
14071TIP3    H163628   5.615   3.579  13.114 -0.3333 -0.1184  0.0797
14071TIP3    H263629   5.747   3.545  13.179  0.4683  0.6008 -1.1352
14072TIP3   OH263630   4.858   3.514  13.688  0.1532  0.2435  0.7557
14072TIP3    H163631   4.813   3.482  13.610  0.4519  1.2057  0.1751
14072TIP3    H263632   4.835   3.450  13.756  1.3018 -1.6194 -0.4976
14073TIP3   OH263633   2.559   1.670  11.422  0.0442  0.0060  0.2009
14073TIP3    H163634   2.504   1.719  11.360  2.0115  2.2683  0.0851
14073TIP3    H263635   2.623   1.626  11.366  0.6381  0.4688  0.5105
14074TIP3   OH263636   5.212   6.047  12.789 -0.1297 -0.2598  0.1369
14074TIP3    H163637   5.229   6.139  12.773  0.7949 -0.2285  1.2226
14074TIP3    H263638   5.279   6.020  12.851  0.4077 -1.9939 -1.1230
14075TIP3   OH263639   0.193   3.758  14.662  0.2474 -0.7780  0.2489
14075TIP3    H163640   0.117   3.701  14.656 -0.9779  0.7035  0.8899
14075TIP3    H263641   0.268   3.699  14.668 -1.0235 -2.3221  1.7407
14076TIP3   OH263642   3.286   2.660  14.837 -0.0477  0.1148  0.4463
14076TIP3    H163643   3.192   2.678  14.840 -0.2796 -0.8419 -0.6328
14076TIP3    H263644   3.304   2.644  14.745  0.9589 -0.8599  0.8009
14077TIP3   OH263645   3.678   3.655  16.748 -0.2940 -0.1177  0.0158
14077TIP3    H163646   3.592   3.696  16.750 -0.2074  0.0733 -0.1652
14077TIP3    H263647   3.690   3.622  16.837  0.3277  1.6850  0.6480
14078TIP3   OH263648   4.986   0.918   3.793  0.0738  0.7891  0.6491
14078TIP3    H163649   4.970   0.835   3.838  2.2292  0.7965  1.5397
14078TIP3    H263650   5.054   0.898   3.728  0.7172  1.8775  0.9605
14079TIP3   OH263651   3.585   1.596  13.187  0.2717 -0.1172  0.4002
14079TIP3    H163652   3.542   1.584  13.271  0.6228 -1.5113  0.3926
14079TIP3    H263653   3.638   1.675  13.199 -0.1504  0.0476  1.2757
14080TIP3   OH263654   2.669   4.412  14.337  0.5962 -0.0240  0.5914
14080TIP3    H163655   2.608   4.471  14.380 -0.2010 -0.9403  0.7607
14080TIP3    H263656   2.677   4.338  14.398  0.0332 -0.9997 -0.4814
14081TIP3   OH263657   6.674   4.549  17.048  0.3918  0.7876 -0.1427
14081TIP3    H163658   6.715   4.549  16.961  0.3892  0.6357 -0.1450
14081TIP3    H263659   6.736   4.596  17.104  0.3142  1.0347 -0.2641
14082TIP3   OH263660   1.416   5.569  13.228  0.3192 -0.3266 -0.6789
14082TIP3    H163661   1.386   5.659  13.242 -0.1491 -0.6077  0.2062
14082TIP3    H263662   1.358   5.516  13.282 -0.3296 -1.3116 -2.2611
14083TIP3   OH263663   3.147   1.032   5.550  0.1218  0.5133  0.1692
14083TIP3    H163664   3.151   0.961   5.485  1.1202  1.2540 -0.6149
14083TIP3    H263665   3.057   1.029   5.583 -0.3998  0.0720 -1.2114
14084TIP3   OH263666   2.371   0.396  14.512  0.4978  0.3957 -0.5853
14084TIP3    H163667   2.357   0.452  14.589  1.5056 -1.4350  1.0127
14084TIP3    H263668   2.323   0.316  14.532  4.1791 -1.8342  0.2072
14085TIP3   OH263669   5.649   4.651   2.163  0.5845  0.4169  0.0791
14085TIP3    H163670   5.705   4.578   2.190  0.5813  0.3199 -0.1694
14085TIP3    H263671   5.645   4.644   2.068  0.9997  1.0506  0.0132
14086TIP3   OH263672   1.964   2.527  13.227  0.4224 -0.1642 -0.4689
14086TIP3    H163673   2.048   2.564  13.200 -0.4490  1.1448 -1.5488
14086TIP3    H263674   1.958   2.444  13.180  0.0469  0.9141 -2.4591
14087TIP3   OH263675   3.178   4.372  14.125  0.9825 -0.0186  0.5093
14087TIP3    H163676   3.173   4.404  14.215  1.1377  5.4106 -1.0712
14087TIP3    H263677   3.265   4.396  14.095 -0.0236  1.0437 -1.8473
14088TIP3   OH263678   1.996   3.384  14.045 -0.1593  0.0684 -0.5386
14088TIP3    H163679   2.048   3.391  13.965 -0.8871  1.9305 -0.9072
14088TIP3    H263680   1.907   3.367  14.016 -0.2759 -0.1454 -0.0751
14089TIP3   OH263681   5.081   2.996  13.068 -0.6012 -0.2215 -0.5180
14089TIP3    H163682   5.120   2.914  13.100  1.4102  0.2656 -1.5857
14089TIP3    H263683   5.028   2.970  12.992  0.1500 -0.5305 -0.9435
14090TIP3   OH263684   0.801   4.530   3.046 -0.1354 -0.1609  0.4228
14090TIP3    H163685   0.738   4.485   2.989  0.4897  0.1741 -0.5593
14090TIP3    H263686   0.831   4.464   3.107  0.2420 -0.9115 -0.5486
14091TIP3   OH263687   1.406   6.311   1.351  0.0028 -0.5874 -0.2342
14091TIP3    H163688   1.463   6.305   1.428 -1.1008  0.9073  0.7731
14091TIP3    H263689   1.358   6.228   1.351  0.7003 -1.0017  0.1224
14092TIP3   OH263690   4.302   0.748  15.600 -0.7218  0.1859  0.2948
14092TIP3    H163691   4.267   0.660  15.584 -3.2864  0.9982  0.8163
14092TIP3    H263692   4.248   0.805  15.545  0.5843  1.4859  0.3066
14093TIP3   OH263693   2.350   3.292  13.701  0.4067  0.1036  0.5571
14093TIP3    H163694   2.294   3.368  13.689 -1.3951 -1.4451 -1.6136
14093TIP3    H263695   2.326   3.257  13.787  1.4492  2.0240  1.7089
14094TIP3   OH263696   5.617   5.644   1.525  0.0869 -0.0508 -0.3361
14094TIP3    H163697   5.655   5.698   1.456  0.9407 -1.2659 -0.8588
14094TIP3    H263698   5.683   5.577   1.541 -0.2784 -0.0352  1.3879
14095TIP3   OH263699   0.882   6.366  10.807  0.1237 -0.3088  0.0949
14095TIP3    H163700   0.853   6.364  10.898  0.6657  0.8645  0.3172
14095TIP3    H263701   0.805   6.342  10.756 -0.6626  0.6870  0.7734
14096TIP3   OH263702   4.106   1.014   4.918 -0.5669 -0.1863 -0.0700
14096TIP3    H163703   4.133   1.105   4.911  1.1697 -0.7983 -2.3271
14096TIP3    H263704   4.185   0.968   4.946 -1.2736 -1.0969  0.4846
14097TIP3   OH263705   1.401   6.343  14.223 -0.5936  0.1543  0.0402
14097TIP3    H163706   1.462   6.333  14.149 -0.3552 -0.1806  0.2766
14097TIP3    H263707   1.447   6.400  14.284  0.0673 -1.1487  0.8165
14098TIP3   OH263708   3.518   4.060  16.234 -0.1130  0.2736 -0.3787
14098TIP3    H163709   3.481   3.973  16.219  0.3151  0.0227 -0.0180
14098TIP3    H263710   3.463   4.097  16.303  0.6579 -0.3470  0.6127
14099TIP3   OH263711   3.875   2.419  14.065 -0.6609 -0.3508  0.4951
14099TIP3    H163712   3.844   2.383  13.982 -1.4030 -0.6371  0.8922
14099TIP3    H263713   3.831   2.503  14.072 -1.5787 -0.8771  1.1875
14100TIP3   OH263714   1.383   5.144   3.654 -0.1970 -0.3494 -0.1542
14100TIP3    H163715   1.349   5.067   3.610  0.6593 -0.7249 -0.1771
14100TIP3    H263716   1.356   5.217   3.599 -1.3249 -0.5970  0.0614
14101TIP3   OH263717   0.179   0.650   1.465  0.1530 -0.0964  0.3665
14101TIP3    H163718   0.190   0.556   1.476  0.1789 -0.0674  0.5827
14101TIP3    H263719   0.267   0.682   1.442  0.3327  0.0039  1.1849
14102TIP3   OH263720   5.195   1.002   3.020  0.1500 -0.5265 -0.3963
14102TIP3    H163721   5.215   1.043   3.104  0.3997 -2.3926  0.4894
14102TIP3    H263722   5.174   1.076   2.962 -2.5553  0.7163  1.9258
14103TIP3   OH263723   4.303   1.836  12.661 -0.0582  0.0978  0.7063
14103TIP3    H163724   4.390   1.815  12.628  0.2864  0.3581  1.4294
14103TIP3    H263725   4.274   1.910  12.608 -1.3116 -2.1271 -1.9183
14104TIP3   OH263726   4.425   3.434  12.082 -0.0516 -0.5144 -0.1626
14104TIP3    H163727   4.364   3.506  12.093 -2.4186 -2.5914  1.4134
14104TIP3    H263728   4.386   3.378  12.016  0.8560 -1.2345 -0.1157
14105TIP3   OH263729   4.282   5.813   0.090 -0.0771 -0.2370  0.2118
14105TIP3    H163730   4.188   5.823   0.106  0.0427  0.2912  0.5992
14105TIP3    H263731   4.323   5.832   0.174  0.5731  2.6162 -0.6513
14106TIP3   OH263732   3.118   4.630   5.218  0.1358  0.2387  0.3646
14106TIP3    H163733   3.106   4.651   5.310  1.1344  0.7976  0.3799
14106TIP3    H263734   3.114   4.715   5.173 -0.8211 -0.0680 -0.1809
14107TIP3   OH263735   5.648   1.890   3.066 -0.2097  0.2286 -0.1992
14107TIP3    H163736   5.607   1.805   3.053 -1.9460  0.7593  1.3770
14107TIP3    H263737   5.693   1.908   2.983 -1.1577 -1.4904 -1.1343
14108TIP3   OH263738   5.884   6.390  16.183 -0.3717 -0.1586 -0.1647
14108TIP3    H163739   5.874   6.312  16.129  1.6636 -1.0219  0.6042
14108TIP3    H263740   5.957   6.438  16.143  0.8084 -0.5436  1.4528
14109TIP3   OH263741   1.013   5.866  16.248  0.2509  1.1459  0.0684
14109TIP3    H163742   0.919   5.882  16.233 -0.1660  0.7265  1.9634
14109TIP3    H263743   1.043   5.825  16.168 -1.2764  0.9798 -0.4642
14110TIP3   OH263744   6.593   5.695  14.748  0.1051  0.0709 -0.1771
14110TIP3    H163745   6.644   5.624  14.786 -0.7124 -0.2765  0.3062
14110TIP3    H263746   6.586   5.673  14.655 -0.8085 -0.9235  0.0979
14111TIP3   OH263747   1.194   1.539   5.177 -0.0677  0.5221 -0.5819
14111TIP3    H163748   1.102   1.538   5.203  0.8580 -2.4546  3.5001
14111TIP3    H263749   1.205   1.459   5.126  0.3842  0.5048 -0.4579
14112TIP3   OH263750   2.067   6.593   5.296 -0.1445  0.2413 -0.4100
14112TIP3    H163751   2.017   6.632   5.224  1.2986 -1.3763 -2.4030
14112TIP3    H263752   2.141   6.652   5.309 -0.6186  0.7449  0.0524
14113TIP3   OH263753   6.678   0.297  13.354 -0.1709  0.2967 -0.3279
14113TIP3    H163754   6.707   0.371  13.407 -0.7959  0.0621  0.3779
14113TIP3    H263755   6.585   0.287  13.377  0.0950 -1.1916  0.2028
14114TIP3   OH263756   3.447   5.415  15.940  0.6466 -0.2077  0.5850
14114TIP3    H163757   3.495   5.405  16.022  1.3346  1.7208  0.4555
14114TIP3    H263758   3.418   5.506  15.939 -1.2616 -0.7556 -0.3232
14115TIP3   OH263759   3.239   4.903   3.982 -0.1967 -0.2901  0.0206
14115TIP3    H163760   3.332   4.886   3.999  0.3766  0.8882 -1.6607
14115TIP3    H263761   3.199   4.816   3.976  1.2029 -0.8920 -1.1998
14116TIP3   OH263762   3.246   3.830  13.081 -0.3027 -0.4686 -0.3547
14116TIP3    H163763   3.301   3.811  13.157 -1.0094  0.0818  0.3014
14116TIP3    H263764   3.219   3.743  13.050 -0.2609 -0.6816  0.1974
14117TIP3   OH263765   3.393   2.654  11.743  0.3212 -0.0367  0.7678
14117TIP3    H163766   3.298   2.667  11.750  0.3009  0.8266 -0.7429
14117TIP3    H263767   3.411   2.581  11.802 -1.1604  0.2726  1.6714
14118TIP3   OH263768   4.306   2.747   2.414  0.1888  0.1702  0.8273
14118TIP3    H163769   4.222   2.703   2.427 -0.4669  1.2208  0.2750
14118TIP3    H263770   4.369   2.676   2.403 -1.1577 -0.6932 -2.3262
14119TIP3   OH263771   2.388   2.812   0.132 -0.1883  0.1900 -0.0884
14119TIP3    H163772   2.389   2.762   0.214  1.0092 -0.1905 -0.3205
14119TIP3    H263773   2.476   2.802   0.096 -0.9311 -0.3584 -1.8669
14120TIP3   OH263774   0.665   5.892   0.944 -0.2204 -0.2635  0.2772
14120TIP3    H163775   0.603   5.819   0.947  1.5514 -1.9632 -1.2768
14120TIP3    H263776   0.727   5.874   1.015 -0.0166 -0.0764  0.1496
14121TIP3   OH263777   4.094   0.005  13.003  0.0868 -0.0875  0.0547
14121TIP3    H163778   4.088  -0.090  12.993 -0.6483 -0.2669  1.7809
14121TIP3    H263779   4.007   0.038  12.981  0.0575  0.0734  0.3971
14122TIP3   OH263780   0.225   3.358  13.056 -0.0702  0.9886 -0.0916
14122TIP3    H163781   0.290   3.288  13.051 -1.2333 -0.4301  2.7752
14122TIP3    H263782   0.162   3.336  12.988 -0.5973 -1.0279  0.9791
14123TIP3   OH263783   5.289   0.884   3.571 -0.1721  0.1495  0.8051
14123TIP3    H163784   5.360   0.920   3.623 -1.3055  0.6587  2.0486
14123TIP3    H263785   5.328   0.869   3.485  1.1109  1.5652  1.0937
14124TIP3   OH263786   0.935   5.681  14.919  0.3415 -0.0802 -0.6736
14124TIP3    H163787   0.989   5.732  14.859 -1.7517  1.4904 -1.2985
14124TIP3    H263788   0.878   5.629  14.862 -0.5916  0.2379 -0.0441
14125TIP3   OH263789   0.931   2.866  10.626  0.0146 -0.5530 -0.4184
14125TIP3    H163790   0.963   2.833  10.710  0.5013  2.2192  0.6144
14125TIP3    H263791   0.995   2.934  10.602 -1.7886  0.8777 -1.4233
14126TIP3   OH263792   6.316   1.148  16.318  0.6402  0.6997  0.2504
14126TIP3    H163793   6.366   1.132  16.398 -1.6878 -1.1412  1.4588
14126TIP3    H263794   6.367   1.107  16.248  2.6686  2.2597  0.7288
14127TIP3   OH263795   1.605   5.546  11.761 -0.4793 -0.3972  0.4298
14127TIP3    H163796   1.681   5.601  11.745 -0.4965 -0.3173  0.6186
14127TIP3    H263797   1.530   5.602  11.742 -0.5289  0.0201  1.7116
14128TIP3   OH263798   4.376   1.650   3.554 -0.1739  0.2429 -0.1083
14128TIP3    H163799   4.378   1.743   3.533 -0.6296  0.0254 -1.1876
14128TIP3    H263800   4.329   1.610   3.481 -0.4018 -0.7744  0.5745
14129TIP3   OH263801   6.694   1.730  11.707  0.1764 -0.4169 -0.4640
14129TIP3    H163802   6.654   1.643  11.703 -1.4272  0.3099 -1.5988
14129TIP3    H263803   6.721   1.748  11.617 -0.1644  0.5293 -0.3896
14130TIP3   OH263804   2.894   1.214  13.441 -0.1973  0.5383  0.1554
14130TIP3    H163805   2.838   1.291  13.450 -1.6351 -0.5335  0.6967
14130TIP3    H263806   2.972   1.235  13.493 -2.0294  0.3236  3.1883
14131TIP3   OH263807   3.072   1.862   2.906 -0.0600 -0.5195  0.1772
14131TIP3    H163808   3.080   1.836   2.814 -2.9622 -0.8626 -0.0661
14131TIP3    H263809   3.103   1.952   2.908 -0.0996 -0.4535 -1.1844
14132TIP3   OH263810   6.213   2.944  14.876 -0.3716  0.4313  0.0260
14132TIP3    H163811   6.128   2.949  14.834 -1.2467 -2.1333  1.2405
14132TIP3    H263812   6.250   2.860  14.846 -0.7624 -1.2160  3.6010
14133TIP3   OH263813   0.978   5.960  11.797 -0.5775 -0.0835  0.2509
14133TIP3    H163814   0.994   5.881  11.849 -0.1884  0.3435  0.7972
14133TIP3    H263815   0.887   5.983  11.816 -1.2649 -1.3707 -1.2781
14134TIP3   OH263816   1.424   2.850   5.620  0.4400  0.3777 -0.5783
14134TIP3    H163817   1.336   2.887   5.611  0.8103  1.4558  0.1147
14134TIP3    H263818   1.445   2.860   5.713 -0.3422 -3.6616  0.2571
14135TIP3   OH263819   1.384   3.610   3.213  0.1683 -0.0520 -0.2276
14135TIP3    H163820   1.315   3.556   3.176 -1.0676  1.7226 -0.6159
14135TIP3    H263821   1.404   3.675   3.145  0.8218  0.6710  0.6185
14136TIP3   OH263822   5.433   1.537   4.059  0.3075 -0.1490 -0.0265
14136TIP3    H163823   5.502   1.483   4.097  0.0546 -1.2853 -1.1217
14136TIP3    H263824   5.367   1.544   4.127  0.5078 -0.9257  0.2509
14137TIP3   OH263825   1.384   3.507   2.520  0.4174  0.3545  0.1171
14137TIP3    H163826   1.306   3.488   2.469  0.5998  1.0701 -0.4398
14137TIP3    H263827   1.455   3.507   2.456  1.0346 -1.2230  0.7521
14138TIP3   OH263828   3.014   5.841   6.816 -0.2300  0.2917 -0.0051
14138TIP3    H163829   2.957   5.768   6.844  0.2372 -0.6583 -1.3829
14138TIP3    H263830   3.027   5.825   6.722  0.1032  2.0296 -0.2736
14139TIP3   OH263831   5.862   6.242   5.060 -0.4872 -0.2003 -0.7655
14139TIP3    H163832   5.789   6.299   5.084 -0.3674 -0.3643  0.0137
14139TIP3    H263833   5.938   6.300   5.059  0.0055 -0.6539  2.0532
14140TIP3   OH263834   3.911   4.919   3.691 -0.1043 -0.0392  0.3320
14140TIP3    H163835   3.841   4.854   3.699  0.2648 -0.5678 -0.5722
14140TIP3    H263836   3.951   4.922   3.778  1.0100 -2.3493 -0.0177
14141TIP3   OH263837   4.342   0.075  12.185 -0.1282 -0.0631 -0.2882
14141TIP3    H163838   4.398   0.049  12.259 -0.6270  2.6099  1.1660
14141TIP3    H263839   4.253   0.072  12.220 -0.8409 -2.6706 -2.0879
14142TIP3   OH263840   1.159   2.577  11.500  0.3535  0.0107 -0.3398
14142TIP3    H163841   1.151   2.481  11.505  0.5936 -0.1616 -2.3806
14142TIP3    H263842   1.070   2.607  11.481 -0.1507  0.4356  2.3316
14143TIP3   OH263843   4.925   3.067  13.842  0.5844  0.0960  0.3440
14143TIP3    H163844   4.858   3.070  13.910 -1.8984  1.3771 -1.9800
14143TIP3    H263845   4.884   3.019  13.770  1.9659  1.3330 -1.3542
14144TIP3   OH263846   3.734   3.000  15.780  0.2930 -0.1624  0.0294
14144TIP3    H163847   3.704   2.909  15.787 -0.1157  0.0285  0.8365
14144TIP3    H263848   3.666   3.043  15.728 -0.6481  0.1641  1.4708
14145TIP3   OH263849   2.511   2.439   4.297 -0.0622  0.2469 -0.6237
14145TIP3    H163850   2.421   2.451   4.327  0.0254  1.3913 -0.7618
14145TIP3    H263851   2.508   2.362   4.240 -0.9433  0.2642 -0.6084
14146TIP3   OH263852   0.729   5.599   2.173 -0.4609 -0.7214 -0.9084
14146TIP3    H163853   0.670   5.607   2.249  0.4826  0.1941 -0.2443
14146TIP3    H263854   0.722   5.684   2.129 -2.3332 -1.8024 -2.9104
14147TIP3   OH263855   6.317   0.241   6.590  0.2193 -0.0547 -0.7687
14147TIP3    H163856   6.367   0.293   6.526  1.1233 -0.8255 -0.7199
14147TIP3    H263857   6.226   0.248   6.560  0.3664  1.1922 -1.0034
14148TIP3   OH263858   6.385   5.776   5.827 -0.4464 -0.2504  0.0892
14148TIP3    H163859   6.437   5.833   5.771  1.3424 -1.4648  0.4061
14148TIP3    H263860   6.401   5.688   5.794  0.3047 -0.9610  2.1553
14149TIP3   OH263861   3.696   4.171  12.928  0.4760  0.0996 -0.7159
14149TIP3    H163862   3.643   4.202  13.001 -0.7443  2.2711 -2.3931
14149TIP3    H263863   3.687   4.076  12.931 -0.9777  0.2367  0.9083
14150TIP3   OH263864   3.005   5.897   1.951  0.1421 -0.0089 -0.2692
14150TIP3    H163865   2.929   5.838   1.957  0.8399 -0.9080  0.0471
14150TIP3    H263866   3.029   5.914   2.043  0.4206  0.1399 -0.3688
14151TIP3   OH263867   4.137   4.272  16.735 -0.2114  0.1970 -0.0239
14151TIP3    H163868   4.187   4.340  16.690 -1.2138 -0.2010 -1.8462
14151TIP3    H263869   4.168   4.275  16.825  1.9771  0.9803 -0.7402
14152TIP3   OH263870   1.029   3.919   3.128 -0.4297 -0.0420  0.2945
14152TIP3    H163871   1.098   3.899   3.191  0.6197  3.1243  0.3446
14152TIP3    H263872   1.071   3.910   3.043 -0.3346  0.5208  0.2748
14153TIP3   OH263873   0.630   5.658   4.487  0.4806  0.3149  0.3255
14153TIP3    H163874   0.547   5.655   4.534  0.5561  0.8250  0.5005
14153TIP3    H263875   0.624   5.588   4.422  0.7292 -1.0145  1.6664
14154TIP3   OH263876   4.990   5.279  15.386  0.3484 -0.3115  0.1971
14154TIP3    H163877   4.930   5.287  15.313 -0.3507  0.2490  0.8187
14154TIP3    H263878   5.072   5.316  15.355 -0.1079  0.4523 -0.1163
14155TIP3   OH263879   0.836   4.270   5.372  0.5871  0.0285  0.3987
14155TIP3    H163880   0.873   4.355   5.350 -0.1203  1.0353  2.7360
14155TIP3    H263881   0.887   4.207   5.321  1.5257  1.7813 -0.9358
14156TIP3   OH263882   4.378   2.785   5.779 -0.0357 -0.6014 -0.3424
14156TIP3    H163883   4.423   2.715   5.826 -0.3163  0.2274  1.2494
14156TIP3    H263884   4.417   2.785   5.692  1.7012 -1.1315  0.3986
14157TIP3   OH263885   4.231   0.899  11.371  0.1877 -0.0315 -0.4884
14157TIP3    H163886   4.292   0.932  11.304  1.4201 -1.7149 -0.2588
14157TIP3    H263887   4.172   0.841  11.322 -0.7315  0.9329 -0.5621
14158TIP3   OH263888   1.491   3.919  15.608  0.8266 -0.2241  0.1672
14158TIP3    H163889   1.560   3.860  15.635  0.9720 -0.3282 -0.4233
14158TIP3    H263890   1.442   3.938  15.689  0.3542 -1.6861  0.2407
14159TIP3   OH263891   0.015   0.960  13.377  0.0015 -0.2945 -0.3452
14159TIP3    H163892  -0.044   1.016  13.326 -0.4375 -0.0812  0.3738
14159TIP3    H263893   0.000   0.872  13.343 -0.9713 -0.2894  0.0209
14160TIP3   OH263894   6.474   6.519   3.333 -0.0952 -1.1509  0.3082
14160TIP3    H163895   6.396   6.554   3.375  0.9687  0.9427  0.6776
14160TIP3    H263896   6.533   6.594   3.326  2.0416 -2.7259  0.3854
14161TIP3   OH263897   6.081   2.480   5.244  0.3680 -0.4232  0.5286
14161TIP3    H163898   6.112   2.391   5.265 -2.8470 -1.5581  1.0334
14161TIP3    H263899   6.132   2.505   5.168  0.6252 -3.2306 -0.3495
14162TIP3   OH263900   2.457   3.341  11.598  0.2092  0.4655 -0.1220
14162TIP3    H163901   2.363   3.361  11.601  0.4791  1.6793  1.5570
14162TIP3    H263902   2.485   3.371  11.512 -0.9023  0.2465 -0.5817
14163TIP3   OH263903   5.315   3.015   2.660  0.1615  0.1353  0.0619
14163TIP3    H163904   5.310   3.029   2.754 -1.3796 -0.3792  0.0934
14163TIP3    H263905   5.397   3.056   2.633  1.0943 -0.5605  1.7548
14164TIP3   OH263906   6.265   5.834   3.050 -0.2639  0.1578  0.4110
14164TIP3    H163907   6.273   5.928   3.067  3.2016 -0.0392  0.6330
14164TIP3    H263908   6.251   5.795   3.136 -1.4532  0.4336  0.3512
14165TIP3   OH263909   4.396   3.073  15.182  0.5171 -0.7854 -0.0143
14165TIP3    H163910   4.446   3.037  15.110  2.7119  0.3764  0.8279
14165TIP3    H263911   4.334   3.004  15.206 -3.0503  0.0204 -5.2667
14166TIP3   OH263912   3.801   2.958   3.687 -0.1368  0.5501 -0.0338
14166TIP3    H163913   3.870   2.997   3.632  1.1527 -0.5392  0.7512
14166TIP3    H263914   3.846   2.889   3.735 -1.7698 -0.0686  0.6469
14167TIP3   OH263915   5.586   5.789  16.408 -0.1850 -0.0060  0.5448
14167TIP3    H163916   5.620   5.766  16.494 -0.0392  0.8414  0.7160
14167TIP3    H263917   5.636   5.866  16.381 -1.2943  0.6863  0.3860
14168TIP3   OH263918   6.152   6.770  15.648  1.1687 -0.5875 -0.5762
14168TIP3    H163919   6.132   6.677  15.637 -1.4304 -0.0463 -0.9394
14168TIP3    H263920   6.108   6.813  15.575  0.7948  1.1193  0.5938
14169TIP3   OH263921   2.792   3.631   1.942 -0.7372  0.1641 -0.4221
14169TIP3    H163922   2.791   3.585   1.858 -1.3405 -0.0185 -0.3182
14169TIP3    H263923   2.883   3.658   1.953 -0.0018 -2.3210  0.2203
14170TIP3   OH263924   6.118   0.064   3.606 -0.4332 -0.1072 -0.0039
14170TIP3    H163925   6.064   0.144   3.608 -1.0861 -0.5082  2.5382
14170TIP3    H263926   6.168   0.068   3.688  1.7631 -0.8904 -1.2374
14171TIP3   OH263927   2.071   5.655   0.683 -0.3880  0.0948 -0.5477
14171TIP3    H163928   2.121   5.592   0.632  0.7573 -1.0865  1.8482
14171TIP3    H263929   1.982   5.620   0.686 -0.1274 -0.5743 -0.5547
14172TIP3   OH263930   4.119   2.971   2.019  0.6507  0.0251 -0.6704
14172TIP3    H163931   4.172   2.930   1.950  0.2183 -0.4211 -0.7405
14172TIP3    H263932   4.178   2.976   2.095  1.0004  0.1461 -0.9455
14173TIP3   OH263933   4.069   5.737   2.479  0.4647  0.2944 -0.6212
14173TIP3    H163934   3.998   5.787   2.438 -1.0638  0.7998  2.3524
14173TIP3    H263935   4.032   5.649   2.490 -0.2838  0.8632  2.0242
14174TIP3   OH263936   3.876   0.948   1.427  0.3617 -0.5845  0.0935
14174TIP3    H163937   3.955   1.001   1.412  0.1748 -0.8955 -2.4385
14174TIP3    H263938   3.901   0.860   1.401 -0.8975 -0.5995 -1.2065
14175TIP3   OH263939   4.704   2.794   0.425 -0.4268  0.9801 -0.2893
14175TIP3    H163940   4.758   2.873   0.436  2.0807 -0.5924 -0.4736
14175TIP3    H263941   4.718   2.769   0.334  0.4807 -0.7470  0.2863
14176TIP3   OH263942   1.942   3.632   5.454  0.3455 -0.0886 -0.4025
14176TIP3    H163943   1.911   3.620   5.364  1.9449  0.5327 -1.0620
14176TIP3    H263944   1.992   3.713   5.451  2.0419 -1.0469  0.6000
14177TIP3   OH263945   2.743   1.901  16.376  0.2837 -0.0170  0.2585
14177TIP3    H163946   2.759   1.815  16.415 -0.6813 -0.2775  0.1242
14177TIP3    H263947   2.649   1.914  16.386  0.3647  0.8604 -0.0659
14178TIP3   OH263948   5.021   1.938   1.008 -0.4655 -0.0094  0.5562
14178TIP3    H163949   4.998   1.912   0.919 -1.3297  0.0702  0.7410
14178TIP3    H263950   5.046   2.030   1.000  1.5951 -0.5629  0.0690
14179TIP3   OH263951   3.414   1.155  17.103  0.6204 -0.3750  0.1512
14179TIP3    H163952   3.323   1.125  17.096  0.0322  1.5160 -1.2735
14179TIP3    H263953   3.408   1.242  17.143  1.7388 -0.0309 -0.3764
14180TIP3   OH263954   0.420   4.083  11.871  0.3169 -0.0166  0.3418
14180TIP3    H163955   0.442   4.032  11.949  3.9732  0.0491 -0.4955
14180TIP3    H263956   0.415   4.173  11.902 -1.0019 -0.2532  0.9061
14181TIP3   OH263957   5.468   4.447  16.922 -0.2709  0.3285 -0.1829
14181TIP3    H163958   5.457   4.507  16.996  1.0162 -1.9248  2.0437
14181TIP3    H263959   5.387   4.396  16.921 -0.0411 -0.0594  0.1526
14182TIP3   OH263960   2.208   1.113  13.031 -0.1194  0.0524  0.5134
14182TIP3    H163961   2.211   1.208  13.039 -0.1019 -0.0357  1.8409
14182TIP3    H263962   2.295   1.083  13.058  0.1391 -0.3164 -0.6553
14183TIP3   OH263963   5.330   3.987   3.267 -0.3249  0.6248  0.3034
14183TIP3    H163964   5.305   4.047   3.197  0.9978  1.4049  0.4617
14183TIP3    H263965   5.421   3.965   3.248 -0.5974 -0.8989  0.5783
14184TIP3   OH263966   2.115   5.979   2.221 -0.6421 -0.0159  0.7974
14184TIP3    H163967   2.055   5.908   2.246 -1.1736 -0.0607 -0.5226
14184TIP3    H263968   2.057   6.051   2.196 -0.1717 -0.0892 -0.5821
14185TIP3   OH263969   4.184   6.198  13.124 -0.2881  0.3947 -0.5113
14185TIP3    H163970   4.091   6.203  13.147  0.0438 -1.7836  1.6962
14185TIP3    H263971   4.188   6.229  13.033 -3.2768 -0.1893 -0.9456
14186TIP3   OH263972   0.226   0.942   5.252 -0.2296  0.8735 -0.1673
14186TIP3    H163973   0.145   0.897   5.276  0.3580 -0.5442 -0.7348
14186TIP3    H263974   0.220   1.027   5.296 -2.7876  1.5254 -1.5673
14187TIP3   OH263975   6.462   0.566  15.675  0.5325  0.1975 -0.3883
14187TIP3    H163976   6.373   0.530  15.675  1.1567 -1.4478  0.4699
14187TIP3    H263977   6.499   0.538  15.759  1.5902  1.6072 -0.3418
14188TIP3   OH263978   2.400   5.194   5.874 -0.1494 -0.5402  0.1267
14188TIP3    H163979   2.387   5.276   5.922 -0.5819 -0.9920  0.8001
14188TIP3    H263980   2.467   5.215   5.809 -1.3059  0.7423 -0.7080
14189TIP3   OH263981   3.169   1.193   3.989 -0.6233 -0.3513 -0.7017
14189TIP3    H163982   3.207   1.279   3.970  0.4631 -0.5556  0.4978
14189TIP3    H263983   3.241   1.141   4.023 -1.3885 -1.5992 -0.9139
14190TIP3   OH263984   6.667   4.273   3.092 -0.4507  0.1866 -0.1467
14190TIP3    H163985   6.734   4.334   3.121  0.7193 -0.0627 -2.1729
14190TIP3    H263986   6.585   4.323   3.099 -0.2497  0.3247  2.8586
14191TIP3   OH263987   1.344   0.059   2.079  0.1156 -0.6314  0.0537
14191TIP3    H163988   1.326  -0.030   2.109 -0.7468 -0.9508 -1.3019
14191TIP3    H263989   1.429   0.053   2.035 -0.0006 -0.8185 -0.1466
14192TIP3   OH263990   2.339   0.953  16.452  0.1981  0.6696  0.4110
14192TIP3    H163991   2.278   1.024  16.432 -1.2208 -0.7297 -0.5452
14192TIP3    H263992   2.400   0.952  16.378  1.7920  2.4050  1.6202
14193TIP3   OH263993   3.161   2.164  14.163  0.7128 -0.1229  0.5734
14193TIP3    H163994   3.236   2.194  14.111  0.3512  0.5492  0.4251
14193TIP3    H263995   3.099   2.237  14.159 -0.4844 -1.1632 -0.3564
14194TIP3   OH263996   5.439   3.537   0.264  0.1221 -0.2157  0.3260
14194TIP3    H163997   5.422   3.569   0.175 -2.7134 -1.9636  0.0984
14194TIP3    H263998   5.529   3.563   0.282  0.6826  0.5649 -2.8969
14195TIP3   OH263999   4.164   4.581   2.785 -0.2691  0.7179 -0.2923
14195TIP3    H164000   4.204   4.555   2.868 -1.6326 -0.7687 -0.0555
14195TIP3    H264001   4.234   4.571   2.720  0.4384  0.6267  0.4727
14196TIP3   OH264002   0.943   2.538   4.552  0.4357 -0.4553  0.2498
14196TIP3    H164003   0.860   2.585   4.555  1.2407  1.0255  0.2457
14196TIP3    H264004   0.984   2.564   4.470  0.4593 -2.0050 -0.2631
14197TIP3   OH264005   1.304   4.617   5.716 -0.0891  0.2437  1.1060
14197TIP3    H164006   1.357   4.559   5.662 -1.3605 -0.3300  0.4424
14197TIP3    H264007   1.253   4.668   5.654 -1.9521 -0.7764  1.7295
14198TIP3   OH264008   3.847   6.441   2.620 -0.1808 -0.0345 -0.0928
14198TIP3    H164009   3.802   6.434   2.535  0.5208 -0.6749 -0.4347
14198TIP3    H264010   3.927   6.490   2.600  0.8994 -1.7487 -0.2224
14199TIP3   OH264011   2.654   3.999   6.290  0.4528 -0.0231  0.0582
14199TIP3    H164012   2.690   3.984   6.202  1.8030 -2.1071  0.8756
14199TIP3    H264013   2.589   3.930   6.302  1.3918 -0.7602  1.2135
14200TIP3   OH264014   0.410   6.562  14.910 -0.2300 -0.4852 -0.2130
14200TIP3    H164015   0.468   6.630  14.945 -0.3836 -0.6327  0.3290
14200TIP3    H264016   0.323   6.603  14.908 -0.5363 -1.0176  1.1743
14201TIP3   OH264017   3.801   1.893   0.474 -0.3924  0.1687  0.5548
14201TIP3    H164018   3.870   1.892   0.408 -0.7336  2.6653  0.0559
14201TIP3    H264019   3.733   1.837   0.439 -0.0675  0.5117 -0.6665
14202TIP3   OH264020   5.186   0.989  16.421  0.4010  0.1767  0.2484
14202TIP3    H164021   5.195   0.964  16.513  0.6684 -0.0969  0.1489
14202TIP3    H264022   5.138   1.072  16.424  0.3296  0.1256  0.6289
14203TIP3   OH264023   5.891   0.662   0.646 -0.3436  0.0082 -0.1602
14203TIP3    H164024   5.914   0.640   0.736  0.2266 -1.0195 -0.5366
14203TIP3    H264025   5.841   0.743   0.653  1.4469  1.1002  0.9115
14204TIP3   OH264026   1.858   2.219   5.241 -0.4140  0.3976 -0.3448
14204TIP3    H164027   1.951   2.200   5.232 -0.3335 -1.0819  2.5519
14204TIP3    H264028   1.855   2.309   5.273  0.0922  0.0936  0.5737
14205TIP3   OH264029   3.163   1.743   4.464  0.8716 -0.2769 -0.6121
14205TIP3    H164030   3.164   1.839   4.465 -2.2781 -0.1441 -1.0784
14205TIP3    H264031   3.186   1.717   4.553  1.3976  0.9074 -0.3854
14206TIP3   OH264032   3.105   6.327  15.219  0.1107  0.7651 -0.4710
14206TIP3    H164033   3.125   6.305  15.129 -0.6192  0.2411 -0.5162
14206TIP3    H264034   3.170   6.279  15.271  0.5605  1.1060 -0.7133
14207TIP3   OH264035   3.173   6.471  14.043 -0.2739 -0.0514 -0.2580
14207TIP3    H164036   3.126   6.555  14.039  0.6489  0.4761 -0.2436
14207TIP3    H264037   3.205   6.466  14.133  1.2818  0.4840 -0.7616
14208TIP3   OH264038   1.663   5.468   6.333 -0.4136  0.5347  0.0616
14208TIP3    H164039   1.703   5.552   6.358 -0.4800  0.3863  0.6737
14208TIP3    H264040   1.601   5.491   6.264  1.1540  0.6987 -1.3878
14209TIP3   OH264041   1.397   0.615  12.483  0.3530  0.3408 -0.1075
14209TIP3    H164042   1.383   0.521  12.486 -0.5115  0.4755  0.6360
14209TIP3    H264043   1.433   0.637  12.569 -0.2973  0.8020  0.0548
14210TIP3   OH264044   6.241   6.645  16.721 -0.4240  0.3640 -0.2480
14210TIP3    H164045   6.209   6.587  16.652 -0.8876 -0.6636  0.7957
14210TIP3    H264046   6.336   6.634  16.719 -0.5719 -1.3388  0.6821
14211TIP3   OH264047   5.217   2.835   4.822  0.0261 -0.1312  0.1776
14211TIP3    H164048   5.277   2.869   4.888 -0.4172  1.5554 -0.2487
14211TIP3    H264049   5.140   2.807   4.873  0.8500 -1.6777  0.6488
14212TIP3   OH264050   3.614   5.301  12.248 -0.7843  0.1412 -0.0230
14212TIP3    H164051   3.686   5.238  12.241 -0.1754  0.8594 -0.3164
14212TIP3    H264052   3.550   5.257  12.303  0.1284 -0.2985  0.7305
14213TIP3   OH264053   3.698   2.630   1.859  0.3643 -0.0296  0.0091
14213TIP3    H164054   3.775   2.685   1.849  0.2161  0.2277  0.2725
14213TIP3    H264055   3.732   2.546   1.889  0.5091  0.2171  0.5555
14214TIP3   OH264056   0.942   5.723   5.642 -0.3469 -0.4270 -0.4192
14214TIP3    H164057   0.909   5.800   5.689  0.2501  0.2216 -1.0372
14214TIP3    H264058   1.004   5.683   5.703 -2.9585 -2.3173  1.2351
14215TIP3   OH264059   5.952   1.076   2.712  0.4327  0.2714  0.0608
14215TIP3    H164060   5.901   0.995   2.708 -0.0255  0.5938 -2.0324
14215TIP3    H264061   5.994   1.082   2.626  0.2785  2.3462  0.0894
14216TIP3   OH264062   0.794   3.829   5.209  0.3074 -0.0628 -0.5454
14216TIP3    H164063   0.769   3.831   5.301  1.1621  0.6647 -0.3245
14216TIP3    H264064   0.776   3.917   5.177  0.8320 -0.0587 -0.8450
14217TIP3   OH264065   3.742   0.254   1.567  0.0778 -0.5819 -0.5194
14217TIP3    H164066   3.835   0.233   1.576 -0.2117 -1.6024  0.3787
14217TIP3    H264067   3.701   0.170   1.544 -0.4621  0.1266 -2.3505
14218TIP3   OH264068   2.532   6.424   1.299 -0.1962  0.2861 -0.0799
14218TIP3    H164069   2.502   6.424   1.208 -0.6478  1.5657  0.0624
14218TIP3    H264070   2.521   6.514   1.329  0.7521  0.0739  0.9885
14219TIP3   OH264071   0.841   4.115  12.808  0.0024  0.2399 -0.1455
14219TIP3    H164072   0.815   4.195  12.763  1.0077  0.6417 -0.0362
14219TIP3    H264073   0.918   4.084  12.759  0.6081  0.2315  0.7830
14220TIP3   OH264074   4.353   4.408  15.949  0.3799 -0.1333 -0.3176
14220TIP3    H164075   4.317   4.380  16.033  0.4086 -1.4981 -0.7328
14220TIP3    H264076   4.402   4.332  15.917  2.3093  1.1229 -0.5273
14221TIP3   OH264077   3.620   2.750  15.776 -0.3999 -0.4223  0.1979
14221TIP3    H164078   3.640   2.658  15.792 -0.3384 -0.8289 -1.9306
14221TIP3    H264079   3.547   2.770  15.835  0.5096 -1.4101  1.6923
14222TIP3   OH264080   6.313   4.961   4.579  0.2545 -0.0709  0.1823
14222TIP3    H164081   6.312   5.055   4.565 -0.8915 -0.1120 -0.0717
14222TIP3    H264082   6.236   4.928   4.533  0.4923 -1.1036  0.4779
14223TIP3   OH264083   2.231   3.643  15.714  0.3789 -0.7574  0.6696
14223TIP3    H164084   2.157   3.694  15.681 -0.2943 -1.8459  0.4419
14223TIP3    H264085   2.308   3.686  15.677 -0.3083 -1.4930 -1.8054
14224TIP3   OH264086   4.633   0.734   2.528  0.1189  0.3909 -0.0146
14224TIP3    H164087   4.718   0.703   2.560 -0.1557 -0.6195 -0.2347
14224TIP3    H264088   4.654   0.806   2.468  0.8047  0.2853  0.0957
14225TIP3   OH264089   4.912   1.298  16.127 -0.2126  0.3751  0.2606
14225TIP3    H164090   4.911   1.258  16.040 -1.3806  0.1654  0.3578
14225TIP3    H264091   4.829   1.273  16.166 -0.2242  1.4663  0.9847
14226TIP3   OH264092   0.315   0.830   0.446 -0.1508  0.0192  0.1395
14226TIP3    H164093   0.368   0.791   0.376  1.1817  0.6533  0.7621
14226TIP3    H264094   0.226   0.796   0.430  0.7411 -2.5576  0.1397
14227TIP3   OH264095   4.003   4.925   3.986  0.5000  0.3309 -0.4158
14227TIP3    H164096   4.057   4.931   4.065 -2.0773 -0.0023  1.5397
14227TIP3    H264097   4.005   5.013   3.949  0.5257  0.9409  0.9548
14228TIP3   OH264098   6.044   2.084   4.971 -0.5276 -0.6029  0.3876
14228TIP3    H164099   6.098   2.031   5.029  1.0868  0.7093  0.1717
14228TIP3    H264100   6.065   2.053   4.883 -1.0328 -0.8840  0.3661
14229TIP3   OH264101   2.184   3.246  11.404 -0.5362  0.4529 -0.0768
14229TIP3    H164102   2.171   3.310  11.474  0.4249 -0.3473  0.8571
14229TIP3    H264103   2.104   3.193  11.405 -0.3363  0.1549  0.7346
14230TIP3   OH264104   4.410   0.949   5.234  0.0765  0.3031 -0.3583
14230TIP3    H164105   4.390   0.964   5.142 -2.4643  0.0435  0.0836
14230TIP3    H264106   4.385   0.858   5.250  0.8004  0.2393  0.5415
14231TIP3   OH264107   5.711   0.319  14.786  0.2332 -0.1466  0.1748
14231TIP3    H164108   5.786   0.350  14.735 -1.1018 -0.3450 -2.0468
14231TIP3    H264109   5.741   0.240  14.829  1.6121  0.3886  0.2347
14232TIP3   OH264110   0.449   5.356   0.413 -0.4625  0.4454  0.1107
14232TIP3    H164111   0.382   5.290   0.430  1.0391 -1.2201 -0.1442
14232TIP3    H264112   0.528   5.320   0.453  0.5806  1.7369 -0.7130
14233TIP3   OH264113   1.716   3.867   1.076  0.0560  0.3907  0.2960
14233TIP3    H164114   1.657   3.923   1.125  2.0388  2.9305 -0.0103
14233TIP3    H264115   1.777   3.834   1.141 -0.6922 -0.9190  0.3628
14234TIP3   OH264116   1.700   0.335  10.439  0.4109 -0.1696  0.1738
14234TIP3    H164117   1.627   0.384  10.477 -0.5807  0.9717 -2.8854
14234TIP3    H264118   1.683   0.244  10.464 -0.8171  0.3475  1.3481
14235TIP3   OH264119   6.215   4.483  11.971 -0.3814  0.0846 -0.0932
14235TIP3    H164120   6.274   4.470  12.045  0.3697  2.4842 -0.1673
14235TIP3    H264121   6.178   4.571  11.985 -0.9578  0.2114 -2.0666
14236TIP3   OH264122   3.034   4.634  11.792  0.3042  0.0126  0.5194
14236TIP3    H164123   2.955   4.688  11.790  1.3169  1.5295 -0.5187
14236TIP3    H264124   3.082   4.664  11.868  0.8533  0.5607 -0.0383
14237TIP3   OH264125   2.519   0.957  15.092  0.0579 -0.5267  0.5497
14237TIP3    H164126   2.500   1.046  15.062  0.5261 -0.1411  1.3841
14237TIP3    H264127   2.493   0.956  15.184  0.0375 -1.2610  0.5426
14238TIP3   OH264128   6.597   3.641  11.807  0.2606  0.0381 -0.0925
14238TIP3    H164129   6.668   3.625  11.870  0.3077 -0.9451 -0.3749
14238TIP3    H264130   6.523   3.667  11.862 -0.1434 -2.2432  0.5784
14239TIP3   OH264131   0.754   5.116   5.731 -0.5024  0.0311  1.0947
14239TIP3    H164132   0.684   5.056   5.755  0.0135 -0.6593  0.9042
14239TIP3    H264133   0.834   5.065   5.742  0.0592  1.1173  2.2750
14240TIP3   OH264134   2.606   2.706  11.725 -0.4017 -0.3900 -0.4705
14240TIP3    H164135   2.542   2.638  11.707 -1.4232  0.1739  0.8750
14240TIP3    H264136   2.609   2.712  11.821 -0.1824  1.2989 -0.5558
14241TIP3   OH264137   0.583   4.045   3.473 -0.0552 -0.4848 -0.1499
14241TIP3    H164138   0.591   3.955   3.504  0.2162 -0.3855  0.0685
14241TIP3    H264139   0.617   4.098   3.545 -1.0537 -0.1578  0.0991
14242TIP3   OH264140   3.153   5.111  14.810 -0.2110  0.6367 -0.3141
14242TIP3    H164141   3.149   5.096  14.904 -1.5997  0.9900 -0.2969
14242TIP3    H264142   3.226   5.173  14.799  0.3523  0.1382  0.4408
14243TIP3   OH264143   4.648   6.632  16.719 -0.2237 -0.3762  0.3518
14243TIP3    H164144   4.570   6.679  16.748 -0.4107  0.8358 -1.8790
14243TIP3    H264145   4.720   6.673  16.767 -0.7351 -0.0491  0.8518
14244TIP3   OH264146   6.127   3.383  11.689 -0.1356  0.5093 -0.1597
14244TIP3    H164147   6.070   3.322  11.642 -0.5214  0.7129  0.0363
14244TIP3    H264148   6.085   3.469  11.676  0.3477  0.7222 -0.3533
14245TIP3   OH264149   0.821   5.619   3.638 -0.3099 -0.2581  0.4094
14245TIP3    H164150   0.864   5.535   3.654  2.0099  0.8999  0.7607
14245TIP3    H264151   0.861   5.650   3.556 -0.6945  0.7576  0.5942
14246TIP3   OH264152   5.205   0.596   4.845 -0.6543  0.1268 -0.1580
14246TIP3    H164153   5.242   0.675   4.886 -0.9728 -0.1168  0.6052
14246TIP3    H264154   5.137   0.629   4.787 -0.4525  0.4506 -0.2126
14247TIP3   OH264155   1.157   0.232   4.565 -0.0016  0.8431  0.6665
14247TIP3    H164156   1.098   0.305   4.584 -1.2466  0.3169 -0.9893
14247TIP3    H264157   1.134   0.205   4.476  1.0212 -1.0128  0.9226
14248TIP3   OH264158   4.951   5.903  13.712  0.2684  0.0084  0.5020
14248TIP3    H164159   4.970   5.955  13.633  0.0907  0.4454  0.7429
14248TIP3    H264160   4.883   5.953  13.757  1.0495  0.2657  1.4203
14249TIP3   OH264161   1.720   3.408  11.844  0.0924  0.5957 -0.1412
14249TIP3    H164162   1.753   3.498  11.843  1.2261  0.2221 -2.6603
14249TIP3    H264163   1.636   3.414  11.890  0.7676  2.6648  0.9603
14250TIP3   OH264164   5.860   4.108  15.861  1.2324  0.1918 -0.7363
14250TIP3    H164165   5.829   4.149  15.942 -0.8748  1.1447 -1.9271
14250TIP3    H264166   5.870   4.016  15.883  0.5460  0.4045  0.5822
14251TIP3   OH264167   1.507   4.004   1.191  0.3976  1.1297 -0.7940
14251TIP3    H164168   1.472   3.944   1.256  0.6883  0.8228 -0.9162
14251TIP3    H264169   1.435   4.064   1.172 -0.1795  0.3048 -1.2937
14252TIP3   OH264170   3.925   0.973   1.727 -0.5271 -0.6769 -0.3183
14252TIP3    H164171   3.947   1.019   1.646 -0.9936 -0.4556 -0.3234
14252TIP3    H264172   3.879   0.894   1.698  0.8538 -1.5049 -0.3402
14253TIP3   OH264173   1.178   0.339  12.281 -0.5586  0.3892  0.4857
14253TIP3    H164174   1.252   0.313  12.227 -0.5149  1.2797  0.0970
14253TIP3    H264175   1.152   0.259  12.326 -0.6535 -0.3907 -0.9052
14254TIP3   OH264176   6.104   3.501   4.528 -0.6124  0.3733 -0.0035
14254TIP3    H164177   6.152   3.450   4.594 -1.0298  1.2023  0.9795
14254TIP3    H264178   6.087   3.585   4.571  0.4263  1.5283 -1.7165
14255TIP3   OH264179   5.991   5.307  14.315 -0.0106 -0.4196  0.1308
14255TIP3    H164180   6.037   5.339  14.393 -1.1929  2.4298 -0.2178
14255TIP3    H264181   5.990   5.212  14.325  1.6493 -0.2672  2.5486
14256TIP3   OH264182   5.876   2.618   1.521 -0.0285  0.0707 -0.4022
14256TIP3    H164183   5.919   2.644   1.602 -0.8443 -1.8825  0.7343
14256TIP3    H264184   5.947   2.610   1.457  1.0715 -1.1525  0.9051
14257TIP3   OH264185   1.255   0.086   5.050 -0.5046 -0.1332 -0.0811
14257TIP3    H164186   1.263   0.140   5.128  0.7104 -0.6973  0.2086
14257TIP3    H264187   1.318   0.123   4.988 -1.3665  0.2300 -0.7631
14258TIP3   OH264188   4.038   1.066   2.843 -0.2273 -0.2870  0.4277
14258TIP3    H164189   4.094   1.119   2.787 -1.4710  0.3676 -0.2254
14258TIP3    H264190   4.019   0.988   2.791 -0.8311  0.0103  0.1955
14259TIP3   OH264191   0.137   2.092   4.424 -0.2037 -0.0006  0.4436
14259TIP3    H164192   0.131   2.020   4.361  0.6652 -1.3745  1.8721
14259TIP3    H264193   0.063   2.149   4.402 -0.0187 -0.4920 -1.7081
14260TIP3   OH264194   0.858   6.247  12.474 -0.7083  0.1927  0.2480
14260TIP3    H164195   0.887   6.187  12.405 -0.6927  0.9131 -0.3892
14260TIP3    H264196   0.774   6.279  12.443 -0.7775  0.3973  0.6513
14261TIP3   OH264197   2.727   5.700  12.842 -0.0669  0.2069 -0.0683
14261TIP3    H164198   2.747   5.757  12.916 -0.0869 -1.2168  1.0811
14261TIP3    H264199   2.779   5.621  12.858 -0.6978 -0.4475 -1.1531
14262TIP3   OH264200   2.846   2.782   1.089 -0.0494 -0.3759  0.2397
14262TIP3    H164201   2.874   2.833   1.012  0.6236 -1.8834 -0.5483
14262TIP3    H264202   2.751   2.784   1.085 -0.0350  0.6190  0.0904
14263TIP3   OH264203   2.931   3.894  12.854  0.1235  0.2098  0.7103
14263TIP3    H164204   2.987   3.827  12.815 -0.2774 -0.7291  1.7258
14263TIP3    H264205   2.843   3.872  12.825  0.1864  1.5617 -0.7034
14264TIP3   OH264206   3.070   1.595  16.424  0.4834 -0.3593  0.4041
14264TIP3    H164207   3.053   1.555  16.339 -2.0517 -1.5580  1.3801
14264TIP3    H264208   3.126   1.670  16.404  1.5821 -1.7065 -2.0517
14265TIP3   OH264209   1.345   1.375   4.324 -0.5213  0.2244  0.0462
14265TIP3    H164210   1.346   1.444   4.391 -1.9558  1.2348 -0.9180
14265TIP3    H264211   1.255   1.344   4.322  0.1473 -1.9089  0.6195
14266TIP3   OH264212   3.763   0.371  12.261 -0.2100  0.2925  0.5966
14266TIP3    H164213   3.810   0.418  12.330 -1.8635  0.4984  1.6407
14266TIP3    H264214   3.671   0.397  12.273 -0.8189 -1.2821 -0.3918
14267TIP3   OH264215   6.137   0.279   1.504  0.2234 -0.6659  1.2314
14267TIP3    H164216   6.080   0.339   1.456  1.1450  0.3401  1.3560
14267TIP3    H264217   6.077   0.217   1.545 -0.6183 -1.3629 -0.9170
14268TIP3   OH264218   3.870   1.904  14.153 -0.4361  0.4257 -0.3291
14268TIP3    H164219   3.874   1.984  14.207 -1.7488  0.4593 -0.2579
14268TIP3    H264220   3.943   1.851  14.185 -0.2485  1.1039  0.4160
14269TIP3   OH264221   5.105   4.801   2.552 -0.2795 -0.7890  0.3738
14269TIP3    H164222   5.107   4.896   2.564  0.6884 -0.8667  0.9347
14269TIP3    H264223   5.161   4.767   2.622  1.2802 -1.6314 -1.2239
14270TIP3   OH264224   5.206   5.351   3.046  0.1024  0.1533 -0.3122
14270TIP3    H164225   5.179   5.439   3.018 -0.8879 -0.2477 -0.6708
14270TIP3    H264226   5.292   5.339   3.007  0.1990  0.9212 -0.3568
14271TIP3   OH264227   0.328   3.293  15.931  0.3701 -0.6451 -0.5139
14271TIP3    H164228   0.421   3.290  15.955  0.5871  0.1043 -1.2370
14271TIP3    H264229   0.322   3.242  15.851 -0.5974 -4.3783  1.7065
14272TIP3   OH264230   4.373   6.257   0.499 -0.6713 -0.1962  0.1992
14272TIP3    H164231   4.372   6.352   0.486  0.7534  0.0070  1.2592
14272TIP3    H264232   4.387   6.247   0.594 -1.2312 -1.4639  0.1595
14273TIP3   OH264233   5.229   5.327   2.647 -0.3352  0.1088 -0.0184
14273TIP3    H164234   5.318   5.310   2.616 -0.1971 -0.0850  0.4729
14273TIP3    H264235   5.238   5.401   2.707 -0.5924  0.4539 -0.4024
14274TIP3   OH264236   6.195   6.266  13.080 -0.2954 -0.1806 -0.5248
14274TIP3    H164237   6.114   6.307  13.049 -0.9940 -2.2429 -1.5747
14274TIP3    H264238   6.168   6.214  13.156 -0.4425 -2.5258 -2.0953
14275TIP3   OH264239   2.591   3.544   5.576 -0.0538  0.1994 -0.4342
14275TIP3    H164240   2.564   3.501   5.658  0.5543 -1.3984 -1.0498
14275TIP3    H264241   2.518   3.603   5.556  0.2400  1.4489  1.8046
14276TIP3   OH264242   6.127   1.463  14.532 -0.1484 -0.2438  0.1224
14276TIP3    H164243   6.160   1.440  14.618 -0.4143  0.9226  0.5566
14276TIP3    H264244   6.082   1.384  14.501 -1.5289 -0.1619  1.7758
14277TIP3   OH264245   3.919   3.624  16.606  0.0850 -0.3363  0.8407
14277TIP3    H164246   3.860   3.681  16.655  0.1866  0.7383 -0.2234
14277TIP3    H264247   3.960   3.569  16.673 -1.3527 -0.4032  1.7017
14278TIP3   OH264248   5.236   3.242   3.542  0.0283  0.3985 -0.2207
14278TIP3    H164249   5.278   3.172   3.592 -2.3393  0.0830  1.5091
14278TIP3    H264250   5.164   3.198   3.497 -2.1079  1.7303  1.6547
14279TIP3   OH264251   0.129   0.458   0.897 -0.7214  0.1801  0.7793
14279TIP3    H164252   0.191   0.452   0.969  0.3487  3.1377  0.2471
14279TIP3    H264253   0.139   0.375   0.850  0.9613 -0.4529  2.1421
14280TIP3   OH264254   3.164   0.147  14.643 -0.9016 -0.2828 -0.3233
14280TIP3    H164255   3.260   0.146  14.636 -0.8529 -0.8966  0.3826
14280TIP3    H264256   3.136   0.063  14.607 -1.1281 -0.3849  0.0838
14281TIP3   OH264257   6.527   4.932   5.514 -0.4835  0.2311  0.4449
14281TIP3    H164258   6.511   4.959   5.423 -0.7474 -0.7582  0.1857
14281TIP3    H264259   6.440   4.927   5.553 -0.6329 -1.8802 -0.0152
14282TIP3   OH264260   3.468   2.912   4.119 -0.6540 -0.5972 -0.0569
14282TIP3    H164261   3.443   2.963   4.195  0.3993 -2.3287  1.5494
14282TIP3    H264262   3.509   2.974   4.059 -2.1013  0.9139  0.4682
14283TIP3   OH264263   5.591   3.426  10.972 -0.0288  0.1779 -0.4595
14283TIP3    H164264   5.569   3.437  10.880  0.5430  1.4803 -0.4656
14283TIP3    H264265   5.512   3.390  11.012 -0.0631 -1.0035 -1.5594
14284TIP3   OH264266   0.811   4.340  14.485  0.6136  0.2739  0.4189
14284TIP3    H164267   0.741   4.335  14.420  1.3092 -0.6559 -0.2868
14284TIP3    H264268   0.886   4.374  14.435  0.7411  1.0261  1.1064
14285TIP3   OH264269   0.202   2.984  11.619 -0.2190  0.1361  0.3370
14285TIP3    H164270   0.131   2.944  11.568 -1.9229 -0.3210  2.8720
14285TIP3    H264271   0.264   2.912  11.632 -0.9808 -0.4246  0.9590
14286TIP3   OH264272   5.258   6.058   2.605  0.0407 -0.3142 -0.5483
14286TIP3    H164273   5.353   6.071   2.610  0.1113 -1.1673  1.1225
14286TIP3    H264274   5.245   5.967   2.632 -1.1697 -0.6397 -2.0984
14287TIP3   OH264275   1.887   4.748  12.667 -0.2375  0.3464 -0.6036
14287TIP3    H164276   1.804   4.707  12.645  0.0085 -0.2698 -0.4071
14287TIP3    H264277   1.873   4.788  12.753 -0.5610  0.9198 -0.9185
14288TIP3   OH264278   4.432   4.553  15.146  0.6207  0.0223 -0.6345
14288TIP3    H164279   4.465   4.590  15.065  1.5335  0.2130 -0.1791
14288TIP3    H264280   4.494   4.484  15.169 -0.6190 -1.2833 -1.0523
14289TIP3   OH264281   1.906   5.809  16.937 -0.1346  0.1940 -0.0282
14289TIP3    H164282   1.883   5.725  16.896 -0.3675  0.4797 -0.4891
14289TIP3    H264283   1.953   5.857  16.869 -1.2083  0.9832 -0.2272
14290TIP3   OH264284   4.509   6.064   4.072 -0.5868  0.2688 -0.1319
14290TIP3    H164285   4.555   5.983   4.053 -1.1783 -0.2247  0.5161
14290TIP3    H264286   4.470   6.051   4.158 -0.2064  1.4587  0.2477
14291TIP3   OH264287   3.295   5.965  11.045 -0.0436 -0.2724 -0.6820
14291TIP3    H164288   3.260   6.050  11.071 -1.2581 -0.9670  0.0949
14291TIP3    H264289   3.226   5.926  10.992  0.8879 -0.4051 -1.8288
14292TIP3   OH264290   1.081   0.811   1.513  0.0352 -0.8641  0.3543
14292TIP3    H164291   1.067   0.905   1.509  0.7222 -0.7985 -2.4544
14292TIP3    H264292   0.993   0.774   1.515 -0.2538 -0.1733  0.5624
14293TIP3   OH264293   2.785   1.659   3.882  0.0559 -0.1606  0.1616
14293TIP3    H164294   2.811   1.567   3.892  0.4841 -0.3891 -2.2903
14293TIP3    H264295   2.854   1.708   3.927  0.5279 -1.0087  0.3872
14294TIP3   OH264296   0.510   4.393   4.433  0.8075  0.5974  0.1098
14294TIP3    H164297   0.459   4.327   4.386  1.4728  1.2856 -1.6544
14294TIP3    H264298   0.445   4.445   4.480  0.0486  0.3147 -0.6010
14295TIP3   OH264299   5.497   3.260   0.229  0.2786  0.2268  1.1099
14295TIP3    H164300   5.575   3.252   0.283 -0.0441  0.8143  1.6637
14295TIP3    H264301   5.465   3.348   0.244  0.5148  0.6261 -0.5108
14296TIP3   OH264302   3.122   2.926  15.552 -0.0498  0.1311  0.3454
14296TIP3    H164303   3.112   2.861  15.622 -0.2343 -0.3266 -0.1004
14296TIP3    H264304   3.053   2.991  15.569  1.1600  1.1053  1.7434
14297TIP3   OH264305   1.042   1.051   3.307  0.9735  0.0088  0.5413
14297TIP3    H164306   1.066   1.056   3.214  1.7345  0.9696  0.7720
14297TIP3    H264307   0.951   1.081   3.310  0.2942 -1.8483 -0.1101
14298TIP3   OH264308   5.737   3.077   5.091 -0.3287 -0.0021 -0.2737
14298TIP3    H164309   5.815   3.047   5.045  0.1870  0.8251  0.0445
14298TIP3    H264310   5.767   3.151   5.143 -1.4087  0.5678 -0.4447
14299TIP3   OH264311   6.499   6.426  11.751  0.3075 -0.5176  0.1946
14299TIP3    H164312   6.502   6.457  11.661  1.6765 -0.4420  0.2398
14299TIP3    H264313   6.541   6.496  11.802 -0.8485 -0.3568  0.9661
14300TIP3   OH264314   0.698   1.726   2.422  0.1013  0.0193  0.2343
14300TIP3    H164315   0.698   1.814   2.460 -1.9703 -0.2753  1.0318
14300TIP3    H264316   0.743   1.672   2.486  1.1979  0.4396 -0.1615
14301TIP3   OH264317   1.323   1.187   3.328  0.4664  0.3314 -0.0010
14301TIP3    H164318   1.242   1.181   3.277 -0.6360 -0.5417  1.7735
14301TIP3    H264319   1.360   1.099   3.322  0.5220  0.3287  0.3942
14302TIP3   OH264320   5.446   0.794  10.821  0.2903  0.4306 -0.2475
14302TIP3    H164321   5.527   0.775  10.773  1.3497  1.4735  1.0789
14302TIP3    H264322   5.407   0.867  10.774 -0.4554 -0.7152 -1.4972
14303TIP3   OH264323   1.703   6.362  12.086  0.1051  0.1820 -0.1798
14303TIP3    H164324   1.694   6.413  12.166 -2.0290 -0.6805  0.1774
14303TIP3    H264325   1.684   6.424  12.016 -0.7834  0.3042  0.1531
14304TIP3   OH264326   5.707   6.507   3.010 -0.0568  0.0321 -0.3893
14304TIP3    H164327   5.749   6.591   3.028  0.6209 -0.3349 -0.2385
14304TIP3    H264328   5.777   6.451   2.976 -0.6008 -0.3277 -0.9614
14305TIP3   OH264329   3.947   6.639  13.818  0.3854  0.0638 -1.1453
14305TIP3    H164330   3.967   6.704  13.750  0.1998  0.7140 -0.5953
14305TIP3    H264331   3.852   6.646  13.830  0.5294  0.5822 -0.2148
14306TIP3   OH264332   1.898   6.784  11.602  0.0320  0.3195  0.2613
14306TIP3    H164333   1.894   6.691  11.582  1.3032 -0.5334  3.4726
14306TIP3    H264334   1.859   6.792  11.689 -0.1366  2.8248  0.0260
14307TIP3   OH264335   2.185   2.676  11.290 -0.4585  0.6556  0.4534
14307TIP3    H164336   2.100   2.633  11.294 -0.5295  0.7974  0.4652
14307TIP3    H264337   2.226   2.640  11.212 -0.7627  1.0178  0.1223
14308TIP3   OH264338   4.544   5.477  16.953 -0.1331 -0.0216  0.7138
14308TIP3    H164339   4.515   5.548  16.895 -0.1333 -0.6901 -0.1182
14308TIP3    H264340   4.607   5.518  17.012 -0.0089  0.6303  0.1307
14309TIP3   OH264341   2.535   2.041   5.070 -0.0092  0.5021 -0.5467
14309TIP3    H164342   2.490   2.067   5.150 -1.4631 -0.3257 -1.0554
14309TIP3    H264343   2.622   2.013   5.099 -0.8350 -0.7331  0.9114
14310TIP3   OH264344   5.762   1.416  13.708 -0.3476 -0.2151 -0.2311
14310TIP3    H164345   5.751   1.354  13.637  0.2791 -0.3397 -0.2163
14310TIP3    H264346   5.818   1.484  13.673  0.3623 -0.5193  0.2932
14311TIP3   OH264347   6.508   0.764  14.735 -0.7495  0.1112 -0.4778
14311TIP3    H164348   6.444   0.732  14.671  1.4945 -1.8532 -1.9060
14311TIP3    H264349   6.567   0.820  14.684  0.9495 -1.3142 -0.1698
14312TIP3   OH264350   3.862   4.935   6.304  0.1764  0.4683 -0.0900
14312TIP3    H164351   3.833   4.845   6.315  0.6889  0.3720  0.5321
14312TIP3    H264352   3.785   4.982   6.274 -0.3445  0.0135  0.5121
14313TIP3   OH264353   1.996   0.183  12.563 -0.3120  0.0090  0.1089
14313TIP3    H164354   2.008   0.277  12.572  1.0554 -0.2924  2.0914
14313TIP3    H264355   2.058   0.145  12.625 -2.5839 -2.1050  1.2889
14314TIP3   OH264356   2.768   2.058  12.679 -0.0131 -0.0513  0.3897
14314TIP3    H164357   2.858   2.024  12.678  0.3751  0.9150 -0.5147
14314TIP3    H264358   2.779   2.153  12.666 -1.2159 -0.1310 -1.6187
14315TIP3   OH264359   4.170   0.729   3.287  0.3031  0.3284 -0.2559
14315TIP3    H164360   4.255   0.687   3.271  0.4453  0.7024 -0.5103
14315TIP3    H264361   4.174   0.757   3.379 -0.6080 -2.0346  0.5944
14316TIP3   OH264362   6.665   5.980  11.336 -0.1860  0.2896 -0.3095
14316TIP3    H164363   6.709   5.994  11.252 -1.0433  1.7871 -0.5505
14316TIP3    H264364   6.573   6.002  11.319 -0.7267 -1.1267  0.5936
14317TIP3   OH264365   1.974   5.568   5.911  0.3491 -0.0985 -0.0013
14317TIP3    H164366   1.984   5.663   5.904 -1.9150  0.1364 -0.8518
14317TIP3    H264367   1.880   5.554   5.918  0.5430 -2.3601 -1.0485
14318TIP3   OH264368   4.561   0.975   0.486  0.2991 -0.3751  0.0999
14318TIP3    H164369   4.558   1.069   0.471 -2.3792 -0.2238  0.9972
14318TIP3    H264370   4.552   0.937   0.399  0.3310  0.2212 -0.1695
14319TIP3   OH264371   2.473   1.867   0.943 -0.7051 -0.0819 -0.7304
14319TIP3    H164372   2.558   1.826   0.926 -1.6130 -2.7024  0.4510
14319TIP3    H264373   2.425   1.858   0.861 -0.2897  0.1515 -0.9967
14320TIP3   OH264374   2.890   5.764  14.676  0.3023  0.0634 -0.0430
14320TIP3    H164375   2.799   5.756  14.647 -0.1465  0.8821  1.0518
14320TIP3    H264376   2.939   5.781  14.596 -0.6316  0.4225 -0.5595
14321TIP3   OH264377   6.730   6.196  16.909  1.2109  0.1830  0.4006
14321TIP3    H164378   6.782   6.125  16.872 -1.7404 -3.3483  2.3554
14321TIP3    H264379   6.772   6.218  16.992  2.3429  1.1014 -0.3834
14322TIP3   OH264380   2.152   4.689  13.149 -0.2195  1.0220 -0.0839
14322TIP3    H164381   2.074   4.637  13.132 -0.7931  1.4479  1.0744
14322TIP3    H264382   2.118   4.773  13.181  0.7097  1.2362  0.3892
14323TIP3   OH264383   5.822   1.030  17.011 -0.1984  0.6663  0.2717
14323TIP3    H164384   5.868   0.955  17.048 -2.9244 -1.4255 -0.3260
14323TIP3    H264385   5.729   1.011  17.022 -1.0789  2.6252 -2.4039
14324TIP3   OH264386   1.953   6.485   0.449 -0.4185 -0.4494  0.1052
14324TIP3    H164387   2.036   6.467   0.494 -0.2013  1.0617  0.3389
14324TIP3    H264388   1.890   6.496   0.520 -0.3419  0.6428  0.0154
14325TIP3   OH264389   2.153   3.552   2.692  0.0158  0.1229 -0.1901
14325TIP3    H164390   2.242   3.588   2.686 -0.6642  1.8225 -0.4818
14325TIP3    H264391   2.109   3.608   2.755 -0.7618 -0.9485  0.2458
14326TIP3   OH264392   2.842   5.279  14.838 -0.2584  0.2210 -0.1393
14326TIP3    H164393   2.752   5.266  14.867  0.1925 -0.7331  0.8967
14326TIP3    H264394   2.846   5.238  14.752 -0.3445 -1.5156  0.6391
14327TIP3   OH264395   5.015   0.133   3.888 -0.0274  0.2758 -0.4284
14327TIP3    H164396   5.032   0.040   3.876  0.1165  0.2727 -0.1924
14327TIP3    H264397   5.102   0.173   3.895 -0.1031  0.3452  0.1088
14328TIP3   OH264398   0.767   4.867   3.714  0.8110 -0.2360  0.1902
14328TIP3    H164399   0.740   4.776   3.706  0.9725 -0.3876  1.2152
14328TIP3    H264400   0.697   4.917   3.672  1.3969 -0.8852 -1.6832
14329TIP3   OH264401   2.248   5.962  15.974 -0.2181 -0.0787 -0.2059
14329TIP3    H164402   2.176   5.900  15.974  2.2738 -3.2532  0.9055
14329TIP3    H264403   2.284   5.956  15.885  0.6572 -1.1606  0.1904
14330TIP3   OH264404   1.207   1.072  15.175 -0.0206  0.1870  0.4406
14330TIP3    H164405   1.165   1.149  15.136 -2.0440  0.2603  2.5490
14330TIP3    H264406   1.296   1.101  15.194 -0.2433  1.4744 -0.3042
14331TIP3   OH264407   1.688   0.025   6.305 -0.1603 -0.3053  0.0265
14331TIP3    H164408   1.690   0.105   6.358 -0.0202 -1.0593  1.2028
14331TIP3    H264409   1.620  -0.029   6.347  0.4672 -1.2182 -0.1041
14332TIP3   OH264410   6.108   2.037  14.299 -0.2752  0.1547  0.4118
14332TIP3    H164411   6.190   2.023  14.251 -0.9874  1.2203 -1.2125
14332TIP3    H264412   6.111   2.130  14.324 -1.7931  0.7372 -1.3569
14333TIP3   OH264413   0.440   0.237  15.951 -0.2911  0.4201  0.5893
14333TIP3    H164414   0.401   0.158  15.988 -0.0911 -0.6175 -1.2938
14333TIP3    H264415   0.529   0.211  15.926  0.4887  1.8195  1.7407
14334TIP3   OH264416   5.297   5.597   3.871  0.4563  0.4074  0.0964
14334TIP3    H164417   5.300   5.658   3.945 -2.1655  1.5967 -0.6575
14334TIP3    H264418   5.273   5.513   3.910  0.4048  0.7116  0.7325
14335TIP3   OH264419   1.869   5.958   3.614  0.0231  0.2439  0.4051
14335TIP3    H164420   1.863   6.048   3.583  0.3348 -0.2698 -1.2533
14335TIP3    H264421   1.786   5.918   3.588 -0.0057 -0.0341  0.8996
14336TIP3   OH264422   0.479   5.151  12.018  0.1442  0.6735 -0.5114
14336TIP3    H164423   0.564   5.151  11.973  0.8621 -0.5394  0.7676
14336TIP3    H264424   0.501   5.146  12.111 -1.3289  1.4024 -0.0951
14337TIP3   OH264425   1.001   4.001  14.993  0.4207  0.1401  0.4935
14337TIP3    H164426   0.961   4.052  14.923 -1.4859  1.5462  2.4568
14337TIP3    H264427   1.019   3.915  14.954  0.1272  1.0819 -1.8562
14338TIP3   OH264428   3.553   0.827   1.155  0.0652  0.5350 -1.4557
14338TIP3    H164429   3.642   0.850   1.129  0.0800  0.6997 -1.2595
14338TIP3    H264430   3.558   0.735   1.179  0.5643  0.9583  0.2225
14339TIP3   OH264431   0.697   5.941   6.912 -0.2471  0.7456 -0.6422
14339TIP3    H164432   0.785   5.926   6.947 -0.0210 -2.0011 -2.0727
14339TIP3    H264433   0.707   6.015   6.853  0.0086  3.4516  2.4656
14340TIP3   OH264434   1.296   3.165  12.098  0.5172  0.0638 -0.4179
14340TIP3    H164435   1.314   3.071  12.100  0.0268 -0.0261 -0.2582
14340TIP3    H264436   1.336   3.195  12.016  1.1824 -0.1760 -0.1909
14341TIP3   OH264437   4.875   5.838   0.913 -0.0172 -0.1757  0.5608
14341TIP3    H164438   4.924   5.831   0.995  0.6033  1.1766  0.3359
14341TIP3    H264439   4.938   5.812   0.845 -0.8424 -2.3422  0.5556
14342TIP3   OH264440   4.514   0.451  17.068  0.1426  0.3945 -0.1404
14342TIP3    H164441   4.581   0.389  17.098 -0.3785 -1.0361 -1.7205
14342TIP3    H264442   4.562   0.515  17.016  0.4782  0.2660  0.0056
14343TIP3   OH264443   6.392   2.369  15.487  0.3839 -0.1248  0.0803
14343TIP3    H164444   6.458   2.339  15.549  0.4953 -0.4982 -0.2152
14343TIP3    H264445   6.364   2.289  15.442  0.0179  0.0888 -0.0727
14344TIP3   OH264446   6.621   2.363   2.833  0.0321 -0.4600 -0.0186
14344TIP3    H164447   6.617   2.368   2.738  1.0958  0.0600 -0.0429
14344TIP3    H264448   6.542   2.314   2.858 -0.8583  0.4068 -1.0746
14345TIP3   OH264449   4.118   5.174   3.760 -0.1154 -0.0312  0.2331
14345TIP3    H164450   4.153   5.089   3.731  0.0972  0.2774 -0.4397
14345TIP3    H264451   4.026   5.171   3.735  0.1493  0.3758 -0.8272
14346TIP3   OH264452   6.437   1.560   0.191 -0.6867  0.5372  0.0743
14346TIP3    H164453   6.499   1.621   0.153 -0.1161  1.3149  2.1079
14346TIP3    H264454   6.357   1.572   0.140  0.1246  1.2295 -1.0773
14347TIP3   OH264455   5.728   2.234   2.491  0.2878 -0.3153  0.8304
14347TIP3    H164456   5.636   2.216   2.512  0.1010 -0.1688  0.1903
14347TIP3    H264457   5.750   2.167   2.426  0.7372 -0.5490  1.2201
14348TIP3   OH264458   6.354   1.398   0.423  0.1149  0.0983 -0.1321
14348TIP3    H164459   6.406   1.446   0.358  0.8419 -2.8673 -1.9126
14348TIP3    H264460   6.271   1.445   0.426 -0.2077  0.0657 -3.7596
14349TIP3   OH264461   6.249   5.944   5.271 -0.1243 -0.0945 -0.3626
14349TIP3    H164462   6.220   5.949   5.363 -2.0157  0.2995 -0.9290
14349TIP3    H264463   6.276   5.853   5.259  2.2526  0.3229  1.1259
14350TIP3   OH264464   6.659   6.679   3.682 -0.4855  0.4065  0.4513
14350TIP3    H164465   6.715   6.739   3.633  0.0338 -1.1681 -0.9699
14350TIP3    H264466   6.710   6.658   3.760  0.8882 -0.8449 -0.7260
14351TIP3   OH264467   6.628   2.786  12.910 -0.1017 -0.2887  0.2584
14351TIP3    H164468   6.715   2.748  12.894  0.0770 -0.0206  0.5926
14351TIP3    H264469   6.600   2.745  12.992 -0.8287 -1.3259 -0.4816
14352TIP3   OH264470   6.027   4.219  11.730 -0.0590 -0.4726 -0.5807
14352TIP3    H164471   6.087   4.289  11.707  0.0795 -1.2643 -2.9518
14352TIP3    H264472   5.963   4.260  11.787  0.9928  1.1379 -0.4865
14353TIP3   OH264473   5.475   0.137  12.500 -0.2324 -0.1592  0.2278
14353TIP3    H164474   5.492   0.153  12.407  1.4266  1.4344  0.7565
14353TIP3    H264475   5.442   0.220  12.533  1.2611 -0.0422  1.4990
14354TIP3   OH264476   4.647   1.326  16.953 -0.3881  0.2494  0.3387
14354TIP3    H164477   4.721   1.337  16.893 -1.4122  0.5128 -0.9084
14354TIP3    H264478   4.576   1.294  16.898 -0.2619 -3.5964  2.1043
14355TIP3   OH264479   0.998   0.012  15.402 -0.1233 -0.0992 -0.0592
14355TIP3    H164480   0.949   0.003  15.484 -0.6971 -2.0645 -0.5672
14355TIP3    H264481   1.089  -0.007  15.425 -0.0628  0.6669  0.3526
14356TIP3   OH264482   2.735   4.442  14.744 -0.3996 -0.5759  0.0673
14356TIP3    H164483   2.680   4.442  14.822 -0.4457 -0.9140  0.0381
14356TIP3    H264484   2.742   4.534  14.719 -0.2280 -0.4516  0.5744
14357TIP3   OH264485   6.464   4.883  15.323  0.9648  0.0594  0.0724
14357TIP3    H164486   6.445   4.926  15.240  1.2078  0.3423  0.1608
14357TIP3    H264487   6.385   4.896  15.376  1.5680  1.6792  0.6285
14358TIP3   OH264488   6.577   5.485  13.985 -1.3634  0.2723  0.1242
14358TIP3    H164489   6.521   5.519  14.054 -1.1319  0.5887  0.1628
14358TIP3    H264490   6.541   5.399  13.964  0.7379 -1.5715  3.2507
14359TIP3   OH264491   4.317   2.620   5.263 -0.0380 -0.0580 -0.0325
14359TIP3    H164492   4.263   2.643   5.189  0.2654  1.7774  0.2770
14359TIP3    H264493   4.395   2.580   5.225 -1.0526 -1.6557 -0.5258
14360TIP3   OH264494   0.850   1.028  17.112 -0.0546  0.0417  0.1554
14360TIP3    H164495   0.898   0.946  17.121 -2.0209 -1.3915 -1.3436
14360TIP3    H264496   0.918   1.095  17.104  1.6291 -1.5279  0.6135
14361TIP3   OH264497   4.880   3.750   2.295  0.2637 -0.5396  0.0563
14361TIP3    H164498   4.935   3.828   2.305  0.4316 -0.6327 -0.1293
14361TIP3    H264499   4.943   3.678   2.281  0.2286 -1.0463  2.1197
14362TIP3   OH264500   1.620   5.987   0.332  0.1348  0.0962 -0.1262
14362TIP3    H164501   1.620   6.080   0.310  1.3653  0.1423 -0.0152
14362TIP3    H264502   1.590   5.985   0.423  0.2991  0.4166 -0.0595
14363TIP3   OH264503   4.122   1.829   0.628 -0.0615  0.3838  0.5181
14363TIP3    H164504   4.112   1.819   0.723 -0.6074  1.7011  0.6244
14363TIP3    H264505   4.134   1.923   0.615  0.9918  0.1123 -0.6495
14364TIP3   OH264506   5.413   5.174   1.177 -0.0316  0.3139  0.8812
14364TIP3    H164507   5.432   5.260   1.141 -0.5550 -0.0127 -0.2059
14364TIP3    H264508   5.459   5.173   1.261 -2.0544  2.5947  2.1504
14365TIP3   OH264509   5.432   4.825  13.326 -0.3888  0.2461 -1.1947
14365TIP3    H164510   5.377   4.759  13.367  0.2909  1.2492  1.5378
14365TIP3    H264511   5.382   4.855  13.250 -1.1755 -2.5655 -1.8833
14366TIP3   OH264512   6.581   2.777   4.573  0.6801 -0.3831 -0.0969
14366TIP3    H164513   6.668   2.738   4.563 -0.2885 -3.2279  1.3420
14366TIP3    H264514   6.521   2.708   4.544 -1.1419  1.2468 -0.3992
14367TIP3   OH264515   3.839   2.852   5.837  0.0814  0.0711 -0.0516
14367TIP3    H164516   3.864   2.896   5.918 -0.3338  1.2220 -0.5305
14367TIP3    H264517   3.794   2.773   5.865 -0.6087  0.7741  0.8519
14368TIP3   OH264518   6.011   3.244  17.017 -0.6920  0.2123 -0.0455
14368TIP3    H164519   6.012   3.339  17.014  1.2365  0.3672  2.2676
14368TIP3    H264520   5.932   3.219  16.970 -2.6544  3.0558  1.4556
14369TIP3   OH264521   0.964   2.155   2.115  0.4374 -0.0282  0.7804
14369TIP3    H164522   0.958   2.203   2.198 -1.4055 -0.9821  1.2348
14369TIP3    H264523   1.025   2.083   2.133 -0.3802 -0.5598  1.4937
14370TIP3   OH264524   5.611   2.312  12.140  0.3370 -0.5241 -0.2667
14370TIP3    H164525   5.689   2.364  12.158  0.3881 -0.5895 -0.3001
14370TIP3    H264526   5.556   2.324  12.217  0.4180 -0.5486 -0.2053
14371TIP3   OH264527   4.676   0.858  16.665 -0.9847 -0.0277 -0.3892
14371TIP3    H164528   4.638   0.911  16.595 -1.1998 -1.9791 -1.8181
14371TIP3    H264529   4.739   0.801  16.621  2.2391  1.6612  1.5934
14372TIP3   OH264530   3.320   3.622   0.860 -0.5990  0.0476 -0.4046
14372TIP3    H164531   3.385   3.577   0.913 -0.6153 -0.2794 -0.6575
14372TIP3    H264532   3.281   3.687   0.919 -0.3037 -0.0077 -0.1494
14373TIP3   OH264533   2.090   4.634  12.342  0.6662  0.7148 -0.0488
14373TIP3    H164534   2.105   4.542  12.364 -0.9103  0.4786  0.1804
14373TIP3    H264535   2.062   4.633  12.251 -0.1442  0.8578  0.1860
14374TIP3   OH264536   3.179   5.768  11.897 -0.8147 -0.2700 -0.3202
14374TIP3    H164537   3.133   5.851  11.882 -1.4828 -0.7556 -1.1172
14374TIP3    H264538   3.145   5.710  11.828 -0.9051 -1.4198  0.6637
14375TIP3   OH264539   4.005   5.719  11.170  0.4805 -0.0434  0.5153
14375TIP3    H164540   4.072   5.763  11.222  0.9901  0.6309 -0.6620
14375TIP3    H264541   4.008   5.628  11.199  3.6798 -0.6312 -1.1282
14376TIP3   OH264542   3.923   3.558  16.023  0.0081  0.3371 -0.6768
14376TIP3    H164543   3.939   3.474  16.066 -0.3694  1.0586  0.9554
14376TIP3    H264544   3.843   3.544  15.972  0.1680 -0.3918 -0.7444
14377TIP3   OH264545   6.148   4.991  12.871 -0.5388 -0.2519  0.1119
14377TIP3    H164546   6.070   4.941  12.897  0.4409 -1.4439  0.9262
14377TIP3    H264547   6.126   5.082  12.891 -1.5566 -0.6105  0.7295
14378TIP3   OH264548   3.321   6.106   3.164  0.7076 -0.2657  0.4423
14378TIP3    H164549   3.269   6.186   3.154 -1.8427 -1.6875  1.3723
14378TIP3    H264550   3.305   6.058   3.082  0.8717 -0.5266  0.5637
14379TIP3   OH264551   0.583   3.685   5.831 -0.7029 -0.3886 -0.4936
14379TIP3    H164552   0.629   3.769   5.838  0.8607 -1.3305  1.2605
14379TIP3    H264553   0.490   3.708   5.842 -0.2442  1.0277  0.7537
14380TIP3   OH264554   1.691   0.574   4.619  0.2908  0.0204 -0.1095
14380TIP3    H164555   1.783   0.557   4.597  1.0653  0.9236  2.1739
14380TIP3    H264556   1.677   0.526   4.700 -1.3652 -0.2882 -0.5458
14381TIP3   OH264557   4.083   4.433   5.369 -0.1658  0.4571 -0.0468
14381TIP3    H164558   4.046   4.414   5.283  0.8811  0.9691 -0.6342
14381TIP3    H264559   4.020   4.398   5.432  1.1831 -4.3071 -0.9513
14382TIP3   OH264560   4.733   4.725  14.269  0.4668  0.2019  1.2336
14382TIP3    H164561   4.818   4.741  14.227  0.6948  1.6249  2.1711
14382TIP3    H264562   4.755   4.693  14.356  0.0252 -0.2426  1.1828
14383TIP3   OH264563   3.877   6.575  13.424 -0.0347 -0.4297 -0.4341
14383TIP3    H164564   3.934   6.498  13.435 -0.6196 -0.6188  1.8434
14383TIP3    H264565   3.854   6.575  13.331  0.2738 -2.7925 -0.5723
14384TIP3   OH264566   0.441   0.466  11.529  0.0158 -0.0011 -0.0290
14384TIP3    H164567   0.439   0.379  11.491  1.1984 -0.4802  0.9312
14384TIP3    H264568   0.453   0.525  11.454  4.3619 -1.0533 -0.4121
14385TIP3   OH264569   4.397   2.223   4.620  0.5050  0.4857 -0.5888
14385TIP3    H164570   4.457   2.224   4.545 -0.1113 -1.4185 -1.1654
14385TIP3    H264571   4.310   2.224   4.581  0.1155 -2.6557 -0.1347
14386TIP3   OH264572   3.580   0.645  10.523  0.5139  0.1326 -0.7254
14386TIP3    H164573   3.660   0.697  10.519  0.7577 -0.1979 -0.2118
14386TIP3    H264574   3.510   0.707  10.502  0.8532  0.5457 -0.6484
14387TIP3   OH264575   3.705   0.384  14.680 -0.2408  0.2759 -0.5151
14387TIP3    H164576   3.668   0.464  14.644  1.0543  0.4887 -1.4555
14387TIP3    H264577   3.734   0.408  14.768 -2.5288  0.0187  0.3743
14388TIP3   OH264578   0.666   6.669   2.357 -0.2026  0.4323 -0.1109
14388TIP3    H164579   0.725   6.662   2.282 -1.6193  1.3663 -1.3979
14388TIP3    H264580   0.712   6.727   2.418  0.3855  0.8062 -0.8884
14389TIP3   OH264581   0.434   3.093   2.802 -0.8703  0.0823  0.0713
14389TIP3    H164582   0.433   2.998   2.814  0.5036  0.1566  0.9619
14389TIP3    H264583   0.350   3.122   2.838 -2.3286 -0.9683 -2.2670
14390TIP3   OH264584   0.291   5.575   1.098  0.3402 -0.0033 -0.0987
14390TIP3    H164585   0.243   5.540   1.173 -1.2625  0.6649 -0.7648
14390TIP3    H264586   0.305   5.667   1.118  3.0471 -0.5493  0.8943
14391TIP3   OH264587   4.608   5.761  17.090 -0.2034 -0.4897  0.1166
14391TIP3    H164588   4.630   5.745  17.182 -0.1109 -1.0104  0.0034
14391TIP3    H264589   4.681   5.724  17.041 -1.1331 -1.9320 -0.2517
14392TIP3   OH264590   0.287   0.937   2.778  0.2433  0.5391  0.0076
14392TIP3    H164591   0.275   0.844   2.797  1.2904  0.6011  1.0990
14392TIP3    H264592   0.355   0.965   2.839 -1.1308  2.3814  0.7463
14393TIP3   OH264593   0.084   4.502   1.699  0.0022 -0.2053 -0.2361
14393TIP3    H164594   0.142   4.517   1.774 -0.7404  1.0967  0.1055
14393TIP3    H264595   0.042   4.586   1.683 -0.5225 -0.6806 -1.5732
14394TIP3   OH264596   0.553   5.791  14.956 -0.4521 -0.2736 -0.5962
14394TIP3    H164597   0.646   5.787  14.932 -0.3405  0.7130 -0.3652
14394TIP3    H264598   0.550   5.751  15.043 -0.3396 -0.8079 -0.8297
14395TIP3   OH264599   4.674   5.814  15.980  0.1152 -0.1318  0.0602
14395TIP3    H164600   4.606   5.787  15.918 -0.6952  2.0380 -0.0877
14395TIP3    H264601   4.755   5.806  15.931 -0.3313 -0.1671 -0.6992
14396TIP3   OH264602   6.721   6.689  16.922  0.1073 -0.4338  0.3528
14396TIP3    H164603   6.816   6.678  16.918  0.2312  0.8181 -0.9887
14396TIP3    H264604   6.705   6.725  17.010  0.8211 -0.9846  0.7180
14397TIP3   OH264605   5.731   0.445   3.757 -0.1844  0.2113  0.3235
14397TIP3    H164606   5.641   0.440   3.791 -0.7695 -0.8885 -1.2350
14397TIP3    H264607   5.720   0.459   3.663  1.3009  0.3506  0.1493
14398TIP3   OH264608   4.402   2.395   4.929  0.3722 -0.1570  0.0261
14398TIP3    H164609   4.435   2.411   5.017 -1.0407 -0.4122  0.6246
14398TIP3    H264610   4.374   2.303   4.930 -0.9447  0.2192 -0.2352
14399TIP3   OH264611   4.506   4.516  10.354 -0.1925  0.4930 -0.0210
14399TIP3    H164612   4.441   4.553  10.294 -1.0670  0.3599  0.8234
14399TIP3    H264613   4.590   4.552  10.324 -0.1547 -1.7785 -3.1022
14400TIP3   OH264614   1.686   3.400   2.162 -0.1084 -0.8292 -0.0992
14400TIP3    H164615   1.640   3.317   2.177 -1.1765 -0.1234  0.7060
14400TIP3    H264616   1.662   3.454   2.238  2.1446 -0.4503  0.3961
14401TIP3   OH264617   0.367   0.981  11.093  0.0127 -0.6408 -0.1991
14401TIP3    H164618   0.346   0.928  11.016  0.4558 -1.2014  0.0551
14401TIP3    H264619   0.462   0.972  11.103  0.0309 -0.1421  0.1015
14402TIP3   OH264620   5.298   4.151   2.322 -0.1932  0.3177 -0.3992
14402TIP3    H164621   5.354   4.179   2.250 -1.2682  0.8081 -1.0695
14402TIP3    H264622   5.225   4.107   2.280 -0.2587 -0.4318  0.4662
14403TIP3   OH264623   0.628   0.410   5.076  0.3550  1.1079 -0.4470
14403TIP3    H164624   0.633   0.315   5.063  0.9618  1.1633 -0.6806
14403TIP3    H264625   0.719   0.437   5.083  0.1687  1.6330 -0.0619
14404TIP3   OH264626   3.124   3.784   5.189 -0.0871  0.0182  0.5850
14404TIP3    H164627   3.125   3.792   5.093  2.1835  0.6215  0.5820
14404TIP3    H264628   3.151   3.870   5.220  4.3888 -1.4025  1.4507
14405TIP3   OH264629   5.147   0.735   4.187  0.0538 -0.0253 -0.3118
14405TIP3    H164630   5.099   0.755   4.106 -0.5293 -0.2039 -0.0121
14405TIP3    H264631   5.202   0.660   4.163  0.1534  0.1474 -0.6413
14406TIP3   OH264632   5.041   2.382   2.968  0.2095  0.3846 -0.2892
14406TIP3    H164633   5.050   2.287   2.964 -1.2191  0.2370 -2.5593
14406TIP3    H264634   4.947   2.396   2.984 -0.0559  1.3091 -2.2917
14407TIP3   OH264635   2.199   3.837   1.398  0.1405 -0.3166 -0.6105
14407TIP3    H164636   2.176   3.874   1.484  0.3078  0.1217 -0.7533
14407TIP3    H264637   2.125   3.780   1.376 -0.5060  0.5580 -0.7564
14408TIP3   OH264638   4.658   6.638   3.685 -0.4260 -0.2845 -0.1851
14408TIP3    H164639   4.567   6.619   3.662 -0.2237 -0.4035 -0.9195
14408TIP3    H264640   4.709   6.609   3.609 -0.0243  2.4790 -1.0983
14409TIP3   OH264641   6.782   2.863   2.348 -0.4754 -0.3985  0.0998
14409TIP3    H164642   6.794   2.830   2.259  0.7303  0.2718  0.0024
14409TIP3    H264643   6.870   2.876   2.381 -0.9195 -0.0469  1.1772
14410TIP3   OH264644   4.987   3.263   1.637 -0.1907 -0.1591  0.3404
14410TIP3    H164645   5.021   3.342   1.678 -0.4634  0.1661 -0.0548
14410TIP3    H264646   5.037   3.255   1.555 -2.0555  1.1770 -1.0220
14411TIP3   OH264647   5.744   4.323   0.664 -0.0860  0.8974 -0.0074
14411TIP3    H164648   5.825   4.299   0.707  1.1736  3.4003 -0.7722
14411TIP3    H264649   5.703   4.387   0.722  0.2414  2.2043 -1.1504
14412TIP3   OH264650   0.695   2.608   3.627 -0.5025  0.6598 -0.2340
14412TIP3    H164651   0.776   2.632   3.580 -0.4446  0.1113 -0.4266
14412TIP3    H264652   0.699   2.512   3.632 -0.0916  0.7370  1.6436
14413TIP3   OH264653   3.434   6.459  16.602 -0.5607  0.0514  0.0486
14413TIP3    H164654   3.512   6.512  16.619 -0.9336  0.9789 -1.0566
14413TIP3    H264655   3.364   6.523  16.591 -1.1856 -0.7126 -0.4540
14414TIP3   OH264656   1.604   0.593   3.164 -0.2427  0.2991 -0.1005
14414TIP3    H164657   1.596   0.648   3.086  0.9504  1.5404  0.6045
14414TIP3    H264658   1.517   0.595   3.203 -0.6138  0.4159 -0.9143
14415TIP3   OH264659   5.713   2.344   1.310  0.1909 -0.4647 -0.5066
14415TIP3    H164660   5.793   2.388   1.280  1.0942 -1.4016  0.4204
14415TIP3    H264661   5.661   2.413   1.351 -0.1855  0.4544 -2.4277
14416TIP3   OH264662   1.634   5.105   0.262 -0.0866  0.1197  0.0006
14416TIP3    H164663   1.566   5.090   0.327  1.0495  0.1160  1.2171
14416TIP3    H264664   1.611   5.048   0.189  0.6389 -2.8037  1.8958
14417TIP3   OH264665   1.202   2.634  15.327 -0.2438  0.6995  0.4885
14417TIP3    H164666   1.228   2.671  15.412 -0.7408 -1.1045  1.4997
14417TIP3    H264667   1.240   2.546  15.328 -0.9953  0.3447 -0.7852
14418TIP3   OH264668   0.149   2.107   6.152 -0.0634  0.1745 -0.1708
14418TIP3    H164669   0.103   2.033   6.192 -1.0016  0.8219  0.0036
14418TIP3    H264670   0.237   2.103   6.189 -0.0849 -0.8699 -0.1980
14419TIP3   OH264671   4.066   6.021  14.839  0.0008  0.5876 -0.1919
14419TIP3    H164672   4.050   5.988  14.928  1.5491 -0.6622 -0.3490
14419TIP3    H264673   4.158   6.000  14.822  0.5675  3.3558 -1.0256
14420TIP3   OH264674   6.286   1.646  13.515  0.7539  0.4401 -1.0010
14420TIP3    H164675   6.263   1.694  13.595 -0.4068 -3.0263  0.9183
14420TIP3    H264676   6.358   1.589  13.541  0.5593 -0.5389 -2.4990
14421TIP3   OH264677   2.785   2.359   3.889 -0.2844  0.1084 -0.2493
14421TIP3    H164678   2.731   2.380   3.813 -0.3087 -0.9107 -0.5384
14421TIP3    H264679   2.778   2.264   3.898  0.0221  0.1687  0.8064
14422TIP3   OH264680   4.568   5.798  15.009 -0.2980  0.4332  0.0538
14422TIP3    H164681   4.603   5.709  15.003  0.2730  0.7301 -1.6251
14422TIP3    H264682   4.497   5.791  15.073 -0.2580 -1.2258 -0.0214
14423TIP3   OH264683   4.476   1.944   3.832 -0.4014 -0.6218 -0.4014
14423TIP3    H164684   4.397   1.919   3.783 -1.1126  0.9887 -0.1421
14423TIP3    H264685   4.463   1.907   3.919 -1.6322  0.8783  0.1036
14424TIP3   OH264686   4.585   5.268   3.446 -0.2461 -0.0590  0.2310
14424TIP3    H164687   4.514   5.281   3.508 -0.4284  0.3541 -0.0548
14424TIP3    H264688   4.651   5.333   3.471 -0.3839  0.2098 -0.0934
14425TIP3   OH264689   2.675   5.010  14.781  0.1421  0.5376  0.0807
14425TIP3    H164690   2.601   4.975  14.732 -0.2014  0.9256  0.3119
14425TIP3    H264691   2.743   5.024  14.715  1.1162 -2.6004  0.2638
14426TIP3   OH264692   1.243   5.912   4.844 -0.1321  0.3414  0.5065
14426TIP3    H164693   1.262   5.905   4.751 -0.1526  2.9603  0.2271
14426TIP3    H264694   1.148   5.898   4.850 -0.0935 -0.0876  0.1789
14427TIP3   OH264695   6.632   6.395   1.187  0.1876 -0.3803 -0.5577
14427TIP3    H164696   6.680   6.400   1.270  0.5157  2.4770 -0.8106
14427TIP3    H264697   6.541   6.413   1.211  0.1295 -0.4736 -0.7067
14428TIP3   OH264698   6.586   3.331   5.536  0.3561  0.0742 -0.1841
14428TIP3    H164699   6.501   3.288   5.535 -0.2075  1.0953  0.8686
14428TIP3    H264700   6.590   3.373   5.622  1.4456  0.9787 -0.6554
14429TIP3   OH264701   4.621   0.566   5.178  0.6163  0.0851 -0.2586
14429TIP3    H164702   4.609   0.528   5.265  0.5060  0.5104 -0.0858
14429TIP3    H264703   4.587   0.500   5.118 -2.7247  1.2204  0.1963
14430TIP3   OH264704   0.157   0.357  16.081  0.8910 -0.2819  0.1314
14430TIP3    H164705   0.089   0.421  16.104  0.9068 -0.1430 -0.2013
14430TIP3    H264706   0.145   0.286  16.144  0.4813 -0.2262  0.1222
14431TIP3   OH264707   1.942   1.692   4.085  0.0183 -0.5876 -0.0457
14431TIP3    H164708   1.991   1.619   4.047  1.1314  0.1398 -0.0514
14431TIP3    H264709   1.989   1.714   4.165 -0.5081 -0.1046  0.1395
14432TIP3   OH264710   4.906   3.437   1.087 -0.5482 -0.3347 -0.1203
14432TIP3    H164711   4.985   3.422   1.139 -1.3724 -0.5532  1.1197
14432TIP3    H264712   4.913   3.528   1.059 -0.3596 -0.0128  0.9041
14433TIP3   OH264713   4.358   6.759  12.430  0.4322  0.2746 -0.6065
14433TIP3    H164714   4.312   6.676  12.418  0.4947  0.1426  0.0373
14433TIP3    H264715   4.306   6.806  12.494 -0.1211  1.1417 -1.6539
14434TIP3   OH264716   0.557   1.022  14.847  0.7017 -0.3203 -0.2592
14434TIP3    H164717   0.560   0.987  14.936  1.9370 -1.9257 -0.8996
14434TIP3    H264718   0.463   1.032  14.829  0.4247 -0.2026  1.1184
14435TIP3   OH264719   1.607   6.638  16.928 -0.2348  0.9443 -0.1056
14435TIP3    H164720   1.584   6.637  16.835  0.8861  0.3851 -0.3896
14435TIP3    H264721   1.644   6.725  16.942  0.0142  0.8708 -0.2942
14436TIP3   OH264722   6.668   4.778   0.357  0.5908 -0.6518  0.1408
14436TIP3    H164723   6.722   4.842   0.402 -0.2672 -0.3156  0.7352
14436TIP3    H264724   6.707   4.693   0.380  2.1886 -0.3458 -1.2694
14437TIP3   OH264725   5.004   6.048  15.119  0.4217 -0.3079 -0.2139
14437TIP3    H164726   5.081   6.030  15.172 -0.9137 -0.6962  1.7134
14437TIP3    H264727   4.949   5.970  15.130 -1.3794  1.0209  0.6426
14438TIP3   OH264728   4.146   0.492   0.756  0.0393  0.2219  1.0239
14438TIP3    H164729   4.153   0.426   0.687 -0.9185 -0.5458  1.6281
14438TIP3    H264730   4.226   0.544   0.748  0.7486 -0.9146  0.4255
14439TIP3   OH264731   4.721   6.309   3.083  0.4136 -0.2183  0.8088
14439TIP3    H164732   4.678   6.349   3.159  1.1762  1.6114  0.3200
14439TIP3    H264733   4.719   6.215   3.102  0.8800  0.1986  3.2492
14440TIP3   OH264734   1.508   0.397  13.801  0.3047  0.1713  0.0830
14440TIP3    H164735   1.603   0.388  13.794  0.1665 -0.7576 -0.8015
14440TIP3    H264736   1.494   0.491  13.810  1.2286  0.4436 -1.0661
14441TIP3   OH264737   4.755   6.517   5.629 -0.6268  0.2606  0.2453
14441TIP3    H164738   4.732   6.513   5.536  0.1725 -1.2375  0.0836
14441TIP3    H264739   4.796   6.433   5.648  0.8413  1.2001  1.5368
14442TIP3   OH264740   2.899   6.612  12.552  0.1553 -0.0096 -0.1864
14442TIP3    H164741   2.974   6.572  12.597  0.6714 -0.3019 -1.2769
14442TIP3    H264742   2.920   6.605  12.459 -0.6640  1.0348 -0.4696
14443TIP3   OH264743   0.570   6.326   5.500  0.1060  0.4103  0.1505
14443TIP3    H164744   0.525   6.364   5.576  0.1106 -0.3922  0.5593
14443TIP3    H264745   0.538   6.236   5.496 -0.1067  0.5225 -0.9716
14444TIP3   OH264746   0.181   2.197   0.374 -0.5815 -0.2743 -0.1392
14444TIP3    H164747   0.181   2.119   0.429 -0.7376  0.2561  0.6185
14444TIP3    H264748   0.245   2.177   0.305 -1.2985 -1.4334 -0.4867
14445TIP3   OH264749   0.328   2.988   1.571  0.0440  0.0467 -0.8676
14445TIP3    H164750   0.307   3.009   1.480  1.3943  0.5085 -1.0973
14445TIP3    H264751   0.280   3.052   1.623 -0.7638 -0.2443 -1.2500
14446TIP3   OH264752   4.562   0.781   2.933 -0.5743  0.5070 -0.2906
14446TIP3    H164753   4.597   0.796   3.020  1.2721 -0.0412 -0.8986
14446TIP3    H264754   4.513   0.861   2.912 -1.3959  0.4811  1.3695
14447TIP3   OH264755   5.435   6.062   2.233 -0.1934  0.0122 -0.2103
14447TIP3    H164756   5.473   6.002   2.169  0.2845 -2.6520  2.3614
14447TIP3    H264757   5.347   6.028   2.249 -0.3728  0.7210  0.3888
14448TIP3   OH264758   0.859   1.173   0.620 -0.4134  0.6238 -0.3700
14448TIP3    H164759   0.795   1.236   0.655 -0.3765 -0.1855  1.2228
14448TIP3    H264760   0.906   1.141   0.697  0.0364 -0.8555 -1.2206
14449TIP3   OH264761   3.195   2.731   1.203 -0.2670 -0.2028 -0.0498
14449TIP3    H164762   3.232   2.760   1.287  0.3988  0.3912 -0.5388
14449TIP3    H264763   3.158   2.644   1.222  2.5669 -1.4917  0.1835
14450TIP3   OH264764   5.281   0.386   4.397  0.2580 -0.3912 -0.2155
14450TIP3    H164765   5.339   0.312   4.380  1.2597  0.3855 -0.2340
14450TIP3    H264766   5.331   0.462   4.369 -0.9429  0.2647 -0.6478
14451TIP3   OH264767   4.515   2.756  15.528  0.6833  0.2996 -0.0550
14451TIP3    H164768   4.561   2.763  15.444  2.8204 -1.0539  0.9170
14451TIP3    H264769   4.569   2.806  15.589  1.3484 -1.8338  1.2497
14452TIP3   OH264770   3.710   4.625  16.327 -0.1766  0.1844  0.1665
14452TIP3    H164771   3.618   4.636  16.350 -0.0939 -0.2281  0.7360
14452TIP3    H264772   3.714   4.541  16.283  0.3286 -1.2501  2.7218
14453TIP3   OH264773   1.121   6.522   3.028 -0.4344  0.2277  0.4532
14453TIP3    H164774   1.039   6.489   2.990 -0.2442  0.4603 -0.1754
14453TIP3    H264775   1.134   6.469   3.107  0.1918 -1.6895 -0.8457
14454TIP3   OH264776   6.293   3.714   5.955  0.3974 -0.5528 -0.1668
14454TIP3    H164777   6.314   3.652   6.025  0.2445 -1.2789 -0.7648
14454TIP3    H264778   6.279   3.797   6.001  1.2095 -0.8149  0.5739
14455TIP3   OH264779   4.727   0.902  15.589 -0.5396  0.0308  0.1681
14455TIP3    H164780   4.642   0.927  15.625 -1.3655  1.0135 -2.2502
14455TIP3    H264781   4.741   0.813  15.621 -2.8114 -0.4065  0.1075
14456TIP3   OH264782   1.059   1.064   5.721  0.4230  0.4148 -0.4229
14456TIP3    H164783   1.049   0.971   5.699 -0.9261  0.9524 -2.3570
14456TIP3    H264784   1.064   1.066   5.816  0.1833 -1.6214 -0.3323
14457TIP3   OH264785   1.832   5.383  14.991 -0.2745 -0.2470  0.0641
14457TIP3    H164786   1.860   5.410  14.904 -2.0629 -0.0146 -0.4618
14457TIP3    H264787   1.899   5.319  15.018  0.6905  0.2009 -1.1617
14458TIP3   OH264788   5.767   2.568   4.241 -0.1528  0.4644  0.4185
14458TIP3    H164789   5.833   2.520   4.189  0.9819  1.1726  1.1653
14458TIP3    H264790   5.780   2.660   4.217  1.5143  1.0260  3.0496
14459TIP3   OH264791   6.513   4.703  16.708  0.2552 -0.2671  0.1021
14459TIP3    H164792   6.431   4.744  16.734 -0.5426 -1.1694 -0.8930
14459TIP3    H264793   6.523   4.726  16.616  1.5444  0.4964  0.4124
14460TIP3   OH264794   2.595   6.460  15.438  0.0937 -0.2575 -0.0805
14460TIP3    H164795   2.688   6.478  15.453 -0.2711  0.6705  1.1677
14460TIP3    H264796   2.569   6.526  15.373  0.8747 -2.1677 -2.4971
14461TIP3   OH264797   2.665   2.338   1.033  0.4413 -0.0670  0.1566
14461TIP3    H164798   2.692   2.398   0.964 -2.0205  0.3823 -0.4745
14461TIP3    H264799   2.653   2.254   0.989 -0.8340  0.1489  0.0705
14462TIP3   OH264800   2.958   6.448  12.892 -0.4209  0.2091 -0.1627
14462TIP3    H164801   2.920   6.535  12.877 -0.3686  0.8100  2.5170
14462TIP3    H264802   3.016   6.434  12.818 -0.9605  2.1576 -1.0342
14463TIP3   OH264803   6.723   4.330  15.135  0.6300  0.0788  0.1188
14463TIP3    H164804   6.786   4.266  15.169 -0.1000  0.2038  1.8649
14463TIP3    H264805   6.646   4.277  15.113  0.0993  0.2858  1.3738
14464TIP3   OH264806   0.943   5.488  11.864 -0.1366 -0.2279  0.0756
14464TIP3    H164807   0.872   5.498  11.928 -0.5207 -1.0192 -0.2061
14464TIP3    H264808   0.992   5.411  11.894  0.9449  0.6349  0.5714
14465TIP3   OH264809   0.457   0.088  13.194 -0.6339  0.1219 -0.2365
14465TIP3    H164810   0.421   0.118  13.278  1.6489 -1.5819  1.4953
14465TIP3    H264811   0.448  -0.007  13.198  1.8819 -0.1897 -0.7103
14466TIP3   OH264812   5.598   6.738   4.773 -0.6120 -0.2827  0.3793
14466TIP3    H164813   5.640   6.795   4.837 -1.4071 -0.5662  1.1760
14466TIP3    H264814   5.520   6.786   4.745  0.2621  0.2846 -1.1670
14467TIP3   OH264815   2.985   2.720   0.655  0.7526 -0.4720 -0.2003
14467TIP3    H164816   3.063   2.699   0.604  1.5789  0.0980  0.7790
14467TIP3    H264817   2.984   2.654   0.725  0.0701 -0.7794 -0.4965
14468TIP3   OH264818   6.515   0.611   1.809  0.4217 -0.2772 -0.2226
14468TIP3    H164819   6.530   0.570   1.724 -0.6687 -2.2956  0.4926
14468TIP3    H264820   6.547   0.701   1.799 -0.6452 -0.1424 -3.0699
14469TIP3   OH264821   4.017   3.427  14.871 -0.7651 -0.8799  0.3012
14469TIP3    H164822   3.968   3.407  14.792 -0.4299  0.0980 -0.1752
14469TIP3    H264823   3.962   3.491  14.917 -0.6666 -0.9702  0.5452
14470TIP3   OH264824   1.300   3.944   4.826 -0.4400 -0.2249  0.3089
14470TIP3    H164825   1.313   3.849   4.834 -1.0744 -0.3180  0.2230
14470TIP3    H264826   1.251   3.968   4.904  0.0872  0.1059  0.5434
14471TIP3   OH264827   6.522   3.323  10.396 -0.6461  0.3069  0.3517
14471TIP3    H164828   6.460   3.250  10.392  0.9573 -1.0625 -2.3882
14471TIP3    H264829   6.576   3.304  10.473  0.0814 -1.8016 -0.5912
14472TIP3   OH264830   1.212   5.519  16.644  0.1320  0.0261 -0.1572
14472TIP3    H164831   1.281   5.567  16.599 -0.1680 -0.2851 -0.9683
14472TIP3    H264832   1.158   5.483  16.574  0.1564 -1.2121  0.4352
14473TIP3   OH264833   3.139   4.150   2.864 -0.1560 -0.3059  0.4934
14473TIP3    H164834   3.199   4.105   2.805  2.1366  0.2361  2.2694
14473TIP3    H264835   3.073   4.085   2.885  1.8760 -2.2173  1.3371
14474TIP3   OH264836   1.441   2.174  13.754 -0.1607 -0.3053  0.3803
14474TIP3    H164837   1.374   2.121  13.796 -0.3268 -0.2027  0.2482
14474TIP3    H264838   1.416   2.177  13.662  0.1818 -0.5005  0.2776
14475TIP3   OH264839   2.197   3.973  16.089 -0.5725 -0.1289  0.1295
14475TIP3    H164840   2.262   3.916  16.047  0.9878  2.1061 -0.6723
14475TIP3    H264841   2.192   3.941  16.179  1.2548 -0.7021  0.0636
14476TIP3   OH264842   2.935   1.788  12.340  0.1571 -0.1263  0.6202
14476TIP3    H164843   2.956   1.780  12.433  3.3030 -1.9227 -0.0950
14476TIP3    H264844   2.870   1.720  12.324  0.8655 -0.9858  1.2427
14477TIP3   OH264845   5.799   1.257  16.325 -0.4187 -0.0911 -0.0008
14477TIP3    H164846   5.878   1.243  16.377 -0.5554  0.1097  0.2585
14477TIP3    H264847   5.818   1.336  16.274  0.1205 -0.8457 -1.0301
14478TIP3   OH264848   6.035   6.587  11.748  0.4614 -0.1318  0.6406
14478TIP3    H164849   5.967   6.561  11.810 -2.2409  0.8634 -1.6473
14478TIP3    H264850   5.986   6.626  11.675  3.4891 -0.0282 -1.5111
14479TIP3   OH264851   3.788   2.852  11.403 -0.4869 -0.3275 -0.0290
14479TIP3    H164852   3.825   2.938  11.383 -2.4412  1.0695  1.9743
14479TIP3    H264853   3.808   2.838  11.495  0.9046 -2.6776 -0.6024
14480TIP3   OH264854   4.685   5.828  13.922 -0.0095 -0.0809 -0.4390
14480TIP3    H164855   4.638   5.768  13.980  1.5927 -2.0705 -1.0774
14480TIP3    H264856   4.702   5.776  13.844  1.3941  1.2452 -1.0483
14481TIP3   OH264857   4.277   1.126   4.467 -0.4486 -0.0783  0.1410
14481TIP3    H164858   4.256   1.113   4.375  0.4122 -0.7485  0.0166
14481TIP3    H264859   4.204   1.087   4.515 -0.8652  0.2177 -0.2602
14482TIP3   OH264860   3.265   3.834  15.348  0.3841  0.3930  0.3077
14482TIP3    H164861   3.246   3.801  15.436 -1.1521  0.6702  0.1153
14482TIP3    H264862   3.278   3.928  15.360  0.4122  0.3937  0.2697
14483TIP3   OH264863   0.086   2.593  10.883  0.1557 -0.5602  0.3412
14483TIP3    H164864   0.098   2.517  10.825  0.9490 -0.0176 -0.2284
14483TIP3    H264865   0.158   2.585  10.946 -0.4210 -0.8855  0.9606
14484TIP3   OH264866   2.827   2.350   6.412 -0.2652 -0.3533 -0.3250
14484TIP3    H164867   2.921   2.351   6.398 -0.3947 -0.7474 -1.2641
14484TIP3    H264868   2.815   2.392   6.497  0.6250  1.0920 -0.8880
14485TIP3   OH264869   2.177   0.099  11.546  0.0723  0.0346  0.1185
14485TIP3    H164870   2.185   0.137  11.458  1.5470 -0.6464 -0.0661
14485TIP3    H264871   2.085   0.113  11.569 -0.5247 -0.3379 -1.7925
14486TIP3   OH264872   3.612   1.217   3.101 -0.3099  0.0495  0.3478
14486TIP3    H164873   3.581   1.159   3.032 -0.8896  0.7230  0.0290
14486TIP3    H264874   3.701   1.241   3.074 -0.6230  0.5086 -0.3126
14487TIP3   OH264875   0.732   0.392   5.858  0.0792  0.0883 -0.0225
14487TIP3    H164876   0.764   0.330   5.793 -0.6273 -0.2244 -0.0818
14487TIP3    H264877   0.686   0.338   5.922  0.7123  0.4013  0.7050
14488TIP3   OH264878   0.335   3.064   4.087 -0.1606  0.2103 -0.1788
14488TIP3    H164879   0.427   3.052   4.065 -0.1506  0.7740 -0.4602
14488TIP3    H264880   0.288   3.023   4.014 -0.1609 -1.7137  0.8438
14489TIP3   OH264881   1.361   0.204  13.690  0.1709  0.2329  0.2372
14489TIP3    H164882   1.434   0.262  13.714 -0.1855  1.6040 -1.8148
14489TIP3    H264883   1.283   0.257  13.703 -0.2499 -0.2114 -0.4416
14490TIP3   OH264884   3.609   1.281  16.531 -0.0454 -0.2712  0.7711
14490TIP3    H164885   3.653   1.201  16.560 -0.3455 -0.5209  0.5364
14490TIP3    H264886   3.610   1.276  16.436  1.8323  1.0173  0.6613
14491TIP3   OH264887   0.237   0.646   2.775 -0.6806  0.1356  0.7806
14491TIP3    H164888   0.282   0.634   2.859 -0.6113  3.4858  1.3751
14491TIP3    H264889   0.228   0.558   2.740  1.6495 -1.1697  3.0754
14492TIP3   OH264890   0.842   5.150   3.489 -0.6261  0.2862  0.1224
14492TIP3    H164891   0.904   5.087   3.453 -0.0625  0.8432  0.0988
14492TIP3    H264892   0.880   5.176   3.573 -0.6806  0.8420 -0.0217
14493TIP3   OH264893   2.654   5.597  16.546 -0.5941  0.4148  0.1235
14493TIP3    H164894   2.574   5.584  16.495  0.1432 -3.0020 -0.4010
14493TIP3    H264895   2.720   5.624  16.482 -0.4134 -0.7884 -0.2231
14494TIP3   OH264896   5.335   3.230  10.655  0.4113 -0.3945 -0.3156
14494TIP3    H164897   5.321   3.178  10.576 -1.0583 -0.0098 -0.3335
14494TIP3    H264898   5.255   3.219  10.705  0.2168  1.5307 -0.1465
14495TIP3   OH264899   4.996   4.230   5.679 -0.2170 -0.5621  0.7122
14495TIP3    H164900   4.939   4.306   5.668 -1.5140 -1.4003  1.3936
14495TIP3    H264901   5.014   4.227   5.772 -0.0937 -1.0253  0.6747
14496TIP3   OH264902   6.660   2.258  11.969 -0.0043 -0.1597  0.1755
14496TIP3    H164903   6.584   2.221  12.016  1.2050 -0.8844  1.6427
14496TIP3    H264904   6.625   2.282  11.883 -2.2946  1.0111  1.3299
14497TIP3   OH264905   5.472   6.595   2.851 -0.0232 -0.3875  0.1765
14497TIP3    H164906   5.479   6.689   2.868 -0.0822 -0.4450  0.5187
14497TIP3    H264907   5.551   6.558   2.891 -0.7954 -0.6787  1.4512
14498TIP3   OH264908   0.448   0.040  13.478 -0.0913  0.2710  0.3346
14498TIP3    H164909   0.431  -0.000  13.563  0.1282 -0.3660  0.0778
14498TIP3    H264910   0.543   0.056  13.477 -0.4174  2.7534  1.2905
14499TIP3   OH264911   2.030   4.353  16.876 -0.2297 -0.2389 -0.4606
14499TIP3    H164912   2.092   4.358  16.949 -1.6713 -0.3297  0.8202
14499TIP3    H264913   2.076   4.302  16.809  1.4694  0.6030 -0.0008
14500TIP3   OH264914   3.855   3.878  16.022 -0.1963  0.1378  0.8158
14500TIP3    H164915   3.842   3.865  16.116 -0.1239 -0.9027  0.6879
14500TIP3    H264916   3.841   3.972  16.009  0.4759  0.4203  1.9773
14501TIP3   OH264917   2.338   4.145   1.634  0.5823  0.0286  0.3381
14501TIP3    H164918   2.277   4.190   1.694  1.8854  0.1595  1.6079
14501TIP3    H264919   2.326   4.052   1.653  0.3117  0.0154  0.1119
14502TIP3   OH264920   0.796   2.973  11.520 -0.0251  0.1059 -0.1298
14502TIP3    H164921   0.732   3.029  11.475 -1.0306 -1.8494 -1.2841
14502TIP3    H264922   0.761   2.885  11.510  1.4840 -0.7610  1.6427
14503TIP3   OH264923   3.457   6.729  14.646  0.2879 -0.2631 -0.4753
14503TIP3    H164924   3.448   6.824  14.638 -0.2682 -0.3431 -0.9136
14503TIP3    H264925   3.439   6.697  14.557  0.8471 -0.7535 -0.4175
14504TIP3   OH264926   1.015   1.834   3.873  0.0366 -0.0861  0.4129
14504TIP3    H164927   0.933   1.882   3.887  0.5899  0.8393  0.5809
14504TIP3    H264928   1.074   1.868   3.940  0.6051 -0.6461  0.2012
14505TIP3   OH264929   1.950   0.694  14.808  0.0535 -0.1810 -0.1769
14505TIP3    H164930   1.934   0.776  14.856  0.9669  0.1553 -0.4358
14505TIP3    H264931   1.884   0.694  14.738 -0.8906 -0.3774  0.6853
14506TIP3   OH264932   5.936   1.636  11.805  0.5931 -0.0583 -0.3740
14506TIP3    H164933   5.992   1.714  11.799 -1.7546  2.0053  1.9537
14506TIP3    H264934   5.936   1.613  11.898  0.1489 -2.0633 -0.8166
14507TIP3   OH264935   1.541   5.744   2.215 -0.4804  0.0610 -0.2590
14507TIP3    H164936   1.528   5.827   2.261 -0.8537  0.6330 -1.3513
14507TIP3    H264937   1.603   5.695   2.269  2.5190  2.4577 -1.2516
14508TIP3   OH264938   3.467   2.582  12.239  0.2382 -0.8582 -0.2807
14508TIP3    H164939   3.486   2.612  12.150 -0.1697 -1.9273 -0.7512
14508TIP3    H264940   3.552   2.574  12.281  0.4186 -0.1389 -0.5058
14509TIP3   OH264941   4.530   3.953   6.379 -0.2550  0.0007  0.3073
14509TIP3    H164942   4.461   4.016   6.356 -0.9021 -0.7132  0.2662
14509TIP3    H264943   4.564   3.985   6.463 -0.3472  0.5896  0.1295
14510TIP3   OH264944   3.671   3.638  15.212 -0.0627  0.2140  0.2874
14510TIP3    H164945   3.718   3.694  15.274  1.3884  1.6165 -1.9611
14510TIP3    H264946   3.588   3.618  15.256  0.4915  1.9441  2.2563
14511TIP3   OH264947   5.566   1.697  14.419 -0.0240  0.4809 -0.3656
14511TIP3    H164948   5.507   1.631  14.456  2.1688 -0.4819  1.6873
14511TIP3    H264949   5.629   1.646  14.368 -0.6156  1.4468 -2.1529
14512TIP3   OH264950   1.930   2.087  13.748  0.2232 -0.2153 -0.6519
14512TIP3    H164951   1.844   2.077  13.789  0.7078 -2.1346  0.0075
14512TIP3    H264952   1.943   2.006  13.700  3.2780 -1.9227  2.5674
14513TIP3   OH264953   0.326   3.663  14.998 -0.0075 -0.4989  0.7452
14513TIP3    H164954   0.375   3.652  14.916  1.7018  1.0365  1.4751
14513TIP3    H264955   0.234   3.664  14.972  0.4061 -1.6883 -0.9311
14514TIP3   OH264956   4.867   3.006   2.734  0.3621 -0.6787 -0.1774
14514TIP3    H164957   4.847   3.044   2.820  1.6746 -1.8128  0.6872
14514TIP3    H264958   4.799   2.940   2.721 -0.7602  0.5524 -0.7696
14515TIP3   OH264959   0.712   1.854  15.881 -0.1481  0.2114  0.3387
14515TIP3    H164960   0.781   1.917  15.859 -0.1785  0.6355  1.4265
14515TIP3    H264961   0.700   1.804  15.800 -0.4979  1.9331 -0.7376
14516TIP3   OH264962   6.348   2.109   3.135 -0.5619  0.0338 -0.5296
14516TIP3    H164963   6.436   2.081   3.162 -0.3242 -0.2432 -1.5637
14516TIP3    H264964   6.322   2.046   3.068 -1.4751  0.2323 -0.3802
14517TIP3   OH264965   1.024   5.231   5.168  0.6217 -0.9928  0.0004
14517TIP3    H164966   0.935   5.266   5.163  0.3722 -1.6560 -0.2490
14517TIP3    H264967   1.068   5.286   5.234  0.7770  0.9761 -1.6355
14518TIP3   OH264968   0.150   1.300  13.697  0.0085  0.5971  0.3276
14518TIP3    H164969   0.232   1.343  13.673 -0.2409  2.0445  1.8214
14518TIP3    H264970   0.150   1.218  13.648  1.7227  1.1553 -0.7025
14519TIP3   OH264971   5.583   3.790   3.598  0.3104 -0.9613 -0.4742
14519TIP3    H164972   5.497   3.764   3.566  0.8385 -0.8143 -2.1253
14519TIP3    H264973   5.579   3.886   3.603  0.5507 -0.9083 -1.1491
14520TIP3   OH264974   6.343   3.282  14.182  0.3943 -0.2760 -0.0287
14520TIP3    H164975   6.369   3.230  14.106  1.5585 -0.4671  0.4729
14520TIP3    H264976   6.350   3.373  14.154  1.3828 -0.3316  0.0067
14521TIP3   OH264977   3.725   5.565   3.096  0.1669  0.4867 -0.1626
14521TIP3    H164978   3.745   5.475   3.120  1.4013  0.6811 -0.4021
14521TIP3    H264979   3.629   5.571   3.100  0.0683 -0.8594 -0.2536
14522TIP3   OH264980   6.692   6.328   3.738 -0.1437 -0.0532  0.7836
14522TIP3    H164981   6.744   6.398   3.698 -0.0154 -0.9963 -0.7878
14522TIP3    H264982   6.745   6.299   3.813  0.7943  0.1714  0.2340
14523TIP3   OH264983   3.400   4.357   1.129  0.0543 -0.0524  0.6399
14523TIP3    H164984   3.486   4.331   1.097  0.0876 -0.1637  0.8195
14523TIP3    H264985   3.403   4.338   1.223 -0.1607 -0.0447  0.6476
14524TIP3   OH264986   3.686   3.967   3.110 -0.1937  0.8159 -0.1956
14524TIP3    H164987   3.610   3.988   3.056 -0.2808  1.6875  0.2459
14524TIP3    H264988   3.738   3.906   3.057 -0.8977  0.6840 -0.7394
14525TIP3   OH264989   0.363   6.308  12.722  0.3601 -0.1816  0.2021
14525TIP3    H164990   0.340   6.243  12.656  2.3701  0.4386 -1.2218
14525TIP3    H264991   0.299   6.378  12.711  2.0959  1.0985 -2.9924
14526TIP3   OH264992   0.666   4.843  14.132  0.2709  0.1466 -0.1691
14526TIP3    H164993   0.691   4.891  14.053 -0.7523 -0.3817 -0.8360
14526TIP3    H264994   0.597   4.783  14.103 -0.0638 -0.1195  1.1092
14527TIP3   OH264995   0.423   6.265  11.250 -0.0059 -0.6750 -0.2109
14527TIP3    H164996   0.383   6.270  11.163  1.8306  0.4399 -1.0621
14527TIP3    H264997   0.472   6.346  11.259  2.0412 -1.9122  0.7283
14528TIP3   OH264998   4.498   3.913   1.919 -0.1225 -0.1729 -0.0211
14528TIP3    H164999   4.433   3.906   1.988 -1.6149  1.4055 -1.1862
14528TIP3    H265000   4.477   3.842   1.858 -1.9771  1.3902 -1.3027
14529TIP3   OH265001   3.916   2.112  15.037 -0.1834  0.0438 -0.4497
14529TIP3    H165002   3.825   2.087  15.051 -0.0379  0.0641  0.5661
14529TIP3    H265003   3.966   2.036  15.067  0.1636  0.3738 -0.1919
14530TIP3   OH265004   2.525   4.397   0.969  0.2143  0.3373 -0.3990
14530TIP3    H165005   2.517   4.492   0.968 -1.6591  0.2224 -0.2582
14530TIP3    H265006   2.566   4.378   1.054 -1.0158  0.9556  0.3679
14531TIP3   OH265007   1.192   3.525  17.243 -0.2483 -0.1585 -0.0220
14531TIP3    H165008   1.259   3.594  17.240 -1.4318  0.9938 -1.0603
14531TIP3    H265009   1.185   3.503  17.336  1.0267  0.2226  0.1907
14532TIP3   OH265010   0.704   3.569  10.552 -0.0328  0.3544  0.1837
14532TIP3    H165011   0.698   3.618  10.634 -0.6817  1.2100 -0.3530
14532TIP3    H265012   0.614   3.541  10.534 -0.0428  0.8600 -0.6286
14533TIP3   OH265013   3.017   5.609  12.767  0.2262 -0.2099  0.1488
14533TIP3    H165014   2.961   5.532  12.759  0.1474  0.0056 -2.1578
14533TIP3    H265015   3.031   5.638  12.677 -1.5819  3.7988  0.9217
14534TIP3   OH265016   6.387   0.040  14.775 -0.4087 -0.1101  0.2621
14534TIP3    H165017   6.418   0.130  14.783  1.0409 -0.5271 -0.4022
14534TIP3    H265018   6.387   0.022  14.681  0.5101 -1.1822  0.4415
14535TIP3   OH265019   4.746   5.845   4.356 -0.6090  0.3124  0.4910
14535TIP3    H165020   4.658   5.817   4.330 -0.0769 -1.0306  0.0447
14535TIP3    H265021   4.740   5.941   4.362 -2.1488  0.2270  0.6879
14536TIP3   OH265022   5.092   6.380   0.101 -0.3068 -0.4744  0.4197
14536TIP3    H165023   5.119   6.310   0.042 -0.6362 -0.3251  0.0863
14536TIP3    H265024   5.077   6.337   0.185 -0.8828 -0.8708  0.1167
14537TIP3   OH265025   5.033   4.590  16.074  0.1144 -0.1213  0.4480
14537TIP3    H165026   4.953   4.628  16.039  0.1613 -0.9995 -0.7000
14537TIP3    H265027   5.064   4.532  16.004  0.9997 -0.8577  1.4126
14538TIP3   OH265028   0.017   4.502  11.784 -0.0603 -0.6917 -0.2861
14538TIP3    H165029   0.020   4.503  11.688  0.1336 -1.1157 -0.2886
14538TIP3    H265030   0.082   4.567  11.810  0.2548 -0.9408 -0.4412
14539TIP3   OH265031   5.714   3.223   1.278 -0.3882 -0.3160  0.3746
14539TIP3    H165032   5.713   3.275   1.358 -0.7024  0.8424 -0.3591
14539TIP3    H265033   5.758   3.142   1.303  0.1592  0.3143  1.5462
14540TIP3   OH265034   0.530   5.013   2.237 -0.1959  0.1048  0.0228
14540TIP3    H165035   0.608   4.979   2.195 -1.2749  0.7266 -2.7336
14540TIP3    H265036   0.548   5.106   2.250 -0.2512  0.1314 -0.0864
14541TIP3   OH265037   0.987   0.790  14.021 -0.2919  0.0209 -0.5403
14541TIP3    H165038   0.985   0.815  13.928  0.2345 -0.9495 -0.8284
14541TIP3    H265039   1.065   0.832  14.056 -1.7743  2.4438  0.1163
14542TIP3   OH265040   1.111   5.548  15.393 -0.2906  0.1279 -0.2534
14542TIP3    H165041   1.052   5.475  15.408  0.2741 -0.3007 -0.1035
14542TIP3    H265042   1.062   5.606  15.334 -0.1222 -1.1512 -1.7124
14543TIP3   OH265043   2.815   4.345  15.056 -0.2893  0.2480 -0.0704
14543TIP3    H165044   2.882   4.344  14.987 -2.0972 -2.0673 -1.9524
14543TIP3    H265045   2.823   4.259  15.098 -0.6414  0.8215  1.2173
14544TIP3   OH265046   3.364   5.942  16.633  0.0946  0.5814  0.0436
14544TIP3    H165047   3.435   5.933  16.697  0.2521 -0.5430 -0.2837
14544TIP3    H265048   3.317   6.021  16.662 -0.0468 -0.0883  1.7515
14545TIP3   OH265049   1.313   2.684  16.486 -0.0908  0.3476 -0.2951
14545TIP3    H165050   1.407   2.699  16.499 -0.1661  1.3076 -0.7693
14545TIP3    H265051   1.305   2.667  16.392 -0.3843  0.1978 -0.2433
14546TIP3   OH265052   1.925   0.891   2.789  0.5798 -0.0364 -0.1832
14546TIP3    H165053   2.017   0.901   2.814  0.4163  1.1699  0.0194
14546TIP3    H265054   1.888   0.979   2.801 -0.7458 -0.6396  0.3243
14547TIP3   OH265055   4.864   5.208  16.243 -0.0314  0.0332 -0.3243
14547TIP3    H165056   4.824   5.288  16.275 -2.4088 -1.0260 -0.4331
14547TIP3    H265057   4.923   5.236  16.173  1.0909  1.8539  1.2680
14548TIP3   OH265058   3.481   3.617   6.719  0.4710  0.1035 -0.2920
14548TIP3    H165059   3.387   3.633   6.717 -0.2117 -3.1941  0.3326
14548TIP3    H265060   3.509   3.626   6.628 -1.2863 -2.5927 -1.2362
14549TIP3   OH265061   3.118   6.347  17.229  0.2706 -0.3216 -0.6038
14549TIP3    H165062   3.089   6.277  17.171  1.0745  0.0976 -1.5440
14549TIP3    H265063   3.164   6.302  17.300  0.2922 -0.7797 -0.9058
14550TIP3   OH265064   2.203   1.932   3.995  0.0266 -0.0641  0.3527
14550TIP3    H165065   2.174   1.904   3.908 -0.7983 -0.3025  0.6915
14550TIP3    H265066   2.287   1.890   4.008 -0.1877 -0.6139 -0.0392
14551TIP3   OH265067   5.056   4.664   5.023  0.0113 -0.0257 -0.3063
14551TIP3    H165068   5.061   4.731   4.955  0.3743  0.3373  0.0752
14551TIP3    H265069   5.026   4.586   4.977  1.1969 -0.0422 -1.0725
14552TIP3   OH265070   6.603   1.224  14.695  0.2319 -0.1857  0.1480
14552TIP3    H165071   6.562   1.310  14.691  0.8212  0.0649 -1.0069
14552TIP3    H265072   6.594   1.197  14.786 -1.2606  0.4498  0.2187
14553TIP3   OH265073   6.734   0.973  16.141 -0.4040  0.5888 -0.2265
14553TIP3    H165074   6.740   0.906  16.074 -0.7428 -1.0644  1.3247
14553TIP3    H265075   6.811   1.028  16.126 -0.9800  0.8893 -2.5252
14554TIP3   OH265076   2.973   4.004   0.978  0.4065 -0.3420 -0.2101
14554TIP3    H165077   3.031   4.075   1.003 -0.4359  0.3097 -0.0678
14554TIP3    H265078   2.903   4.005   1.043  0.6518 -1.6359  0.0900
14555TIP3   OH265079   4.578   4.263  15.792  0.2330 -0.0299  0.4390
14555TIP3    H165080   4.546   4.192  15.847  0.7869 -0.6224  0.0086
14555TIP3    H265081   4.592   4.223  15.706  0.2628  0.6678  0.1090
14556TIP3   OH265082   6.388   5.887  11.577 -0.0835 -1.0786  0.0241
14556TIP3    H165083   6.384   5.963  11.519  1.6146 -0.3474  0.7792
14556TIP3    H265084   6.322   5.904  11.644 -0.4853 -0.8288 -0.4257
14557TIP3   OH265085   5.458   0.051  15.306  0.1901 -0.6330 -0.1812
14557TIP3    H165086   5.444   0.145  15.296  1.2071 -0.5417 -0.9155
14557TIP3    H265087   5.385   0.010  15.259  0.4850 -0.1962 -1.0432
14558TIP3   OH265088   0.042   1.880   3.110 -0.2182  0.8749  0.3090
14558TIP3    H165089  -0.048   1.910   3.099 -0.4791 -0.3086 -1.0287
14558TIP3    H265090   0.040   1.829   3.192 -1.0174 -0.0093 -0.2457
14559TIP3   OH265091   0.534   0.743  13.794  0.2190  0.2463 -0.1067
14559TIP3    H165092   0.527   0.748  13.699  0.6001 -0.4778 -0.1754
14559TIP3    H265093   0.444   0.754  13.826 -0.4094 -2.6114 -0.6857
14560TIP3   OH265094   4.966   3.640   3.477  0.6340  0.2496 -0.7621
14560TIP3    H165095   5.008   3.726   3.473  0.5583  0.2632 -1.5692
14560TIP3    H265096   4.917   3.640   3.559  2.1616  0.2521  0.1898
14561TIP3   OH265097   2.522   5.893  11.633 -0.3067  0.1864 -0.6739
14561TIP3    H165098   2.475   5.976  11.630 -2.1376 -0.6432  1.6790
14561TIP3    H265099   2.455   5.827  11.623  0.7615 -1.0255 -0.1169
14562TIP3   OH265100   2.460   3.334  11.316 -0.4588  0.2212  0.4634
14562TIP3    H165101   2.367   3.314  11.325 -0.6000  0.5607 -0.1676
14562TIP3    H265102   2.488   3.284  11.239 -0.2150  0.4187  0.4208
14563TIP3   OH265103   2.080   1.572  12.179 -0.2688  0.4250 -0.3709
14563TIP3    H165104   2.108   1.660  12.201 -1.1634  0.4218  0.8704
14563TIP3    H265105   2.160   1.528  12.148  0.5870  1.0817  0.8482
14564TIP3   OH265106   1.966   5.006  11.457  0.3702  0.0220  0.1374
14564TIP3    H165107   1.872   5.006  11.440  0.4964 -0.1505 -0.5923
14564TIP3    H265108   1.976   4.968  11.544 -0.2769  0.5920  0.4669
14565TIP3   OH265109   0.713   0.849  14.459 -0.0627 -0.3741 -0.0109
14565TIP3    H165110   0.781   0.800  14.412  1.0376 -0.1934  1.3074
14565TIP3    H265111   0.682   0.914  14.396  0.8827 -0.5639 -0.6970
14566TIP3   OH265112   6.547   1.726  15.197  0.6341  0.3282 -0.5189
14566TIP3    H165113   6.626   1.685  15.163  0.6130 -0.9760  0.9009
14566TIP3    H265114   6.490   1.734  15.120  1.4815 -0.2936 -1.2390
14567TIP3   OH265115   6.787   3.076  13.102 -0.1951 -0.4553  0.0056
14567TIP3    H165116   6.843   3.129  13.159 -1.5282 -1.0371  2.0026
14567TIP3    H265117   6.762   3.001  13.157  0.2308 -2.2649 -2.1491
14568TIP3   OH265118   5.899   2.495  13.401  0.3292 -0.6292  0.0909
14568TIP3    H165119   5.870   2.560  13.337  4.2977  0.1303 -1.2000
14568TIP3    H265120   5.879   2.534  13.486 -1.6916  0.0389 -0.6446
14569TIP3   OH265121   6.088   2.868  10.818  0.2189  0.3919  0.1885
14569TIP3    H165122   6.131   2.898  10.898 -0.0523 -0.7940  0.7928
14569TIP3    H265123   6.127   2.922  10.749  0.6786  1.2206  1.0664
14570TIP3   OH265124   4.860   2.392   5.472 -0.3220 -0.0896 -0.6143
14570TIP3    H165125   4.949   2.421   5.456 -0.4612  1.1291  0.6314
14570TIP3    H265126   4.807   2.472   5.467 -1.0300 -0.4332  0.7926
14571TIP3   OH265127   1.960   0.057  11.221 -0.5470 -0.5620  0.0698
14571TIP3    H165128   2.033   0.116  11.240 -0.7750  0.0958 -1.0732
14571TIP3    H265129   1.924   0.088  11.139 -3.2072  0.1902  1.4064
14572TIP3   OH265130   5.363   4.402  11.704  0.0128  0.2056  0.4237
14572TIP3    H165131   5.284   4.445  11.736 -0.3898  0.4226 -0.8061
14572TIP3    H265132   5.361   4.416  11.609  1.5733  0.3033  0.3779
14573TIP3   OH265133   4.337   4.687  11.970  0.4650 -0.2230  0.5835
14573TIP3    H165134   4.298   4.623  12.029 -0.9441 -0.6701 -0.8015
14573TIP3    H265135   4.313   4.772  12.007 -0.7334 -0.4997  0.4489
14574TIP3   OH265136   5.549   3.891  11.940  0.1292  0.7235 -0.0097
14574TIP3    H165137   5.612   3.920  11.874 -0.9897  0.6070 -1.1653
14574TIP3    H265138   5.533   3.799  11.919  1.3561  0.0358  1.7656
14575TIP3   OH265139   3.713   1.696   2.586  0.7091 -0.2018 -0.0749
14575TIP3    H165140   3.642   1.648   2.629  0.1489  0.1677 -0.5639
14575TIP3    H265141   3.786   1.633   2.582 -0.3408 -1.4006 -1.6550
14576TIP3   OH265142   2.611   6.371  14.727  0.0654  0.6889  0.4238
14576TIP3    H165143   2.585   6.406  14.812 -0.6215  0.6260  0.2487
14576TIP3    H265144   2.581   6.437  14.664 -2.3155 -0.6979 -0.0060
14577TIP3   OH265145   2.462   3.690  12.034  0.6832  0.1647 -0.6603
14577TIP3    H165146   2.432   3.773  12.071  1.3875 -0.1496  0.6583
14577TIP3    H265147   2.468   3.707  11.940  0.1674  1.4028 -0.4882
14578TIP3   OH265148   2.866   4.344   3.598 -0.0470 -0.4431 -0.0525
14578TIP3    H165149   2.836   4.378   3.682 -0.8912  1.2279 -0.9767
14578TIP3    H265150   2.808   4.271   3.579 -1.0538  0.3217 -0.0056
14579TIP3   OH265151   0.895   5.412  11.295  0.0734  0.2816 -0.0091
14579TIP3    H165152   0.899   5.425  11.201 -0.2460  0.2599 -0.0248
14579TIP3    H265153   0.828   5.345  11.308 -1.0158  1.4178  0.3439
14580TIP3   OH265154   3.565   5.571   6.770  0.1142  0.7418 -0.5385
14580TIP3    H165155   3.559   5.665   6.757  1.5311  1.1703  1.3363
14580TIP3    H265156   3.501   5.533   6.710 -2.1408  3.0251  0.2804
14581TIP3   OH265157   2.437   4.029  13.255  0.4157 -0.2600 -0.3331
14581TIP3    H165158   2.462   4.064  13.169 -1.5510 -0.4869 -1.0365
14581TIP3    H265159   2.406   4.105  13.304  1.2561 -0.1799  0.0930
14582TIP3   OH265160   1.205   0.854   1.880 -0.0986 -0.0539 -0.5929
14582TIP3    H165161   1.241   0.896   1.802  1.3784 -0.1184  0.0184
14582TIP3    H265162   1.275   0.797   1.910 -1.3326 -1.4486 -0.2637
14583TIP3   OH265163   1.620   6.012   1.686 -0.1331  0.9908  0.1596
14583TIP3    H165164   1.570   6.044   1.761 -1.7264  0.3350 -0.5584
14583TIP3    H265165   1.571   6.043   1.610 -0.3365 -0.9552 -0.5643
14584TIP3   OH265166   2.898   6.138  11.324 -0.4547  0.1884  0.2030
14584TIP3    H165167   2.901   6.152  11.418  0.7350  0.7930  0.0909
14584TIP3    H265168   2.812   6.171  11.297 -1.0190 -0.4860  1.1385
14585TIP3   OH265169   5.489   0.511  14.723 -0.3587 -0.0252 -0.9209
14585TIP3    H165170   5.568   0.457  14.734 -0.2981  0.4832  1.6403
14585TIP3    H265171   5.417   0.447  14.717 -0.0597 -0.4482 -0.1362
14586TIP3   OH265172   4.581   3.653  11.033 -0.6369 -0.5320  0.4469
14586TIP3    H165173   4.595   3.559  11.042 -0.7468 -0.4759  1.3473
14586TIP3    H265174   4.561   3.683  11.122  2.7010  0.8625  0.8956
14587TIP3   OH265175   2.863   0.515   6.967 -0.4018  0.4049  0.1350
14587TIP3    H165176   2.877   0.441   6.909  0.9717 -0.1767  1.1497
14587TIP3    H265177   2.929   0.579   6.941  0.4377  0.0118  1.2140
14588TIP3   OH265178   2.269   4.096   4.614 -0.0242  0.7328  0.4110
14588TIP3    H165179   2.268   4.164   4.546 -0.0075  0.5575  0.2346
14588TIP3    H265180   2.212   4.130   4.683 -0.4911  0.6627  0.0664
14589TIP3   OH265181   4.817   6.563   4.813  0.2517  0.0723 -0.0932
14589TIP3    H165182   4.757   6.525   4.748 -1.3217  2.1778  0.0275
14589TIP3    H265183   4.871   6.490   4.841 -2.5067 -2.0634  0.0604
14590TIP3   OH265184   1.315   5.998   0.385  0.1810  0.0465 -0.3779
14590TIP3    H165185   1.316   6.082   0.431 -0.8612 -0.1448  0.0293
14590TIP3    H265186   1.378   5.944   0.432  0.3410  0.3817 -0.2052
14591TIP3   OH265187   2.148   4.574  15.737 -0.3637 -0.6476  0.2248
14591TIP3    H165188   2.196   4.656  15.744  0.0598 -0.8244 -0.4573
14591TIP3    H265189   2.170   4.525  15.817 -2.3250  0.7445  1.7275
14592TIP3   OH265190   2.462   2.008  16.731 -0.3695  0.0641  0.1743
14592TIP3    H165191   2.473   1.930  16.785 -0.5252 -0.1701 -0.1230
14592TIP3    H265192   2.507   1.987  16.649  0.4532  0.6810  0.4632
14593TIP3   OH265193   1.152   2.506   3.038  0.2734 -0.5002  0.8793
14593TIP3    H165194   1.078   2.461   2.997  0.6077 -0.2784  0.0210
14593TIP3    H265195   1.144   2.597   3.009  0.4313 -0.3078  1.4310
14594TIP3   OH265196   0.367   3.849   0.580 -0.0047  0.4383 -0.3227
14594TIP3    H165197   0.423   3.825   0.506  0.3132  0.5659 -0.1244
14594TIP3    H265198   0.397   3.936   0.606  1.6163 -0.5908  1.5607
14595TIP3   OH265199   0.315   6.205   4.248  0.2878  0.0216 -0.0161
14595TIP3    H165200   0.307   6.215   4.343 -0.7294 -1.0601  0.0366
14595TIP3    H265201   0.225   6.191   4.218  0.8222 -2.0288 -0.8378
14596TIP3   OH265202   2.932   5.641   1.083 -0.4142  0.4612 -0.7123
14596TIP3    H165203   2.927   5.724   1.131  0.3014  0.2095 -0.1888
14596TIP3    H265204   2.933   5.574   1.151  0.4341  0.0923 -1.0696
14597TIP3   OH265205   6.154   5.844   3.547 -0.2881 -0.0550 -0.1699
14597TIP3    H165206   6.155   5.796   3.629 -1.5072  0.0225 -0.0902
14597TIP3    H265207   6.246   5.863   3.529 -0.0928  1.6729  2.1947
14598TIP3   OH265208   3.270   4.366  16.925  0.4966 -0.0342 -0.3421
14598TIP3    H165209   3.218   4.348  17.003 -0.3499 -0.2760 -0.9433
14598TIP3    H265210   3.336   4.429  16.954  1.1645 -1.2505  0.9158
14599TIP3   OH265211   4.153   5.756   2.175  0.2110 -0.0002 -0.2788
14599TIP3    H165212   4.104   5.721   2.250 -1.9438  0.0086 -1.6057
14599TIP3    H265213   4.164   5.848   2.196  0.1881 -0.1246  0.3162
14600TIP3   OH265214   1.006   0.357   2.142 -0.0092  0.6074  0.1269
14600TIP3    H165215   1.045   0.375   2.056 -1.1110  1.9271 -0.1452
14600TIP3    H265216   0.924   0.408   2.142 -0.8192 -0.6205  1.3570
14601TIP3   OH265217   3.284   1.330  16.906 -0.4827  1.0474 -0.9512
14601TIP3    H165218   3.350   1.267  16.933  1.6123  1.9303 -3.5784
14601TIP3    H265219   3.220   1.330  16.978  1.1698 -1.4907  0.6892
14602TIP3   OH265220   5.753   5.376  11.794 -0.1663 -0.1447 -0.0867
14602TIP3    H165221   5.716   5.415  11.873  2.1881  2.2019 -0.0094
14602TIP3    H265222   5.700   5.412  11.723 -2.4611 -2.4654  0.3085
14603TIP3   OH265223   2.161   3.172   1.104 -0.6462 -0.7389  0.3298
14603TIP3    H165224   2.137   3.091   1.059  0.3120 -0.5049 -0.6308
14603TIP3    H265225   2.179   3.144   1.194 -0.9102 -1.4886  0.1585
14604TIP3   OH265226   1.502   6.524   0.045  0.1780  0.0294 -0.3691
14604TIP3    H165227   1.505   6.546   0.138 -2.2864  2.2587 -0.6914
14604TIP3    H265228   1.562   6.586   0.003 -0.5583  0.7017 -0.4618
14605TIP3   OH265229   2.983   4.169   6.445  0.1127 -0.2969  0.9453
14605TIP3    H165230   3.011   4.108   6.377 -0.9328  0.7905 -0.5507
14605TIP3    H265231   2.899   4.135   6.475 -0.8851  0.7387 -0.4817
14606TIP3   OH265232   3.586   5.504  11.798 -0.2889  0.0121  0.3769
14606TIP3    H165233   3.678   5.514  11.822  0.1163  0.9486 -1.3644
14606TIP3    H265234   3.575   5.410  11.782  0.0817 -0.2450  1.5583
14607TIP3   OH265235   4.218   3.757  15.591  0.3311 -0.4390 -0.0237
14607TIP3    H165236   4.313   3.768  15.594  0.3093  0.3655 -1.3978
14607TIP3    H265237   4.191   3.759  15.682  1.3787  1.9517  0.3100
14608TIP3   OH265238   0.079   5.108   4.102  0.3192 -0.4847 -0.2771
14608TIP3    H165239   0.062   5.014   4.110 -1.6428 -0.0667  1.3693
14608TIP3    H265240   0.012   5.139   4.041  1.2032 -0.1810 -1.1182
14609TIP3   OH265241   2.737   4.652   0.866  0.1146 -0.3970 -0.1188
14609TIP3    H165242   2.758   4.708   0.792 -0.8654 -0.7383 -0.6663
14609TIP3    H265243   2.664   4.695   0.910 -0.1553 -0.8572 -0.1074
14610TIP3   OH265244   4.417   4.754   0.450 -0.1230  0.4961  0.0288
14610TIP3    H165245   4.506   4.777   0.422 -0.1533 -0.7091 -1.1704
14610TIP3    H265246   4.420   4.762   0.545  0.9105  1.6695 -0.0744
14611TIP3   OH265247   1.679   3.065  15.631  0.1548  0.0407  0.5561
14611TIP3    H165248   1.621   3.138  15.608  1.0724  0.7007  0.2839
14611TIP3    H265249   1.639   3.026  15.709 -1.4635 -0.4609 -0.4635
14612TIP3   OH265250   3.491   4.484   1.853  0.4199 -0.0380 -0.2100
14612TIP3    H165251   3.432   4.525   1.790 -0.5407  0.9445  1.2501
14612TIP3    H265252   3.577   4.522   1.834  0.1900  0.0848 -1.0401
14613TIP3   OH265253   2.057   0.916  11.189  0.3051  0.1980  0.1875
14613TIP3    H165254   2.011   0.858  11.128 -0.1291  0.8109 -0.0725
14613TIP3    H265255   2.145   0.878  11.196 -0.3409 -1.2228  1.0079
14614TIP3   OH265256   0.790   5.056  13.898 -0.5276  0.0266 -0.5478
14614TIP3    H165257   0.869   5.025  13.942 -0.8524  0.6278  0.4933
14614TIP3    H265258   0.822   5.107  13.824  0.1098  1.1749  0.4866
14615TIP3   OH265259   4.171   5.348   5.864  0.2472 -0.2062 -0.0335
14615TIP3    H165260   4.223   5.295   5.924  0.6201  0.2891  0.0892
14615TIP3    H265261   4.120   5.405   5.921 -0.9416 -1.1400 -0.1320
14616TIP3   OH265262   6.151   4.039   2.652 -0.0220 -0.5894  0.2735
14616TIP3    H165263   6.111   4.122   2.676  0.0512  0.1844 -2.0318
14616TIP3    H265264   6.100   4.008   2.578  1.2983 -1.5070 -0.2931
14617TIP3   OH265265   0.714   6.401   0.473  0.2570  0.0564 -0.2319
14617TIP3    H165266   0.655   6.428   0.402 -0.3674 -3.5412 -1.2424
14617TIP3    H265267   0.658   6.398   0.551 -0.1833 -0.4739 -0.5668
14618TIP3   OH265268   2.415   6.329  13.726 -0.6320  0.1013 -0.5790
14618TIP3    H165269   2.393   6.410  13.773  0.6732 -0.0517  0.3247
14618TIP3    H265270   2.482   6.355  13.664  1.5826 -0.6608  1.3426
14619TIP3   OH265271   2.750   4.239   4.460 -0.7219  0.3241  0.6864
14619TIP3    H165272   2.808   4.309   4.490  0.7023 -0.4895 -0.0768
14619TIP3    H265273   2.792   4.159   4.491 -1.2462 -0.3048 -0.1985
14620TIP3   OH265274   0.781   0.409  11.902  0.2136  0.0760 -0.1304
14620TIP3    H165275   0.824   0.378  11.982 -1.9555  0.3831  1.2287
14620TIP3    H265276   0.699   0.448  11.932  1.0864  3.9148 -2.1090
14621TIP3   OH265277   1.463   5.411   0.494 -0.0500 -0.2145 -0.0623
14621TIP3    H165278   1.374   5.427   0.526  0.3128 -0.3320  1.0469
14621TIP3    H265279   1.475   5.316   0.503 -0.1992 -0.3561 -1.2655
14622TIP3   OH265280   2.858   6.560  12.009 -0.0052 -0.0057  0.2177
14622TIP3    H165281   2.807   6.556  11.928 -0.3538 -0.0020  0.4298
14622TIP3    H265282   2.914   6.637  11.999  0.7426 -0.6242 -0.4632
14623TIP3   OH265283   1.418   0.715   1.351  0.6686  0.1060  0.1201
14623TIP3    H165284   1.464   0.690   1.431  0.7953  0.1649  0.0654
14623TIP3    H265285   1.433   0.810   1.344 -0.1560  0.2811  0.5546
14624TIP3   OH265286   6.077   3.870   0.476 -0.1435  0.1123  0.0613
14624TIP3    H165287   5.999   3.917   0.506  0.1725 -0.4774  1.9354
14624TIP3    H265288   6.059   3.778   0.495  0.2496 -0.2691 -1.2823
14625TIP3   OH265289   0.972   2.260  14.740  0.0392  0.3947  0.0924
14625TIP3    H165290   0.994   2.167  14.750 -0.9440  0.2703  1.5633
14625TIP3    H265291   0.912   2.262  14.665 -0.5600 -0.2922  0.5372
14626TIP3   OH265292   3.011   3.559  15.736  0.1569  0.0510  0.7383
14626TIP3    H165293   3.092   3.570  15.687 -1.4721 -1.9314 -2.8833
14626TIP3    H265294   3.035   3.506  15.812  2.4823  1.0241  0.7433
14627TIP3   OH265295   2.254   0.377   3.088  0.7313 -0.0402  0.0987
14627TIP3    H165296   2.318   0.412   3.027  1.2070  0.4268  0.8549
14627TIP3    H265297   2.222   0.297   3.046  2.5727 -0.8632  0.1926
14628TIP3   OH265298   1.397   0.268  12.631 -0.3400 -0.1032  0.2932
14628TIP3    H165299   1.402   0.245  12.538  0.9194 -0.0405  0.3341
14628TIP3    H265300   1.437   0.355  12.636 -0.1854 -0.2101  0.9297
14629TIP3   OH265301   0.799   4.840   1.707  0.1983  0.0721  0.0881
14629TIP3    H165302   0.748   4.921   1.719 -3.6465 -2.2716  1.4558
14629TIP3    H265303   0.796   4.823   1.613  0.3708  1.0741 -0.1146
14630TIP3   OH265304   0.193   2.889  14.140 -0.0676 -0.6151  0.1312
14630TIP3    H165305   0.107   2.852  14.162 -0.6114  1.0396  1.0213
14630TIP3    H265306   0.178   2.937  14.058 -0.2253  0.2957  0.6689
14631TIP3   OH265307   3.070   4.553  16.530 -0.1119 -0.8995 -0.5025
14631TIP3    H165308   3.020   4.548  16.449 -0.1869 -1.6358 -0.4188
14631TIP3    H265309   3.109   4.467  16.539  0.9579 -0.4172 -0.4154
14632TIP3   OH265310   1.241   3.044  16.531 -0.3964  0.0007 -0.1214
14632TIP3    H165311   1.200   3.117  16.578 -0.1943 -0.8516  1.4416
14632TIP3    H265312   1.229   2.969  16.588  1.9481 -0.6084 -0.3479
14633TIP3   OH265313   3.407   4.329  11.763 -0.0744 -0.3848  0.6604
14633TIP3    H165314   3.374   4.266  11.700 -0.6239 -0.1091  0.6723
14633TIP3    H265315   3.371   4.301  11.847 -0.5693  0.1136  0.6218
14634TIP3   OH265316   3.652   5.748   4.705 -0.3621  0.0544 -0.0791
14634TIP3    H165317   3.693   5.674   4.750 -0.1683  0.0296 -0.2975
14634TIP3    H265318   3.619   5.803   4.776  1.0612  0.6608  0.1433
14635TIP3   OH265319   1.538   2.884   3.744  0.1370  0.1895 -0.9260
14635TIP3    H165320   1.551   2.795   3.777  0.0438  0.5510  0.1244
14635TIP3    H265321   1.492   2.872   3.661 -0.4541 -0.7177 -0.4914
14636TIP3   OH265322   3.345   1.449  14.423  0.0178 -0.0011  0.5177
14636TIP3    H165323   3.429   1.458  14.379 -0.4629  0.8453 -0.2501
14636TIP3    H265324   3.303   1.534  14.413 -1.7744 -0.9713 -0.8982
14637TIP3   OH265325   5.282   1.990   0.346 -0.2329 -0.4589 -0.2658
14637TIP3    H165326   5.321   2.075   0.367  2.8661 -1.4156 -1.5490
14637TIP3    H265327   5.266   1.995   0.252 -3.5512 -0.1038  0.1971
14638TIP3   OH265328   6.212   6.226   3.001 -0.3744  0.1448 -0.4768
14638TIP3    H165329   6.187   6.142   3.038 -2.1990  0.4613 -0.9176
14638TIP3    H265330   6.202   6.288   3.073  3.1791 -0.2408  0.5438
14639TIP3   OH265331   4.482   5.902   2.002 -0.0562 -0.1200 -0.0453
14639TIP3    H165332   4.452   5.971   2.062  0.5510 -0.0525  0.1890
14639TIP3    H265333   4.467   5.820   2.049 -0.1949 -0.1098 -0.0706
14640TIP3   OH265334   3.570   1.762   0.350 -0.1250 -0.0413 -0.2445
14640TIP3    H165335   3.479   1.733   0.345 -0.4990  1.1308 -0.3847
14640TIP3    H265336   3.604   1.747   0.262 -0.4736  0.4364 -0.4666
14641TIP3   OH265337   5.820   6.170   2.193 -0.1430  0.6888  1.0816
14641TIP3    H165338   5.774   6.136   2.116  2.6655 -1.8909  0.3200
14641TIP3    H265339   5.879   6.236   2.157 -0.4932  1.1728  1.4004
14642TIP3   OH265340   1.071   0.019  11.379  0.0844  0.2939 -0.1471
14642TIP3    H165341   1.048   0.092  11.321  0.5086  0.6937  0.1734
14642TIP3    H265342   1.126   0.059  11.446 -1.7317  0.1745  1.4873
14643TIP3   OH265343   4.517   2.907  16.703 -0.1934  0.2604 -0.0471
14643TIP3    H165344   4.513   2.820  16.663  2.1490  0.0570  0.0239
14643TIP3    H265345   4.534   2.967  16.630  0.7987  0.3070  0.2073
14644TIP3   OH265346   5.675   0.490  16.033  0.1071 -0.1356 -0.3361
14644TIP3    H165347   5.613   0.470  16.103  0.1157  0.9590  0.0019
14644TIP3    H265348   5.659   0.583  16.013  0.5374 -0.2680 -1.3518
14645TIP3   OH265349   0.489   6.136  12.912 -0.4479 -0.1088  0.0032
14645TIP3    H165350   0.545   6.183  12.974 -2.0929  0.5638  1.0556
14645TIP3    H265351   0.453   6.205  12.856  0.5184 -0.6451 -1.3011
14646TIP3   OH265352   1.412   0.725   5.582  0.2170  0.7969 -0.6815
14646TIP3    H165353   1.405   0.770   5.666  0.5889 -2.0257  1.0152
14646TIP3    H265354   1.321   0.706   5.558  0.1481  0.6163 -0.2899
14647TIP3   OH265355   3.848   0.159   1.861 -0.1107  0.0522  0.1949
14647TIP3    H165356   3.889   0.080   1.895 -0.4409 -1.1624 -2.0118
14647TIP3    H265357   3.754   0.142   1.864 -0.1622 -1.1460 -3.2220
14648TIP3   OH265358   6.738   4.551  16.731 -0.3002 -0.0911 -0.1790
14648TIP3    H165359   6.673   4.485  16.707  0.6992 -1.0414 -0.3095
14648TIP3    H265360   6.686   4.630  16.747 -1.6589 -1.2136  1.2429
14649TIP3   OH265361   5.931   5.772  11.747 -0.3705  0.5133 -0.6077
14649TIP3    H165362   5.889   5.748  11.829  0.7162 -0.8088 -0.4046
14649TIP3    H265363   6.025   5.777  11.768 -0.0502 -0.0797 -1.8030
14650TIP3   OH265364   0.548   5.475  11.936  0.1467 -0.1855 -0.1030
14650TIP3    H165365   0.463   5.434  11.922 -0.0803  0.2118  0.0975
14650TIP3    H265366   0.599   5.451  11.859 -1.3663  2.7223 -2.1745
14651TIP3   OH265367   2.033   6.370  15.882  0.1627  0.0613 -0.2920
14651TIP3    H165368   2.043   6.423  15.961 -1.4702  0.4175 -0.2782
14651TIP3    H265369   2.021   6.281  15.915 -1.9200  0.3946  0.0030
14652TIP3   OH265370   3.198   2.031   3.324 -0.6301  0.1836  0.1685
14652TIP3    H165371   3.279   2.050   3.277 -0.3481  1.9160  1.2456
14652TIP3    H265372   3.199   1.936   3.337  1.3707  0.1975  0.3941
14653TIP3   OH265373   6.587   4.431   5.448 -0.1581  0.0368 -0.0476
14653TIP3    H165374   6.517   4.436   5.513  0.5755  0.3111  0.7456
14653TIP3    H265375   6.633   4.515   5.455  0.5909 -0.3556 -0.1473
14654TIP3   OH265376   0.720   2.740  12.316 -0.1090  0.2602 -0.5416
14654TIP3    H165377   0.723   2.745  12.411  0.1502  1.4588 -0.6043
14654TIP3    H265378   0.627   2.737  12.295 -0.1586 -0.6992 -0.2339
14655TIP3   OH265379   1.852   1.322   3.912  0.5046  0.2626 -0.2560
14655TIP3    H165380   1.926   1.318   3.852  0.3884  1.1819 -0.4775
14655TIP3    H265381   1.848   1.235   3.951  0.5432 -0.3932 -1.6302
14656TIP3   OH265382   2.973   0.695  12.663  0.0204  0.0451 -0.0380
14656TIP3    H165383   2.905   0.714  12.599  0.0424  0.2453 -0.0022
14656TIP3    H265384   2.936   0.625  12.717 -0.7550  1.1596  0.9173
14657TIP3   OH265385   6.048   2.199  12.423  0.5536  0.1932  0.4329
14657TIP3    H165386   6.015   2.284  12.451  0.2449  1.1596 -2.4710
14657TIP3    H265387   5.975   2.159  12.375  2.1940  0.7638 -2.8992
14658TIP3   OH265388   2.093   5.429  13.937  0.1200 -0.1978 -0.2673
14658TIP3    H165389   2.094   5.437  14.033  0.1904  0.3061 -0.3115
14658TIP3    H265390   2.076   5.336  13.922 -5.4895  0.4042  0.2327
14659TIP3   OH265391   3.333   2.781  13.091 -0.4746 -0.4490  0.0270
14659TIP3    H165392   3.416   2.801  13.134 -0.5074 -1.1199  0.4211
14659TIP3    H265393   3.310   2.861  13.045  0.7809 -0.4978 -0.7283
14660TIP3   OH265394   2.822   0.275   2.015 -0.7247  0.2545 -0.2678
14660TIP3    H165395   2.769   0.220   2.073 -0.5685  0.0255 -0.3383
14660TIP3    H265396   2.780   0.267   1.929  0.6365 -1.6703 -0.8267
14661TIP3   OH265397   3.826   2.465   2.152 -0.4549  0.7076 -0.6292
14661TIP3    H165398   3.841   2.519   2.229  1.7036 -3.1945  2.0089
14661TIP3    H265399   3.894   2.491   2.090 -0.6218  2.1745 -0.2302
14662TIP3   OH265400   2.049   0.516  12.565 -0.0451  0.0973 -0.3389
14662TIP3    H165401   2.010   0.594  12.604 -0.1852 -0.4139  0.5861
14662TIP3    H265402   2.044   0.450  12.634  0.1827 -0.6966 -1.0633
14663TIP3   OH265403   2.435   3.209   2.234 -0.0813  0.0817 -0.1389
14663TIP3    H165404   2.521   3.250   2.228  0.3031 -0.8716 -2.0651
14663TIP3    H265405   2.412   3.213   2.327  1.4216  1.5680  0.2156
14664TIP3   OH265406   4.377   4.535   2.035 -0.3411 -0.2361 -0.1243
14664TIP3    H165407   4.384   4.441   2.021 -0.8136 -0.1107 -1.3113
14664TIP3    H265408   4.462   4.569   2.006 -0.8378 -0.1205 -1.5214
14665TIP3   OH265409   1.234   0.360   2.416  0.4950 -0.0517 -0.6942
14665TIP3    H165410   1.154   0.412   2.412 -0.2853 -1.2986 -3.4300
14665TIP3    H265411   1.205   0.272   2.440  1.3935 -0.0321  0.6107
14666TIP3   OH265412   2.951   2.138   2.047  0.5065 -0.1820  0.7111
14666TIP3    H165413   2.992   2.218   2.081 -0.0547  0.1005  0.7315
14666TIP3    H265414   2.919   2.093   2.125 -1.2274  0.7086  0.5707
14667TIP3   OH265415   3.101   2.223  17.106 -0.7939  0.6674  0.1209
14667TIP3    H165416   3.098   2.130  17.127  1.3588  0.2875 -0.9046
14667TIP3    H265417   3.181   2.255  17.150 -3.4351  3.0518  3.8259
14668TIP3   OH265418   2.649   4.249   2.466  0.3914  0.5843  0.0582
14668TIP3    H165419   2.591   4.311   2.511  0.3778  1.5715 -1.2468
14668TIP3    H265420   2.666   4.181   2.530 -1.0671  1.0118  0.9554
14669TIP3   OH265421   5.564   0.263   5.160  0.0622  0.5096 -0.9039
14669TIP3    H165422   5.635   0.211   5.124  1.7401  2.0288  0.0072
14669TIP3    H265423   5.580   0.352   5.128 -0.7481  1.1068  0.2397
14670TIP3   OH265424   5.754   4.289  13.146 -0.1866  0.1966 -0.0042
14670TIP3    H165425   5.658   4.288  13.142 -0.2288 -0.6189  0.7399
14670TIP3    H265426   5.776   4.211  13.198  0.9915 -1.1397 -2.3221
14671TIP3   OH265427   4.661   6.329  16.607  0.9142 -0.4034 -0.1807
14671TIP3    H165428   4.621   6.333  16.520  1.5654 -0.5520 -0.4892
14671TIP3    H265429   4.624   6.404  16.654 -0.5273 -1.1243 -0.1064
14672TIP3   OH265430   3.388   2.821  16.629  0.3709  0.2936 -0.0359
14672TIP3    H165431   3.428   2.886  16.571  1.9565 -0.6570 -0.0803
14672TIP3    H265432   3.371   2.746  16.572 -0.9648  0.4647  0.1153
14673TIP3   OH265433   4.455   6.351   1.643 -0.9955 -0.0947  0.2553
14673TIP3    H165434   4.446   6.264   1.683  0.8708 -0.6718 -0.4725
14673TIP3    H265435   4.452   6.335   1.549 -3.2213  0.9994  0.0623
14674TIP3   OH265436   2.778   6.758  11.253  0.2611  0.1701  0.7905
14674TIP3    H165437   2.712   6.798  11.309 -0.7743  0.4123 -0.5353
14674TIP3    H265438   2.827   6.832  11.217  2.2577 -0.0472  2.8355
14675TIP3   OH265439   0.470   1.784   3.634 -0.4888 -0.0800  0.5898
14675TIP3    H165440   0.439   1.697   3.611 -2.2781  0.7845 -0.4744
14675TIP3    H265441   0.394   1.829   3.671  0.1616  1.2646  0.3851
14676TIP3   OH265442   6.099   5.805   5.823  0.3882  0.2038  0.3827
14676TIP3    H165443   6.190   5.811   5.793  0.6364 -0.7631  0.9047
14676TIP3    H265444   6.106   5.775   5.913 -0.5107 -1.9182 -0.2097
14677TIP3   OH265445   2.440   6.698  15.903  0.5449 -0.1661 -0.2072
14677TIP3    H165446   2.434   6.786  15.941 -0.8871 -0.1146 -0.5202
14677TIP3    H265447   2.371   6.648  15.945  0.2632 -0.6786 -1.2501
14678TIP3   OH265448   1.323   0.763   0.806 -0.1591  0.3324 -0.2669
14678TIP3    H165449   1.299   0.752   0.897 -1.3347 -0.3296 -0.6370
14678TIP3    H265450   1.284   0.688   0.761  2.4821 -0.7654 -0.9699
14679TIP3   OH265451   2.490   1.536   3.428  0.6445  0.0934  0.1810
14679TIP3    H165452   2.474   1.442   3.421  2.0529 -0.0779 -1.2413
14679TIP3    H265453   2.578   1.543   3.465  0.0692  0.8938  1.4583
14680TIP3   OH265454   3.638   4.942   1.342  0.1667 -0.3336  0.1988
14680TIP3    H165455   3.607   4.910   1.257  1.3383  0.8278 -0.7022
14680TIP3    H265456   3.560   4.947   1.396 -0.5113 -1.7002 -0.5929
14681TIP3   OH265457   2.214   6.417   1.483 -0.0218 -0.0771  0.5494
14681TIP3    H165458   2.218   6.438   1.390  1.4756  0.7052  0.7558
14681TIP3    H265459   2.300   6.381   1.503 -0.7318 -1.3873  1.3940
14682TIP3   OH265460   3.257   0.740   5.062  0.2966  0.5121  0.0202
14682TIP3    H165461   3.250   0.705   4.973 -0.1043  2.1377 -0.6287
14682TIP3    H265462   3.225   0.830   5.054  0.6095  0.7973  1.7445
14683TIP3   OH265463   4.913   5.077   4.405 -0.1803 -0.0188 -0.0904
14683TIP3    H165464   4.915   4.981   4.397 -0.9864  0.0053 -0.7067
14683TIP3    H265465   4.838   5.104   4.351 -1.6366  0.7615  2.1701
14684TIP3   OH265466   0.713   4.845   3.408 -0.8758  0.2467  0.1541
14684TIP3    H165467   0.711   4.755   3.442  2.1056  0.1391  0.3373
14684TIP3    H265468   0.741   4.835   3.317  0.8573  0.9943  0.5607
14685TIP3   OH265469   4.436   2.938  11.023  0.2789  0.1581  0.0195
14685TIP3    H165470   4.504   2.884  10.981 -0.7173 -0.5856 -0.6736
14685TIP3    H265471   4.384   2.972  10.951  0.1328  1.0370  0.5292
14686TIP3   OH265472   3.775   0.221  11.922  0.1036 -0.5334  0.2456
14686TIP3    H165473   3.696   0.274  11.914  0.8895  0.5169 -0.9485
14686TIP3    H265474   3.747   0.142  11.968 -1.5862 -0.0951  0.0109
14687TIP3   OH265475   5.812   3.492   4.624  0.1537  0.8859 -0.0005
14687TIP3    H165476   5.819   3.575   4.576  1.4573  2.0282  2.0121
14687TIP3    H265477   5.897   3.450   4.609 -0.9114 -0.7442 -1.9799
14688TIP3   OH265478   1.031   6.285  12.014 -0.2984 -0.2479 -0.1186
14688TIP3    H165479   1.053   6.216  11.951  0.5052  0.7649 -0.9812
14688TIP3    H265480   1.116   6.321  12.040 -0.6721 -0.0939  0.9194
14689TIP3   OH265481   3.411   5.209  15.485  0.2639 -0.7922  0.1787
14689TIP3    H165482   3.464   5.167  15.417  3.9362  1.8264  1.1440
14689TIP3    H265483   3.408   5.145  15.556 -0.3064 -2.0567 -0.9481
14690TIP3   OH265484   6.674   5.350  14.300 -0.6040 -0.1824  0.7317
14690TIP3    H165485   6.706   5.435  14.271 -1.3674  0.4687  1.7579
14690TIP3    H265486   6.664   5.358  14.395 -1.9856 -0.9564  0.6809
14691TIP3   OH265487   5.877   1.465  16.986  0.2589 -0.0091  0.3006
14691TIP3    H165488   5.786   1.436  16.979 -0.8128  2.6483  1.7345
14691TIP3    H265489   5.911   1.418  17.063 -0.2194 -0.2645  0.3584
14692TIP3   OH265490   3.779   2.772  15.167  0.3161 -0.2431 -0.3293
14692TIP3    H165491   3.848   2.833  15.139  0.1430  0.0339 -0.1636
14692TIP3    H265492   3.813   2.733  15.248  0.3182 -0.1734 -0.2960
14693TIP3   OH265493   3.091   2.054  15.941  0.3016  0.2052  0.0870
14693TIP3    H165494   3.142   1.975  15.920 -1.6026 -1.5977  1.7599
14693TIP3    H265495   3.117   2.075  16.031 -0.3190  0.5422  0.1918
14694TIP3   OH265496   4.414   1.451  12.669  0.2525 -0.2394 -0.3516
14694TIP3    H165497   4.363   1.450  12.588 -1.9748 -1.8772  0.9728
14694TIP3    H265498   4.350   1.436  12.738  2.3065 -0.5387  1.6068
14695TIP3   OH265499   5.526   2.726   5.396  0.6226 -0.1910 -0.5184
14695TIP3    H165500   5.514   2.632   5.415 -1.0404  0.1773  0.5057
14695TIP3    H265501   5.614   2.732   5.359  1.2653 -1.9911  0.5725
14696TIP3   OH265502   6.160   0.693  11.147  0.5466  0.2272 -0.1425
14696TIP3    H165503   6.155   0.712  11.241 -1.3750  1.1949 -0.3816
14696TIP3    H265504   6.071   0.668  11.123  1.1542 -0.6688 -1.5962
14697TIP3   OH265505   4.539   3.357  16.353  0.5014 -0.1171 -0.3991
14697TIP3    H165506   4.595   3.435  16.350 -0.4396  0.5523 -1.2073
14697TIP3    H265507   4.505   3.356  16.442  0.1823  0.6624 -0.5003
14698TIP3   OH265508   6.500   5.504   4.743 -0.0369 -0.1136  0.0916
14698TIP3    H165509   6.515   5.599   4.739 -0.1922  0.0310  2.1617
14698TIP3    H265510   6.476   5.481   4.653  3.3934  1.1887 -1.3458
14699TIP3   OH265511   0.895   2.105  10.794 -0.1195  0.0689 -0.5043
14699TIP3    H165512   0.980   2.084  10.833  0.4164 -1.5333 -2.4244
14699TIP3    H265513   0.908   2.191  10.754  0.0688  0.5772  0.5966
14700TIP3   OH265514   2.331   1.964   0.138 -0.5104 -0.3497  0.5788
14700TIP3    H165515   2.286   1.924   0.212  0.5972 -0.0165  1.4630
14700TIP3    H265516   2.377   1.892   0.095  0.0113 -0.3101  1.0753
14701TIP3   OH265517   0.437   5.284   1.109 -0.9448 -0.2322  0.6640
14701TIP3    H165518   0.439   5.328   1.194  0.6076 -0.7816  0.9409
14701TIP3    H265519   0.441   5.354   1.045  0.6360  0.1064  1.0901
14702TIP3   OH265520   3.965   6.262  15.656 -0.4614  0.0701 -0.0226
14702TIP3    H165521   3.944   6.183  15.707 -0.5105  1.5404  2.3737
14702TIP3    H265522   3.900   6.263  15.586 -0.5932 -1.8694  0.0114
14703TIP3   OH265523   4.688   5.219   0.407 -0.0713 -0.1970 -0.1442
14703TIP3    H165524   4.730   5.133   0.407  1.7355  0.6126  1.5458
14703TIP3    H265525   4.732   5.267   0.337 -0.2919 -0.2749 -0.3392
14704TIP3   OH265526   1.941   2.330   2.597  0.1762 -0.2830 -0.3399
14704TIP3    H165527   1.871   2.392   2.581 -0.2878 -0.3647  1.1917
14704TIP3    H265528   2.022   2.381   2.587 -0.1831  0.4382  0.3865
14705TIP3   OH265529   5.595   1.284   4.483  0.7945 -0.2986  0.0013
14705TIP3    H165530   5.646   1.297   4.563 -0.0668 -1.0368  0.6978
14705TIP3    H265531   5.507   1.313   4.505  1.0725  1.8642 -1.4867
14706TIP3   OH265532   2.282   2.146   0.564  0.0475 -0.3223 -0.1754
14706TIP3    H165533   2.249   2.108   0.645  1.8211 -2.2638 -0.2593
14706TIP3    H265534   2.325   2.073   0.519  1.5223  1.2908 -1.5522
14707TIP3   OH265535   6.242   1.894   4.173 -0.6954  0.0591 -0.1503
14707TIP3    H165536   6.230   1.917   4.081  0.7041  1.2526 -0.0591
14707TIP3    H265537   6.153   1.895   4.210 -1.2477 -0.2708 -1.4258
14708TIP3   OH265538   1.325   6.726  14.633  0.1484  0.2279 -0.3944
14708TIP3    H165539   1.248   6.685  14.673 -1.0970  1.5320 -1.3566
14708TIP3    H265540   1.332   6.685  14.547 -0.1132  0.8506 -0.7170
14709TIP3   OH265541   3.707   1.582   3.482 -0.6071 -0.7700  0.0305
14709TIP3    H165542   3.667   1.667   3.464 -0.3740 -0.6891 -0.1172
14709TIP3    H265543   3.703   1.535   3.399  0.2721 -0.4793 -0.1823
14710TIP3   OH265544   2.475   0.547   4.151 -0.6896  0.1311 -0.6003
14710TIP3    H165545   2.457   0.464   4.195 -0.9320 -0.5858 -1.9898
14710TIP3    H265546   2.389   0.581   4.126 -0.5225  0.0439 -1.3364
14711TIP3   OH265547   5.833   5.262  13.476  0.7370 -0.1589 -0.9993
14711TIP3    H165548   5.892   5.279  13.550  1.2205 -0.6805 -1.2571
14711TIP3    H265549   5.772   5.196  13.509 -0.9864  1.7725 -0.0795
14712TIP3   OH265550   2.303   1.885  11.535  0.7663 -0.1034  0.1471
14712TIP3    H165551   2.265   1.970  11.514  0.9746 -0.1145 -0.2953
14712TIP3    H265552   2.306   1.839  11.452 -0.5643 -1.0592  0.6058
14713TIP3   OH265553   3.410   1.551  16.261  0.4334  0.2548  0.5984
14713TIP3    H165554   3.350   1.602  16.208 -0.0549  0.4614  1.3287
14713TIP3    H265555   3.490   1.545  16.209  0.0872  0.7459  0.0012
14714TIP3   OH265556   6.034   4.013  15.669  0.2668  0.8745  0.4603
14714TIP3    H165557   6.053   3.923  15.694  0.4423  0.7717 -0.0355
14714TIP3    H265558   5.952   4.033  15.714 -2.1569 -0.9737 -2.6879
14715TIP3   OH265559   3.038   0.350   5.269 -0.1291  0.1124 -0.3647
14715TIP3    H165560   3.051   0.264   5.310  1.7106  0.3575 -0.3461
14715TIP3    H265561   2.987   0.399   5.334 -0.6417 -0.7468 -0.0977
14716TIP3   OH265562   5.241   4.861  16.688  0.2703  0.1519 -0.4276
14716TIP3    H165563   5.209   4.789  16.743  3.4233 -1.4260 -0.4236
14716TIP3    H265564   5.214   4.838  16.599 -2.4008  1.2604  0.0117
14717TIP3   OH265565   5.256   0.501  13.520 -0.0310  0.1190 -0.5429
14717TIP3    H165566   5.233   0.594  13.515  0.1471  0.1792 -0.2495
14717TIP3    H265567   5.225   0.473  13.606 -1.5557 -0.4975 -1.2535
14718TIP3   OH265568   0.154   3.675  13.824  0.2062 -0.3763 -0.0662
14718TIP3    H165569   0.200   3.599  13.859 -0.9221 -1.7004 -1.3221
14718TIP3    H265570   0.148   3.736  13.897  1.8273 -1.1454  0.7545
14719TIP3   OH265571   1.225   6.536   0.822 -0.0137  0.0320  0.2395
14719TIP3    H165572   1.297   6.473   0.819 -1.4178 -1.5981 -0.6669
14719TIP3    H265573   1.242   6.596   0.750  0.9870  0.3397  0.7061
14720TIP3   OH265574   4.519   5.488   2.484  0.5716 -0.0201 -0.0054
14720TIP3    H165575   4.531   5.470   2.391  0.6571 -2.7165  0.4317
14720TIP3    H265576   4.425   5.506   2.493  0.2039 -1.5930 -0.4015
14721TIP3   OH265577   0.918   1.448  12.234  0.7076  0.0312 -0.2545
14721TIP3    H165578   0.963   1.478  12.313  1.7358 -0.8034 -0.5101
14721TIP3    H265579   0.845   1.394  12.267  2.1293 -1.7329  0.1418
14722TIP3   OH265580   2.327   2.194  14.320 -0.0671 -0.3973 -0.3867
14722TIP3    H165581   2.352   2.134  14.390 -0.1679  0.3940  0.3338
14722TIP3    H265582   2.350   2.147  14.239  0.9979 -0.8989  0.1940
14723TIP3   OH265583   3.971   3.658   4.518 -0.1710 -1.0317 -0.2091
14723TIP3    H165584   4.028   3.660   4.595 -0.4312 -1.1391 -0.0109
14723TIP3    H265585   3.882   3.661   4.554 -0.3633  2.9437 -0.5743
14724TIP3   OH265586   4.969   2.102   1.844 -0.1677  0.0249 -0.0836
14724TIP3    H165587   5.005   2.016   1.822  0.6691  0.4063 -0.2641
14724TIP3    H265588   4.875   2.089   1.845 -0.0092 -1.3694  1.8497
14725TIP3   OH265589   5.478   1.822  14.007 -0.0616 -0.3368 -0.3973
14725TIP3    H165590   5.387   1.800  13.984 -0.3022 -0.3425  0.4912
14725TIP3    H265591   5.476   1.830  14.102  0.4418  1.6829 -0.5320
14726TIP3   OH265592   2.365   1.361   3.724  0.3449 -0.4300  0.1154
14726TIP3    H165593   2.376   1.384   3.631  0.1633 -2.2396 -0.3816
14726TIP3    H265594   2.407   1.433   3.771  2.8546 -0.7890 -1.4130
14727TIP3   OH265595   5.624   1.705   0.910  0.6843 -0.0368 -0.2791
14727TIP3    H165596   5.692   1.710   0.977  0.6715  0.2361 -0.2838
14727TIP3    H265597   5.547   1.672   0.956  1.3318 -2.2573 -0.6786
14728TIP3   OH265598   5.055   3.859  15.542 -0.1539  0.0952 -0.8744
14728TIP3    H165599   4.990   3.918  15.504 -0.1663  1.2625  0.8461
14728TIP3    H265600   5.081   3.902  15.623  1.5630 -1.1629 -0.7133
14729TIP3   OH265601   2.262   2.870   3.773 -0.0444 -0.2522  0.1437
14729TIP3    H165602   2.237   2.795   3.827  0.1176 -0.0871  0.4490
14729TIP3    H265603   2.278   2.941   3.836 -1.5721  0.4533 -0.2025
14730TIP3   OH265604   1.493   0.587  14.710  0.6948 -0.2461 -0.1955
14730TIP3    H165605   1.487   0.638  14.790  0.3796 -1.0920  0.3369
14730TIP3    H265606   1.511   0.497  14.740  0.2026 -0.6422 -1.0403
14731TIP3   OH265607   2.829   4.859  12.340  0.1269  0.1334 -0.6496
14731TIP3    H165608   2.761   4.802  12.304 -1.2107  0.6523  0.9214
14731TIP3    H265609   2.874   4.806  12.405 -1.2912  0.8680  1.0028
14732TIP3   OH265610   5.086   5.485  11.424  0.0797  0.0390 -0.0355
14732TIP3    H165611   5.163   5.429  11.428 -0.3068 -0.4709  0.5187
14732TIP3    H265612   5.085   5.532  11.507  0.1163  0.4863 -0.2838
14733TIP3   OH265613   4.225   3.773   3.643 -0.1535 -0.3633  1.1815
14733TIP3    H165614   4.222   3.806   3.733 -1.5467  0.8504  0.7199
14733TIP3    H265615   4.133   3.762   3.618 -0.0564  3.0106 -1.3792
14734TIP3   OH265616   0.261   2.019  17.145  0.6565 -0.4669 -0.2684
14734TIP3    H165617   0.210   1.989  17.220  1.3373 -1.6403 -0.2446
14734TIP3    H265618   0.211   1.989  17.069  0.4525 -0.1247 -0.2674
14735TIP3   OH265619   5.325   3.877  14.655 -0.2220  0.1101 -0.0408
14735TIP3    H165620   5.340   3.815  14.584 -0.9743 -0.4514  0.2759
14735TIP3    H265621   5.242   3.918  14.633  1.1967  2.5181 -1.3099
14736TIP3   OH265622   4.706   3.506   5.139  0.3788 -0.3054  0.1543
14736TIP3    H165623   4.708   3.433   5.201 -0.2812 -1.0711 -0.7070
14736TIP3    H265624   4.629   3.557   5.163 -0.3982 -1.1068 -0.5784
14737TIP3   OH265625   2.818   4.767  14.717  0.2964  0.2271 -0.3748
14737TIP3    H165626   2.723   4.755  14.721  0.2072  0.9811 -0.1349
14737TIP3    H265627   2.839   4.819  14.794  0.9795 -0.3744 -0.1483
14738TIP3   OH265628   2.919   4.224  14.252 -0.2909 -0.0241 -0.2478
14738TIP3    H165629   2.952   4.296  14.306 -0.6249  0.3081 -0.4826
14738TIP3    H265630   2.952   4.243  14.165  1.2743 -1.2035  0.0455
14739TIP3   OH265631   2.914   3.273  14.374 -0.2031  0.2404 -0.1122
14739TIP3    H165632   2.819   3.275  14.378 -0.2877 -1.9366  0.8693
14739TIP3    H265633   2.942   3.284  14.465  0.4966  1.0100 -0.4106
14740TIP3   OH265634   0.435   6.244   3.941 -0.1540  0.5330 -0.6927
14740TIP3    H165635   0.375   6.275   4.009 -1.0449  0.6232 -1.5083
14740TIP3    H265636   0.385   6.178   3.893  0.4613  0.4767 -1.2678
14741TIP3   OH265637   0.835   5.849   3.796 -0.2866  0.2437  0.3889
14741TIP3    H165638   0.785   5.857   3.877  1.3244  0.9528  1.3506
14741TIP3    H265639   0.831   5.756   3.774 -1.5060  0.1927  0.7696
14742TIP3   OH265640   3.009   5.977   4.995  0.1197 -0.4182 -0.0253
14742TIP3    H165641   3.033   6.060   4.954  0.7861 -1.3299 -1.5587
14742TIP3    H265642   3.086   5.951   5.045  0.1679 -0.4585 -0.1209
14743TIP3   OH265643   6.683   5.200  15.829  0.0521  0.2612 -0.6284
14743TIP3    H165644   6.749   5.231  15.767  0.6590 -0.3828 -0.3111
14743TIP3    H265645   6.663   5.111  15.801  1.1621 -0.4570  0.7448
14744TIP3   OH265646   1.775   6.660  12.146  0.3210 -0.4947  0.2547
14744TIP3    H165647   1.689   6.697  12.165 -0.3208 -0.4717 -2.3378
14744TIP3    H265648   1.834   6.706  12.205 -0.6630  3.5468 -1.5433
14745TIP3   OH265649   4.485   5.717  13.401 -0.1327  0.2895  0.0059
14745TIP3    H165650   4.505   5.800  13.444  0.7551  0.3212 -0.4387
14745TIP3    H265651   4.430   5.740  13.327  0.7644  0.5891 -0.5839
14746TIP3   OH265652   1.271   5.143  14.150 -0.0723  0.0379 -0.4850
14746TIP3    H165653   1.299   5.158  14.240 -1.1503 -0.7591 -0.0059
14746TIP3    H265654   1.267   5.231  14.112  0.6148  0.3639  0.1541
14747TIP3   OH265655   3.858   1.605  15.885  0.0066  0.2104 -0.0255
14747TIP3    H165656   3.920   1.678  15.884 -0.5837  0.7356  0.2442
14747TIP3    H265657   3.873   1.561  15.968 -0.2344  0.5668  0.2087
14748TIP3   OH265658   2.080   6.121   4.526  0.4467  0.2060 -0.2173
14748TIP3    H165659   2.017   6.049   4.525  0.7435 -0.0530 -0.1558
14748TIP3    H265660   2.084   6.148   4.617 -0.3186  0.8751 -0.3743
14749TIP3   OH265661   3.285   4.409  15.772 -0.4020 -0.3766 -0.3241
14749TIP3    H165662   3.336   4.437  15.848  0.3979 -2.2558 -0.1058
14749TIP3    H265663   3.349   4.402  15.701 -1.1307  1.2868 -1.2081
14750TIP3   OH265664   2.086   0.185   4.953  0.1464 -0.3099  0.1001
14750TIP3    H165665   2.098   0.123   5.025  0.5560  0.1552  0.4447
14750TIP3    H265666   2.053   0.264   4.996  0.2256 -0.0865 -0.2486
14751TIP3   OH265667   5.795   5.238   6.363  0.3555 -0.3211  0.0860
14751TIP3    H165668   5.769   5.179   6.433  1.1176  0.6305  1.2065
14751TIP3    H265669   5.719   5.297   6.353  0.3183 -0.3427  0.2386
14752TIP3   OH265670   6.211   0.418  15.694  0.8741 -0.2759 -0.3532
14752TIP3    H165671   6.231   0.333  15.733  2.3713  0.0033 -0.4790
14752TIP3    H265672   6.126   0.404  15.650  0.4889 -1.3373  0.6806
14753TIP3   OH265673   0.678   0.187  13.311  0.3041  0.1107 -0.0887
14753TIP3    H165674   0.717   0.240  13.241  0.3335 -1.3029 -1.1947
14753TIP3    H265675   0.604   0.143  13.269  1.7337 -2.6526  0.0316
14754TIP3   OH265676   4.363   5.910  14.753  0.4941  0.2527  0.1625
14754TIP3    H165677   4.413   5.832  14.776 -3.2853 -2.1498  1.2345
14754TIP3    H265678   4.379   5.971  14.824  0.8595 -0.9730  1.1657
14755TIP3   OH265679   5.204   1.418   3.124  0.7160 -0.1462  0.0250
14755TIP3    H165680   5.173   1.403   3.035  2.1135  2.2289 -0.9316
14755TIP3    H265681   5.291   1.377   3.127  0.2085 -1.2407  0.7204
14756TIP3   OH265682   0.595   2.892   1.023  0.2848 -0.0277 -0.4088
14756TIP3    H165683   0.598   2.803   1.058 -0.0189  0.3328  0.5752
14756TIP3    H265684   0.510   2.897   0.977 -0.1345  0.0455  0.3641
14757TIP3   OH265685   4.024   5.285   1.996  0.8541  0.1075 -0.2984
14757TIP3    H165686   3.957   5.352   1.989  1.4810  0.9344  1.0922
14757TIP3    H265687   4.022   5.258   2.088  0.8190 -1.5906 -0.7558
14758TIP3   OH265688   0.479   1.526  13.351  0.2589  0.1644 -0.3084
14758TIP3    H165689   0.497   1.614  13.385  1.7774 -0.1807 -0.1412
14758TIP3    H265690   0.534   1.519  13.273  0.4404 -0.7566 -0.1099
14759TIP3   OH265691   1.481   6.248   3.198 -0.5972  0.6112 -0.6243
14759TIP3    H165692   1.431   6.175   3.162 -0.2358  0.4857 -0.8775
14759TIP3    H265693   1.539   6.208   3.262  0.3185  0.5206 -1.4785
14760TIP3   OH265694   3.802   0.181   0.956  0.0813  0.0617  0.1906
14760TIP3    H165695   3.740   0.113   0.930 -0.2619  0.1945  0.6377
14760TIP3    H265696   3.775   0.259   0.908  0.3752 -0.0733 -0.1982
14761TIP3   OH265697   0.127   2.605  15.683  0.7132 -0.0253 -0.0453
14761TIP3    H165698   0.138   2.695  15.713  2.3729 -0.3129  0.2855
14761TIP3    H265699   0.199   2.591  15.621  1.8319 -1.7651  1.5259
14762TIP3   OH265700   4.891   1.243  13.179  0.0522  0.2630  0.0218
14762TIP3    H165701   4.796   1.247  13.190 -0.2448  1.4559 -2.4663
14762TIP3    H265702   4.921   1.332  13.196  0.6582  0.0339  0.1732
14763TIP3   OH265703   2.939   0.038  10.888 -0.4915  0.5758  0.2783
14763TIP3    H165704   2.973  -0.036  10.838  0.2928  1.8167 -1.0908
14763TIP3    H265705   2.987   0.035  10.971 -0.8109 -0.6978  0.4452
14764TIP3   OH265706   2.327   3.425  12.106 -0.7669  0.1094  0.4507
14764TIP3    H165707   2.382   3.500  12.083 -0.5456 -0.3183 -0.4780
14764TIP3    H265708   2.381   3.370  12.162 -0.7095  0.3308  0.6124
14765TIP3   OH265709   6.748   6.580  11.009  0.1811 -0.1032  0.4120
14765TIP3    H165710   6.688   6.508  10.989 -0.0195  0.0883  0.3173
14765TIP3    H265711   6.723   6.649  10.948 -0.3553  0.4447  1.2228
14766TIP3   OH265712   4.996   4.516  16.584 -0.2121 -0.0116  0.1922
14766TIP3    H165713   4.974   4.553  16.499 -0.5353 -0.3912  0.1070
14766TIP3    H265714   5.091   4.505  16.582 -0.0783  0.9941  0.2951
14767TIP3   OH265715   3.732   0.732  15.882 -0.1911  0.2151  0.3228
14767TIP3    H165716   3.817   0.692  15.867  0.0268  0.4232  0.9361
14767TIP3    H265717   3.669   0.672  15.842  0.2794  0.3707 -0.6774
14768TIP3   OH265718   4.414   3.327  13.827 -0.3683  0.3426  0.0342
14768TIP3    H165719   4.474   3.264  13.867 -0.0825  0.5077 -0.1279
14768TIP3    H265720   4.328   3.289  13.838 -0.2855  0.3594  0.7606
14769TIP3   OH265721   0.302   3.965   2.185 -0.5264 -0.0112  0.6158
14769TIP3    H165722   0.285   4.017   2.263  1.6060 -0.9689  1.7984
14769TIP3    H265723   0.397   3.967   2.175 -0.6328 -1.1957 -1.0809
14770TIP3   OH265724   1.439   0.333  11.676  0.2930 -0.3952 -0.8756
14770TIP3    H165725   1.460   0.404  11.615  1.3299  0.6187  0.6114
14770TIP3    H265726   1.522   0.312  11.718 -0.7865  0.7579  2.0597
14771TIP3   OH265727   0.441   1.615   3.074 -0.0577  0.7081  0.0748
14771TIP3    H165728   0.491   1.594   3.153  0.4989 -0.3492 -0.5171
14771TIP3    H265729   0.369   1.670   3.104  0.6267  1.0350  1.1829
14772TIP3   OH265730   5.373   6.346   0.448 -0.0824  0.2075 -0.2877
14772TIP3    H165731   5.362   6.422   0.390  1.4915  0.1209 -0.7567
14772TIP3    H265732   5.386   6.383   0.535 -1.1376  0.3855 -0.1888
14773TIP3   OH265733   5.277   2.007   0.040 -0.5808  0.1822 -0.0668
14773TIP3    H165734   5.325   2.014  -0.043  0.9004  2.5373  0.8860
14773TIP3    H265735   5.208   1.944   0.022  0.6889 -0.6418 -2.5985
14774TIP3   OH265736   0.559   2.490  12.548  0.0722 -0.0534  0.5147
14774TIP3    H165737   0.600   2.468  12.632  0.0342 -0.0383  0.5373
14774TIP3    H265738   0.478   2.535  12.572  1.1486  2.0197  0.4845
14775TIP3   OH265739   6.129   2.311  15.658  0.0499 -0.1889  0.1860
14775TIP3    H165740   6.199   2.338  15.717 -0.4453  0.1979  0.5947
14775TIP3    H265741   6.125   2.216  15.668  2.5039 -0.6715 -2.0316
14776TIP3   OH265742   5.373   6.597  14.061 -0.0954  0.1806  0.1418
14776TIP3    H165743   5.427   6.528  14.102  1.6663  0.7111 -1.1544
14776TIP3    H265744   5.362   6.662  14.130 -0.0795 -0.4733  0.7801
14777TIP3   OH265745   4.806   1.735  10.869  0.3988  0.4403 -0.5822
14777TIP3    H165746   4.728   1.684  10.848  0.5837 -0.1836  0.1689
14777TIP3    H265747   4.879   1.674  10.858  0.7435  0.8806 -0.8139
14778TIP3   OH265748   6.088   4.196  13.136 -0.3560 -0.2987  0.9941
14778TIP3    H165749   6.025   4.158  13.197 -0.8946 -0.9426  0.0461
14778TIP3    H265750   6.036   4.252  13.079 -0.5583 -2.6629 -1.3520
14779TIP3   OH265751   0.570   3.843   0.926  0.0518  0.1682  0.3591
14779TIP3    H165752   0.538   3.931   0.906  0.3411 -0.2030 -2.0357
14779TIP3    H265753   0.492   3.791   0.942 -0.3425  0.1677 -1.4334
14780TIP3   OH265754   2.722   6.747   5.436  0.2297 -0.2554 -0.1736
14780TIP3    H165755   2.638   6.788   5.459  0.4533  0.0236  0.1558
14780TIP3    H265756   2.767   6.737   5.520  0.6921 -0.0351 -0.3936
14781TIP3   OH265757   4.261   2.830   4.812 -0.1854  0.0855  0.0706
14781TIP3    H165758   4.246   2.861   4.722  0.2224  0.6466  0.1933
14781TIP3    H265759   4.287   2.908   4.860 -2.1147  0.1501  1.1089
14782TIP3   OH265760   0.710   1.007   4.666  1.0477  0.1429 -0.6699
14782TIP3    H165761   0.639   1.066   4.689  1.9930  0.4867  1.6337
14782TIP3    H265762   0.667   0.930   4.630 -0.3960  0.8754 -0.5574
14783TIP3   OH265763   3.562   3.529  11.542  0.1460 -0.6787 -0.7372
14783TIP3    H165764   3.528   3.456  11.491 -0.0172 -2.7727  2.1375
14783TIP3    H265765   3.510   3.604  11.513 -2.2283 -2.4133 -1.2688
14784TIP3   OH265766   1.520   1.907   5.148 -0.5858 -0.1338 -0.4260
14784TIP3    H165767   1.438   1.893   5.195 -0.6867  0.6540 -0.3660
14784TIP3    H265768   1.572   1.961   5.207  0.1681 -1.0118 -0.2592
14785TIP3   OH265769   1.446   3.328   3.014 -0.3932  0.0186  0.1946
14785TIP3    H165770   1.515   3.289   3.068  0.5422  1.9170  0.4355
14785TIP3    H265771   1.377   3.350   3.076  0.2495  1.2539  0.4941
14786TIP3   OH265772   1.456   6.145   0.015  0.0640  0.5853 -0.6099
14786TIP3    H165773   1.368   6.170   0.041  0.3745  2.3031 -1.0781
14786TIP3    H265774   1.513   6.191   0.076  0.6507  0.5947 -1.1491
14787TIP3   OH265775   2.147   3.047  12.404  0.1206  0.2587 -0.0825
14787TIP3    H165776   2.187   3.096  12.332 -0.6298  0.3226 -0.4667
14787TIP3    H265777   2.211   3.053  12.476  0.5371  0.8343 -0.4908
14788TIP3   OH265778   6.500   4.928   2.010 -0.3243 -0.2183 -0.1399
14788TIP3    H165779   6.416   4.960   1.977 -0.6037 -0.5837  0.2057
14788TIP3    H265780   6.543   4.889   1.935 -0.4378  0.0248 -0.3313
14789TIP3   OH265781   0.680   2.408  14.894 -0.3495  0.3991  0.4507
14789TIP3    H165782   0.710   2.360  14.817  1.9244  0.5676  1.1397
14789TIP3    H265783   0.599   2.364  14.920 -1.7397  0.9413 -2.5231
14790TIP3   OH265784   6.141   0.410   6.431  0.2832 -0.2260  0.0832
14790TIP3    H165785   6.161   0.501   6.453 -1.6932  0.4380 -0.5929
14790TIP3    H265786   6.199   0.391   6.357  0.8396  0.4142  0.3373
14791TIP3   OH265787   0.056   3.813  13.596  0.3449  0.5271  0.1322
14791TIP3    H165788   0.107   3.783  13.671 -0.3784  1.7418  1.1531
14791TIP3    H265789   0.007   3.735  13.568  1.0832 -0.0897  0.5278
14792TIP3   OH265790   4.943   5.662   4.306 -0.1412 -0.2561  0.4587
14792TIP3    H165791   4.868   5.718   4.329 -1.1017 -0.3977 -2.0038
14792TIP3    H265792   4.991   5.712   4.241  2.6380  0.2856  2.7586
14793TIP3   OH265793   2.634   6.065  13.274  0.1066 -0.2253 -0.1069
14793TIP3    H165794   2.551   6.111  13.289  0.6977  0.8758 -0.1250
14793TIP3    H265795   2.644   6.009  13.351 -0.0228  0.6015  0.5229
14794TIP3   OH265796   4.331   0.468   0.038  0.3354  0.2982 -0.7069
14794TIP3    H165797   4.394   0.467  -0.034  0.3443 -0.9523 -0.6959
14794TIP3    H265798   4.251   0.429   0.001  0.5023 -0.8284  0.0860
14795TIP3   OH265799   0.512   1.027   1.772 -0.1639  0.1482  0.2385
14795TIP3    H165800   0.465   1.013   1.691 -0.4223 -0.9513  0.5712
14795TIP3    H265801   0.444   1.046   1.837  0.0301  0.8564  0.2520
14796TIP3   OH265802   4.547   6.383  14.907  0.2125 -0.0044  0.3596
14796TIP3    H165803   4.580   6.473  14.908 -2.5249  1.1132  0.2822
14796TIP3    H265804   4.576   6.348  14.823  1.6953  0.6035  0.5814
14797TIP3   OH265805   1.578   5.236  12.441  0.2763  0.3437  0.4318
14797TIP3    H165806   1.626   5.166  12.397 -0.9404 -0.9788  1.1282
14797TIP3    H265807   1.590   5.312  12.385 -1.3035 -1.2561 -2.3183
14798TIP3   OH265808   4.800   6.290   2.825  0.6404  0.1217 -0.0224
14798TIP3    H165809   4.723   6.284   2.880  0.3531  0.1735 -0.4153
14798TIP3    H265810   4.814   6.202   2.792 -0.5481  0.5019 -1.6868
14799TIP3   OH265811   2.227   4.119   0.738  0.1879  0.2681 -0.5238
14799TIP3    H165812   2.156   4.184   0.730 -0.5006 -0.6170 -2.0381
14799TIP3    H265813   2.202   4.049   0.678  1.6089 -0.7764  0.0590
14800TIP3   OH265814   1.998   5.372  13.031 -0.4579 -0.4339  0.0109
14800TIP3    H165815   1.916   5.346  12.988  0.6543  0.3514 -2.8205
14800TIP3    H265816   2.009   5.464  13.007  0.4714 -0.0744  1.7079
14801TIP3   OH265817   6.638   0.396   0.610  0.4924 -0.3671  0.0096
14801TIP3    H165818   6.688   0.398   0.692  0.5602  0.0791 -0.0422
14801TIP3    H265819   6.615   0.488   0.594  1.2834 -0.3306 -0.9672
14802TIP3   OH265820   2.148   6.222   5.135 -0.0352 -0.2704 -0.1295
14802TIP3    H165821   2.121   6.305   5.097 -2.4698  0.0613  2.1004
14802TIP3    H265822   2.188   6.175   5.062  1.5750  2.8390 -1.4416
14803TIP3   OH265823   5.111   1.864  11.183 -0.2429  0.0211 -0.6309
14803TIP3    H165824   5.196   1.906  11.172  0.5432 -1.5516 -0.7557
14803TIP3    H265825   5.102   1.854  11.278  0.3045 -0.9458 -0.6681
14804TIP3   OH265826   4.055   0.684  14.258  0.8909  0.3419 -0.2552
14804TIP3    H165827   4.147   0.664  14.276  0.5884 -0.6682  0.2450
14804TIP3    H265828   4.007   0.644  14.330 -0.0980 -0.7734 -1.4818
14805TIP3   OH265829   2.934   3.293   6.338  0.1249  0.5519  0.1916
14805TIP3    H165830   2.911   3.236   6.265  0.0243  0.1330  0.5453
14805TIP3    H265831   2.911   3.381   6.308 -1.8407  0.1925  0.4549
14806TIP3   OH265832   0.849   5.864  16.611  0.5054 -0.1030  0.5536
14806TIP3    H165833   0.929   5.828  16.648  0.2015  1.0614  2.5082
14806TIP3    H265834   0.854   5.958  16.629 -1.2456  0.0112  0.6580
14807TIP3   OH265835   1.546   6.695  12.993 -0.4091  0.2190  0.7879
14807TIP3    H165836   1.617   6.746  12.954 -0.3534 -0.9022 -0.6332
14807TIP3    H265837   1.468   6.749  12.982 -0.1498  0.5062  0.3548
14808TIP3   OH265838   3.465   2.423  13.907 -0.0613 -0.3770  0.2995
14808TIP3    H165839   3.505   2.446  13.991  1.3151 -2.3902  0.2541
14808TIP3    H265840   3.422   2.340  13.923 -0.8372 -0.1830 -0.7006
14809TIP3   OH265841   4.109   5.321   1.246  0.4509 -0.4429  0.2139
14809TIP3    H165842   4.087   5.228   1.246 -0.4178 -0.2734  1.7935
14809TIP3    H265843   4.035   5.363   1.290 -0.0473  1.2460 -2.0829
14810TIP3   OH265844   3.125   4.759  13.761 -0.3908  0.4114  0.1086
14810TIP3    H165845   3.072   4.810  13.699 -0.3776 -2.1066 -2.1166
14810TIP3    H265846   3.070   4.684  13.783  0.5610  0.0399  1.3360
14811TIP3   OH265847   0.964   5.671  11.416 -0.9696 -0.0632 -0.2014
14811TIP3    H165848   1.028   5.617  11.369  0.6631 -0.2360  2.0775
14811TIP3    H265849   0.893   5.610  11.437  1.2200 -1.8165  3.0932
14812TIP3   OH265850   4.817   6.333  17.170 -0.0512  0.0637  0.0789
14812TIP3    H165851   4.871   6.269  17.216  3.7842  0.7072 -3.0153
14812TIP3    H265852   4.781   6.285  17.096  1.3971  0.9601 -1.2620
14813TIP3   OH265853   3.588   6.511  12.643  0.2095  0.4213  0.3519
14813TIP3    H165854   3.507   6.549  12.678 -1.2938  0.4141 -2.7621
14813TIP3    H265855   3.558   6.444  12.581  2.6998 -1.2612  0.8069
14814TIP3   OH265856   5.340   6.071   0.838 -0.2352 -0.2013  0.4000
14814TIP3    H165857   5.344   5.976   0.829  0.0860 -0.0194 -2.1929
14814TIP3    H265858   5.272   6.086   0.904 -0.3349 -2.2255  0.8081
14815TIP3   OH265859   0.842   2.780   4.878 -0.1588  0.1158 -0.0423
14815TIP3    H165860   0.767   2.816   4.927  0.5597  0.8428  0.5641
14815TIP3    H265861   0.876   2.855   4.829  0.2463 -0.1758 -0.2069
14816TIP3   OH265862   5.659   4.953   5.591  0.3574  0.0948  0.4533
14816TIP3    H165863   5.604   4.964   5.668 -1.3719 -0.2791 -0.6657
14816TIP3    H265864   5.631   4.868   5.554  1.5064  0.0248 -0.2936
14817TIP3   OH265865   4.616   6.773   5.776 -0.0296 -0.0557  0.3631
14817TIP3    H165866   4.559   6.824   5.834 -2.5152 -0.5789 -1.4605
14817TIP3    H265867   4.672   6.838   5.734 -1.1645  0.8398  0.1973
14818TIP3   OH265868   2.840   2.428  16.765 -0.3041  0.1157 -0.2610
14818TIP3    H165869   2.748   2.423  16.791 -0.3689  1.0902 -0.2571
14818TIP3    H265870   2.838   2.452  16.672 -0.0568 -0.7074 -0.4838
14819TIP3   OH265871   0.529   3.226   0.296  0.0923  0.1979  0.1144
14819TIP3    H165872   0.461   3.243   0.361 -1.1874  1.3200 -1.4492
14819TIP3    H265873   0.543   3.131   0.301 -1.2146  0.0178  0.8404
14820TIP3   OH265874   2.451   4.447  15.214 -0.1399 -0.0877  0.2929
14820TIP3    H165875   2.410   4.363  15.192  0.8295 -0.2653 -0.9852
14820TIP3    H265876   2.517   4.425  15.280  0.0094 -0.3082  0.0720
14821TIP3   OH265877   6.667   2.064   2.678 -0.3403 -0.3809  0.2824
14821TIP3    H165878   6.760   2.052   2.696 -0.5781 -0.9594  1.1942
14821TIP3    H265879   6.665   2.118   2.599  0.7681  0.6784  0.9408
14822TIP3   OH265880   5.526   5.091  15.770 -0.0927 -0.1085 -0.0694
14822TIP3    H165881   5.536   5.145  15.849  1.4862  0.3523 -0.5422
14822TIP3    H265882   5.608   5.041  15.765 -0.6290 -0.9400 -0.8309
14823TIP3   OH265883   5.050   2.701   0.200 -0.1230 -0.4851  0.0540
14823TIP3    H165884   5.074   2.691   0.292  0.5552  1.7316  0.1860
14823TIP3    H265885   4.965   2.745   0.201 -1.2549 -2.5464 -0.4281
14824TIP3   OH265886   1.263   0.945  13.860  0.0853 -0.0621 -0.0898
14824TIP3    H165887   1.209   0.976  13.932 -0.1993  0.7835 -0.6462
14824TIP3    H265888   1.330   0.891  13.901  0.1726  0.7356  0.8536
14825TIP3   OH265889   4.374   1.259   1.354 -0.0281  0.0472 -0.0105
14825TIP3    H165890   4.398   1.174   1.317 -0.4403 -0.7774  1.5411
14825TIP3    H265891   4.441   1.319   1.321 -0.3385 -0.6334 -1.9967
14826TIP3   OH265892   2.148   1.479  15.005 -0.0255  0.2876  0.7537
14826TIP3    H165893   2.076   1.535  15.037 -0.4185  0.1406  0.1520
14826TIP3    H265894   2.227   1.527  15.027 -0.3417  0.8347  0.7172
14827TIP3   OH265895   1.676   2.044   5.335  0.3671 -0.3187  0.0919
14827TIP3    H165896   1.734   2.099   5.284 -0.0300 -1.0722 -1.2042
14827TIP3    H265897   1.668   2.090   5.419  0.1039  1.5630 -0.9012
14828TIP3   OH265898   4.736   3.209  17.166  0.4611  0.1398 -0.0383
14828TIP3    H165899   4.820   3.218  17.210 -1.0207  0.9827  2.8720
14828TIP3    H265900   4.732   3.284  17.107  2.3950 -0.8712 -1.5794
14829TIP3   OH265901   3.655   4.558   2.533  0.1575  0.0535  0.5007
14829TIP3    H165902   3.696   4.525   2.453  1.4887  0.1433  1.1184
14829TIP3    H265903   3.728   4.594   2.584 -0.8589  1.3019  1.1293
14830TIP3   OH265904   2.872   0.387   5.474  0.6906  0.2701  0.1629
14830TIP3    H165905   2.820   0.352   5.545  1.0671  2.2525  1.4996
14830TIP3    H265906   2.873   0.482   5.489  0.3977  0.8256 -2.7583
14831TIP3   OH265907   0.238   6.366   1.325  0.0009  0.3727  0.7211
14831TIP3    H165908   0.265   6.308   1.395  1.3483  0.3361  0.2016
14831TIP3    H265909   0.320   6.404   1.292 -0.5925  0.4415 -0.7731
14832TIP3   OH265910   0.504   0.797  16.130 -0.4438  0.1078  0.2453
14832TIP3    H165911   0.460   0.712  16.136 -0.1894 -0.1187 -0.8449
14832TIP3    H265912   0.527   0.805  16.037 -1.3573  1.8196  0.1200
14833TIP3   OH265913   1.835   2.755  14.790 -0.4275  0.3827  0.1992
14833TIP3    H165914   1.922   2.793  14.804 -0.3174  0.2483 -0.1187
14833TIP3    H265915   1.793   2.760  14.876 -0.6640  1.8554  0.0202
14834TIP3   OH265916   1.315   1.557   3.287 -0.6403  0.1780  0.3606
14834TIP3    H165917   1.237   1.519   3.328  0.2567 -0.7257  1.2765
14834TIP3    H265918   1.376   1.483   3.278  0.2771  0.9528  0.0445
14835TIP3   OH265919   1.677   4.840   5.239 -0.4919  0.2239 -0.1868
14835TIP3    H165920   1.717   4.923   5.263 -0.4996  0.0416  0.4578
14835TIP3    H265921   1.746   4.775   5.252 -0.6025  0.0771 -0.3236
14836TIP3   OH265922   1.561   0.704   4.936  0.3207 -0.4180  0.6677
14836TIP3    H165923   1.479   0.686   4.889 -0.7430  0.7922  1.9683
14836TIP3    H265924   1.591   0.787   4.898  1.0855 -0.9631  0.0494
14837TIP3   OH265925   4.201   4.022  14.333  0.0126  0.0257 -0.3544
14837TIP3    H165926   4.237   4.024  14.422 -0.9153  1.1843  0.0359
14837TIP3    H265927   4.145   4.100  14.329 -0.1810 -0.1688 -1.8688
14838TIP3   OH265928   3.194   4.886   3.305 -0.2029  0.0110 -0.7702
14838TIP3    H165929   3.180   4.890   3.210  0.9281  1.4071 -0.9313
14838TIP3    H265930   3.157   4.802   3.332  1.2542 -1.3746 -2.7720
14839TIP3   OH265931   3.451   0.822   5.286 -0.2919  0.1615  0.1304
14839TIP3    H165932   3.438   0.740   5.239 -0.1823  1.0498 -1.5515
14839TIP3    H265933   3.532   0.858   5.250  0.4521  0.3425  1.8941
14840TIP3   OH265934   5.895   2.481   3.157  0.4406 -0.5351  0.1443
14840TIP3    H165935   5.988   2.460   3.163  0.8245  0.5583 -1.3998
14840TIP3    H265936   5.869   2.452   3.069 -0.0035  1.5083 -0.4517
14841TIP3   OH265937   1.470   2.204   3.404  0.3977 -0.2519 -0.6275
14841TIP3    H165938   1.444   2.190   3.495  3.2867  0.3109  0.3937
14841TIP3    H265939   1.431   2.288   3.381  0.3579  0.0226  0.3987
14842TIP3   OH265940   3.674   2.157  14.269  0.0822 -0.5948  0.1373
14842TIP3    H165941   3.764   2.153  14.238  0.4543  0.8861  0.9073
14842TIP3    H265942   3.662   2.248  14.294 -1.9973 -0.5078 -0.9719
14843TIP3   OH265943   3.312   1.821  12.110 -0.2223 -0.1385  0.2357
14843TIP3    H165944   3.231   1.869  12.096  0.9121  1.7677 -0.0352
14843TIP3    H265945   3.331   1.780  12.025 -0.3158  0.3533 -0.0253
14844TIP3   OH265946   5.060   3.146  12.169 -0.6163  0.3694 -0.1032
14844TIP3    H165947   5.039   3.235  12.139  1.4271  0.0817 -2.8864
14844TIP3    H265948   5.008   3.089  12.113 -0.9591 -0.2143  0.7952
14845TIP3   OH265949   4.506   5.258   1.527 -0.6000  0.1239  0.3131
14845TIP3    H165950   4.471   5.170   1.511  0.9456 -0.4042 -0.3577
14845TIP3    H265951   4.441   5.317   1.488 -1.1589 -0.7701 -0.1537
14846TIP3   OH265952   4.791   5.047  13.771 -0.2389  0.3409  0.3858
14846TIP3    H165953   4.836   4.976  13.724 -0.7233  1.2865 -1.5836
14846TIP3    H265954   4.720   5.002  13.818 -0.6674 -0.4937 -0.9874
14847TIP3   OH265955   1.611   5.414  13.672 -0.0109  0.1123 -0.2356
14847TIP3    H165956   1.588   5.486  13.615 -1.3231  0.9881  1.3083
14847TIP3    H265957   1.705   5.403  13.661 -0.2547 -0.0346 -2.7893
14848TIP3   OH265958   2.218   3.098   1.411 -0.1559 -0.0717  0.3784
14848TIP3    H165959   2.171   3.015   1.416 -1.1216  0.3225 -1.3433
14848TIP3    H265960   2.299   3.083   1.459 -0.2578 -2.0405 -0.0013
14849TIP3   OH265961   5.178   0.693  14.916  0.2867 -0.2065 -0.0190
14849TIP3    H165962   5.123   0.765  14.947  0.9268  0.2053  0.2022
14849TIP3    H265963   5.225   0.665  14.994 -0.5494 -1.4157  0.0647
14850TIP3   OH265964   5.272   0.907  16.092  0.0079  0.7382  0.8204
14850TIP3    H165965   5.205   0.972  16.068 -0.9922 -1.3230 -2.4937
14850TIP3    H265966   5.222   0.834  16.129  0.6874  0.1673  0.6212
14851TIP3   OH265967   6.167   2.067  16.451 -0.0150  0.0391 -0.7067
14851TIP3    H165968   6.126   2.102  16.372  1.6696  1.5596 -0.9577
14851TIP3    H265969   6.136   2.125  16.521 -0.4219 -0.4739 -0.4539
14852TIP3   OH265970   1.448   1.538  11.614  0.3557  0.0015  0.4933
14852TIP3    H165971   1.479   1.626  11.594 -0.6288  0.5490  1.2520
14852TIP3    H265972   1.495   1.514  11.693 -1.4522  1.0695  1.9868
14853TIP3   OH265973   2.719   3.571  11.428 -0.4875 -0.3907 -0.0402
14853TIP3    H165974   2.732   3.541  11.338  0.8207  0.8298 -0.2911
14853TIP3    H265975   2.625   3.582  11.436 -0.7036 -1.3900 -0.9645
14854TIP3   OH265976   4.924   0.293   1.312 -0.4012 -0.8452 -0.1239
14854TIP3    H165977   4.844   0.250   1.344 -0.3352 -2.7139 -2.2610
14854TIP3    H265978   4.893   0.356   1.247 -0.2646  0.2672  0.8501
14855TIP3   OH265979   4.961   5.213  11.272  0.2183  0.5224  0.2954
14855TIP3    H165980   5.036   5.228  11.330  0.3165  1.2106  0.0018
14855TIP3    H265981   4.982   5.262  11.193 -0.3909  0.4434  0.0798
14856TIP3   OH265982   2.627   1.349   0.523  0.3347  0.0309 -0.5855
14856TIP3    H165983   2.684   1.308   0.588 -0.5734  0.2640  0.3675
14856TIP3    H265984   2.549   1.294   0.520  0.8235 -0.6404 -2.3418
14857TIP3   OH265985   4.276   0.044  11.797 -0.6513 -0.2331 -0.4447
14857TIP3    H165986   4.198   0.058  11.851 -1.3615  0.6335 -1.6411
14857TIP3    H265987   4.317   0.130  11.791  0.0822 -0.5654 -0.3111
14858TIP3   OH265988   4.693   1.968   3.125  0.2364 -0.4181  0.2576
14858TIP3    H165989   4.719   1.909   3.055 -1.2813  1.6593 -2.2936
14858TIP3    H265990   4.628   1.919   3.175 -0.3200 -1.2396 -1.2111
14859TIP3   OH265991   2.001   0.956  16.316 -0.4475  0.4741 -0.0793
14859TIP3    H165992   1.923   0.908  16.344  0.5217 -2.2925 -1.7227
14859TIP3    H265993   1.997   0.954  16.220  0.6382  2.0872 -0.1988
14860TIP3   OH265994   4.856   2.791   1.947 -0.6493 -0.6730  0.4772
14860TIP3    H165995   4.870   2.784   2.042  1.5223  2.7867  0.5814
14860TIP3    H265996   4.795   2.864   1.937 -0.5870 -0.7820 -0.8047
14861TIP3   OH265997   3.268   6.498   3.728  0.3771 -0.7239  0.1280
14861TIP3    H165998   3.363   6.510   3.734  0.1582  1.2874  0.2698
14861TIP3    H265999   3.239   6.489   3.819  0.1789  1.3532  0.3163
14862TIP3   OH266000   1.680   1.536   5.297  0.1335 -0.3201 -0.1914
14862TIP3    H166001   1.650   1.486   5.221  1.7230 -0.7483 -0.5624
14862TIP3    H266002   1.663   1.479   5.372 -3.8250  1.0546  0.2308
14863TIP3   OH266003   2.306   4.302   3.523 -0.5751 -0.3638 -0.2183
14863TIP3    H166004   2.253   4.227   3.553 -1.9560  0.5762 -0.2110
14863TIP3    H266005   2.335   4.344   3.604 -2.0052  0.5977 -0.1809
14864TIP3   OH266006   2.655   5.675   4.921 -0.0984 -0.3100 -0.4430
14864TIP3    H166007   2.640   5.739   4.852  0.0524  0.9095  0.6235
14864TIP3    H266008   2.749   5.679   4.938 -0.2788  0.1190  0.4961
14865TIP3   OH266009   5.866   2.699   1.128 -0.4286  0.4898  0.0479
14865TIP3    H166010   5.957   2.675   1.141 -0.0622  0.5835 -1.9559
14865TIP3    H266011   5.823   2.680   1.211  1.1624 -0.7479  0.6214
14866TIP3   OH266012   1.522   4.390   5.815 -0.0998  0.5241 -0.4905
14866TIP3    H166013   1.518   4.395   5.720  3.1130  0.6803 -0.7229
14866TIP3    H266014   1.616   4.393   5.836 -0.6755  0.4040  2.6809
14867TIP3   OH266015   2.790   2.372   0.459 -0.6144  0.5977  0.2614
14867TIP3    H166016   2.753   2.451   0.419 -2.5977 -0.6347 -0.4965
14867TIP3    H266017   2.715   2.328   0.499 -0.0436 -1.9729 -1.2444
14868TIP3   OH266018   6.375   1.438   4.813  0.9347 -0.3550 -0.1924
14868TIP3    H166019   6.376   1.348   4.845  1.3210 -0.3342 -0.1383
14868TIP3    H266020   6.420   1.488   4.880  1.1641 -0.2046 -0.4536
14869TIP3   OH266021   4.582   4.313   0.307  0.3799  0.1962 -0.3683
14869TIP3    H166022   4.492   4.292   0.333  0.9191 -0.6673  0.8876
14869TIP3    H266023   4.582   4.304   0.211 -0.5316 -1.1785 -0.2709
14870TIP3   OH266024   5.981   1.403   5.127  0.1953  0.4800 -0.4842
14870TIP3    H166025   6.076   1.407   5.141  0.2773 -0.2248 -0.8025
14870TIP3    H266026   5.945   1.470   5.185  0.7517 -0.4685  0.9909
14871TIP3   OH266027   3.267   6.358  11.911 -0.1622  0.1804 -0.9354
14871TIP3    H166028   3.277   6.430  11.850 -0.0232  0.4397 -0.6112
14871TIP3    H266029   3.256   6.280  11.856 -0.7852  0.5104 -1.2843
14872TIP3   OH266030   4.159   5.398  12.010  0.0243 -0.3799  0.1173
14872TIP3    H166031   4.162   5.394  12.106 -0.9091 -2.4226  0.1096
14872TIP3    H266032   4.066   5.389  11.988  0.2609 -0.2647 -0.9969
14873TIP3   OH266033   3.284   6.148   2.093 -0.6308  0.2246  0.6615
14873TIP3    H166034   3.302   6.187   2.179  0.6183  2.1248 -0.4122
14873TIP3    H266035   3.369   6.141   2.051 -1.3028  0.0903 -0.7379
14874TIP3   OH266036   0.358   1.902   4.880 -0.0166  0.6852 -0.3687
14874TIP3    H166037   0.438   1.950   4.900 -0.0952  0.3720  0.7194
14874TIP3    H266038   0.337   1.929   4.790  2.4696 -0.8831 -1.5316
14875TIP3   OH266039   0.045   4.924  15.141 -0.5915  0.2290  0.2724
14875TIP3    H166040   0.105   4.851  15.126  0.4964  1.2629 -0.6268
14875TIP3    H266041   0.051   4.941  15.235  0.6159  0.3598  0.1925
14876TIP3   OH266042   4.414   6.361   3.107  0.1896 -0.0380  0.0236
14876TIP3    H166043   4.383   6.279   3.146 -0.2738 -0.2601 -0.7803
14876TIP3    H266044   4.468   6.401   3.175  0.5509 -1.0809  0.3768
14877TIP3   OH266045   5.380   0.519  12.202  0.2969  0.6335 -0.4602
14877TIP3    H166046   5.424   0.522  12.287  0.8142 -0.8021 -0.6532
14877TIP3    H266047   5.355   0.610  12.184  2.4070  1.3593  0.0593
14878TIP3   OH266048   5.538   6.154   1.632 -0.1333  0.9273 -0.0129
14878TIP3    H166049   5.603   6.187   1.571  0.3589 -1.0093 -0.5944
14878TIP3    H266050   5.554   6.204   1.713  1.4501  1.1459 -0.4231
14879TIP3   OH266051   0.934   0.310   2.412  0.0669  0.3850  0.3225
14879TIP3    H166052   0.839   0.307   2.420  0.1694  0.3782  1.9663
14879TIP3    H266053   0.950   0.329   2.320 -1.5769  2.4416  0.3718
14880TIP3   OH266054   6.784   4.239  11.859 -0.1098 -0.0393 -0.4414
14880TIP3    H166055   6.761   4.185  11.783 -0.3106  1.3606 -1.4188
14880TIP3    H266056   6.823   4.318  11.821  2.4108 -0.4718  1.0105
14881TIP3   OH266057   2.174   5.450   0.484 -0.1558  0.1689 -0.3733
14881TIP3    H166058   2.178   5.355   0.485 -1.1560  0.0826 -1.7374
14881TIP3    H266059   2.133   5.472   0.400  2.9566  1.9121 -1.6347
14882TIP3   OH266060   2.238   3.978  16.984  0.2056 -0.1293 -0.0096
14882TIP3    H166061   2.228   4.071  17.001 -1.5190 -0.3830  0.6676
14882TIP3    H266062   2.329   3.958  17.005  0.9571  1.6075 -1.3835
14883TIP3   OH266063   6.599   5.631   6.732  0.2700 -0.1119  0.0664
14883TIP3    H166064   6.680   5.580   6.726  1.2608  1.5274 -1.8214
14883TIP3    H266065   6.572   5.643   6.641 -1.2836  0.6303  0.6004
14884TIP3   OH266066   5.592   0.454   4.053  0.0588  0.1854 -0.3655
14884TIP3    H166067   5.648   0.531   4.046 -1.4949  1.3930  0.0305
14884TIP3    H266068   5.552   0.445   3.966  0.5786 -0.4545 -0.5427
14885TIP3   OH266069   0.920   4.728  16.184 -0.0007 -0.2320 -0.1429
14885TIP3    H166070   0.960   4.641  16.180  0.3186 -0.2028  1.6453
14885TIP3    H266071   0.954   4.774  16.108  2.5313 -0.5910  0.6834
14886TIP3   OH266072   5.175   6.025  12.048 -0.0786 -0.2721  0.2482
14886TIP3    H166073   5.260   6.001  12.012  0.5321  0.4981  1.1391
14886TIP3    H266074   5.134   6.078  11.979 -0.9996 -2.8438 -1.2995
14887TIP3   OH266075   5.665   5.127   0.653 -0.1116 -0.2093 -0.0314
14887TIP3    H166076   5.661   5.060   0.585  1.2510 -0.5624  0.2027
14887TIP3    H266077   5.668   5.078   0.735 -0.6769  0.1839  0.2273
14888TIP3   OH266078   4.175   4.898  13.215 -0.1867 -0.0806  0.1872
14888TIP3    H166079   4.198   4.974  13.269 -2.4630  0.1562  0.9379
14888TIP3    H266080   4.161   4.933  13.128  0.6682  0.0088  0.0732
14889TIP3   OH266081   0.223   6.676  15.782  0.3178  0.1602  0.2517
14889TIP3    H166082   0.308   6.706  15.814  1.0723  0.2289 -1.7078
14889TIP3    H266083   0.175   6.652  15.862  1.3322  2.2241  1.5749
14890TIP3   OH266084   3.708   6.202  15.484  0.5944 -0.2423 -0.1816
14890TIP3    H166085   3.671   6.152  15.411 -2.6329  0.7893  0.5754
14890TIP3    H266086   3.680   6.155  15.562 -2.4253  2.4181  0.5517
14891TIP3   OH266087   5.041   1.484   4.499  0.2046 -0.6236  0.8300
14891TIP3    H166088   4.971   1.419   4.490  0.8583 -1.3323  0.8343
14891TIP3    H266089   4.995   1.564   4.527 -0.8090 -0.6300 -0.6749
14892TIP3   OH266090   2.066   1.852   6.324  0.0259  0.0577 -0.2547
14892TIP3    H166091   2.118   1.913   6.377  0.1174 -1.4584  1.5094
14892TIP3    H266092   1.995   1.825   6.382 -1.5127  0.4234 -1.8947
14893TIP3   OH266093   5.450   3.327   3.306 -0.3034 -0.6735 -0.3043
14893TIP3    H166094   5.529   3.370   3.339 -0.0136 -2.2244  1.1683
14893TIP3    H266095   5.386   3.398   3.297  0.4074  0.2041  1.1898
14894TIP3   OH266096   1.964   5.240  15.302  0.1955 -0.2565  0.0382
14894TIP3    H166097   2.001   5.327  15.285 -1.3228  0.1235 -1.5027
14894TIP3    H266098   1.978   5.191  15.221 -0.6674 -0.8249  0.2226
14895TIP3   OH266099   6.156   3.890   1.864  0.8370 -0.4786  0.0448
14895TIP3    H166100   6.116   3.888   1.951 -0.3888  0.8385 -0.4507
14895TIP3    H266101   6.099   3.835   1.811  0.5707  0.1496 -0.3208
14896TIP3   OH266102   3.574   0.249   4.907 -0.4568 -0.1763 -0.6608
14896TIP3    H166103   3.634   0.254   4.982  0.4426 -1.0306 -1.2993
14896TIP3    H266104   3.487   0.246   4.947  0.0089 -0.7553  0.3732
14897TIP3   OH266105   1.871   4.077   2.383 -0.5309  0.1094 -0.0040
14897TIP3    H166106   1.854   3.983   2.382  2.1959 -0.4652 -0.0452
14897TIP3    H266107   1.881   4.099   2.476  0.1530  0.0630 -0.0615
14898TIP3   OH266108   1.581   3.574   1.228  0.2625 -0.3182  0.1313
14898TIP3    H166109   1.656   3.516   1.217 -0.0395 -1.0097  1.4733
14898TIP3    H266110   1.506   3.522   1.201 -0.0538 -0.7346  1.6923
14899TIP3   OH266111   1.303   5.453   0.923 -0.3551  0.2750  0.5278
14899TIP3    H166112   1.384   5.492   0.890  0.9371 -0.2396  2.9013
14899TIP3    H266113   1.279   5.388   0.857  1.5460 -0.0333  0.0761
14900TIP3   OH266114   3.409   6.669  13.962 -0.3331  0.6458 -0.0519
14900TIP3    H166115   3.356   6.613  14.019  0.2778 -0.6329 -0.6886
14900TIP3    H266116   3.347   6.706  13.900 -0.5296 -0.7718 -0.7368
14901TIP3   OH266117   4.027   3.362  12.817  0.4914  0.7261 -0.4538
14901TIP3    H166118   3.959   3.304  12.852  1.8820 -0.7916 -0.1441
14901TIP3    H266119   3.994   3.388  12.731 -1.4435  1.8008  0.5406
14902TIP3   OH266120   3.225   4.234  12.432  0.3202 -0.2561 -0.4506
14902TIP3    H166121   3.193   4.158  12.481  0.0775 -0.2193 -0.5518
14902TIP3    H266122   3.260   4.293  12.499 -2.2719  0.9415 -0.0086
14903TIP3   OH266123   3.678   1.301   5.964  0.5502 -0.0781 -0.2373
14903TIP3    H166124   3.682   1.235   6.034 -0.1049  0.0179 -0.0951
14903TIP3    H266125   3.735   1.267   5.895  0.6904 -0.4998  0.0810
14904TIP3   OH266126   4.797   3.717   3.725  0.1030  0.6086 -0.2207
14904TIP3    H166127   4.745   3.796   3.737 -0.8416  0.1304 -1.0322
14904TIP3    H266128   4.807   3.681   3.814 -0.5021  0.9953  0.0116
14905TIP3   OH266129   6.777   5.530   0.043  0.6087  0.6300 -0.2805
14905TIP3    H166130   6.858   5.534  -0.008 -0.2179 -0.9018 -1.7987
14905TIP3    H266131   6.767   5.619   0.078  1.5751  1.5793 -2.2437
14906TIP3   OH266132   6.671   2.599   1.285  0.2738 -0.1077  0.2801
14906TIP3    H166133   6.704   2.628   1.200  2.0454  0.0319  0.9759
14906TIP3    H266134   6.627   2.515   1.267 -0.3075  0.4313 -0.9115
14907TIP3   OH266135   1.536   6.469  11.273  0.1981 -0.2897  0.1494
14907TIP3    H166136   1.619   6.430  11.300 -0.1057 -0.6584  0.5545
14907TIP3    H266137   1.519   6.432  11.187 -0.7179 -2.0618  1.0476
14908TIP3   OH266138   6.548   4.107  15.074  0.3149 -0.1192  0.2473
14908TIP3    H166139   6.483   4.069  15.133 -0.7134  0.1772 -0.6756
14908TIP3    H266140   6.572   4.035  15.016 -0.3825  0.1928 -0.4313
14909TIP3   OH266141   2.898   5.985   0.924  0.1159 -0.1738  0.3968
14909TIP3    H166142   2.934   5.957   0.840  0.3590  0.5538  0.2528
14909TIP3    H266143   2.853   6.067   0.905  0.5627  0.2379  1.0594
14910TIP3   OH266144   6.036   2.300  11.574 -0.0216  0.1450 -0.1610
14910TIP3    H166145   6.064   2.257  11.655 -0.9040 -0.4459 -0.1578
14910TIP3    H266146   5.982   2.234  11.529 -0.7035  0.9631 -0.5579
14911TIP3   OH266147   0.589   0.344   0.873 -0.7819  0.5834  0.1912
14911TIP3    H166148   0.630   0.373   0.955 -2.1458  0.4076  0.9604
14911TIP3    H266149   0.660   0.348   0.808  0.5560 -0.1349  1.5605
14912TIP3   OH266150   2.501   3.210  14.508 -0.0085  0.6600 -0.7274
14912TIP3    H166151   2.596   3.207  14.504  0.2779  1.9236  2.1499
14912TIP3    H266152   2.478   3.297  14.474  0.2970  1.8594  1.8753
14913TIP3   OH266153   3.292   5.543   4.040 -0.3514  0.0147  0.2784
14913TIP3    H166154   3.252   5.487   4.106  1.3798 -2.3351 -0.5352
14913TIP3    H266155   3.352   5.599   4.089  0.7917 -1.5829  0.7786
14914TIP3   OH266156   3.175   3.341   5.782 -0.0383  0.2438 -0.3092
14914TIP3    H166157   3.113   3.270   5.802  0.6196 -0.1319  0.4567
14914TIP3    H266158   3.159   3.361   5.690 -1.5501  0.4087 -0.0454
14915TIP3   OH266159   1.786   3.296   3.402  0.1530 -0.2787 -0.3592
14915TIP3    H166160   1.867   3.326   3.442 -1.6454  0.2698  3.3123
14915TIP3    H266161   1.727   3.371   3.406 -1.6178 -1.6061  0.5035
14916TIP3   OH266162   3.122   1.693   5.410 -0.7542 -0.3709  0.4007
14916TIP3    H166163   3.089   1.635   5.479  0.8495 -1.5044  0.2685
14916TIP3    H266164   3.099   1.781   5.441 -1.7086 -0.9562  1.4604
14917TIP3   OH266165   1.761   1.161   2.034  0.5064  0.2551 -0.2648
14917TIP3    H166166   1.796   1.143   1.947  2.0145 -0.1729  0.3813
14917TIP3    H266167   1.668   1.138   2.029  0.6271  0.0086 -1.6818
14918TIP3   OH266168   4.564   5.986  16.685 -0.5120  0.0210 -0.7699
14918TIP3    H166169   4.574   6.050  16.615 -0.1371 -0.5646 -1.2736
14918TIP3    H266170   4.475   5.998  16.717 -0.4023  0.8709 -0.7679
14919TIP3   OH266171   1.279   0.611  17.176 -0.1329  0.0951  0.1124
14919TIP3    H166172   1.238   0.639  17.258 -1.1715 -0.5787 -0.1548
14919TIP3    H266173   1.211   0.559  17.132  0.8523 -0.6183 -0.5928
14920TIP3   OH266174   5.627   3.762  15.693 -0.6533  0.4587 -0.0567
14920TIP3    H166175   5.594   3.698  15.756 -3.9150 -1.5851 -3.4962
14920TIP3    H266176   5.691   3.714  15.641 -1.7472  0.4919 -1.4779
14921TIP3   OH266177   0.188   2.613   4.251  0.6322 -0.3357  0.0789
14921TIP3    H166178   0.254   2.674   4.218  1.2293 -1.2523 -0.4595
14921TIP3    H266179   0.108   2.638   4.205  0.8699  0.0394 -0.1403
14922TIP3   OH266180   4.164   6.041  16.485 -0.7311  0.0094 -0.0155
14922TIP3    H166181   4.247   6.077  16.517  0.1866 -0.0865 -2.1538
14922TIP3    H266182   4.186   6.002  16.401 -3.0179  0.1844 -0.7419
14923TIP3   OH266183   2.073   5.475  14.220 -0.0085  0.2896 -0.0538
14923TIP3    H166184   2.045   5.398  14.269  1.2162 -0.1580 -0.0323
14923TIP3    H266185   1.991   5.521  14.199 -0.8268 -1.3117 -0.5616
14924TIP3   OH266186   5.679   5.149   1.790  0.2292  0.1202  0.2328
14924TIP3    H166187   5.636   5.112   1.713  1.0329 -0.3256 -0.0139
14924TIP3    H266188   5.617   5.135   1.862 -1.0565  1.6237 -0.5324
14925TIP3   OH266189   5.763   3.612  16.369  0.3429 -0.0675 -0.2914
14925TIP3    H166190   5.750   3.568  16.285  1.8113 -0.6734 -0.2434
14925TIP3    H266191   5.745   3.704  16.351 -2.5699 -0.5903 -0.4508
14926TIP3   OH266192   6.488   3.039   4.601  0.1577 -0.0116 -0.4309
14926TIP3    H166193   6.454   3.064   4.687 -1.6256 -1.2492 -0.7385
14926TIP3    H266194   6.542   2.962   4.617  0.3161  0.1136 -0.3558
14927TIP3   OH266195   0.512   4.543  15.472 -0.1373 -0.1497 -0.3109
14927TIP3    H166196   0.582   4.521  15.533  0.4977 -0.6037 -1.1796
14927TIP3    H266197   0.538   4.628  15.436  1.1858 -1.3182 -2.3007
14928TIP3   OH266198   4.507   3.838  12.100  0.7089 -0.0489  0.4189
14928TIP3    H166199   4.499   3.932  12.113  0.2169 -0.3193  2.4134
14928TIP3    H266200   4.483   3.824  12.008  1.3320  1.8036 -0.0608
14929TIP3   OH266201   0.740   3.849  13.171  0.7153  0.0446 -0.0526
14929TIP3    H166202   0.669   3.857  13.108  0.1294 -0.5065  0.5233
14929TIP3    H266203   0.712   3.780  13.231  2.3233 -1.1356 -0.5884
14930TIP3   OH266204   0.204   3.638  14.365 -0.1928  0.6894 -0.1361
14930TIP3    H166205   0.121   3.621  14.320 -0.7551  2.8895 -0.0657
14930TIP3    H266206   0.178   3.662  14.454  0.4902  1.5048 -0.1484
14931TIP3   OH266207   6.061   3.725   3.968  0.8833  0.5564 -0.4500
14931TIP3    H166208   6.020   3.717   4.055  2.6877 -0.2536  0.3857
14931TIP3    H266209   6.009   3.791   3.923 -0.1442  0.9694  1.2397
14932TIP3   OH266210   4.456   6.524   5.570  0.2876 -0.1889 -0.7499
14932TIP3    H166211   4.460   6.430   5.550  0.1445 -0.4812  0.5492
14932TIP3    H266212   4.496   6.566   5.493 -0.4298 -1.2419 -1.7308
14933TIP3   OH266213   6.741   5.269   1.222  0.2167  0.1522  0.0940
14933TIP3    H166214   6.716   5.225   1.141 -0.4671  0.3756  0.1747
14933TIP3    H266215   6.658   5.303   1.258  0.3432 -0.8647  1.4305
14934TIP3   OH266216   6.698   0.169  11.136  0.0719 -0.0438 -0.7039
14934TIP3    H166217   6.749   0.088  11.140 -2.7861 -1.9722 -0.1368
14934TIP3    H266218   6.728   0.220  11.210  1.0808 -1.1670 -0.3027
14935TIP3   OH266219   4.461   1.219  11.036 -0.5986  0.0029 -0.0510
14935TIP3    H166220   4.474   1.312  11.016  0.4773  0.0317  0.7536
14935TIP3    H266221   4.386   1.194  10.981 -0.6657  1.2414 -0.5636
14936TIP3   OH266222   0.615   5.004  15.305  0.1089 -0.4145  0.2656
14936TIP3    H166223   0.560   4.944  15.254  0.1426 -1.0125  0.9144
14936TIP3    H266224   0.572   5.089  15.296 -0.7174 -0.8014  0.4528
14937TIP3   OH266225   0.730   2.694   4.653 -0.0291 -0.0214 -0.0850
14937TIP3    H166226   0.777   2.707   4.736 -1.4637  1.7737  0.5110
14937TIP3    H266227   0.762   2.764   4.597 -0.4337 -0.1008 -0.4102
14938TIP3   OH266228   0.358   2.279  12.906  0.4298 -0.6289  0.2278
14938TIP3    H166229   0.417   2.207  12.929 -0.2069 -1.1038  0.3944
14938TIP3    H266230   0.307   2.296  12.985  1.5165  0.9544  0.6337
14939TIP3   OH266231   3.113   5.324  16.371  0.1045 -0.3177 -0.5201
14939TIP3    H166232   3.122   5.343  16.465  0.1309  2.7207 -1.0311
14939TIP3    H266233   3.201   5.300  16.343  0.2169 -0.6792  0.1269
14940TIP3   OH266234   3.746   1.050   2.568  0.3520  0.0362  0.4954
14940TIP3    H166235   3.786   1.126   2.610  0.1915  1.2309 -1.3711
14940TIP3    H266236   3.789   1.044   2.482 -1.3265 -0.4823 -0.3601
14941TIP3   OH266237   0.135   1.184   5.387 -0.1360 -0.0263 -0.2086
14941TIP3    H166238   0.104   1.125   5.455  0.3203  0.2715  0.2681
14941TIP3    H266239   0.194   1.244   5.432 -2.8210  2.7278 -0.0540
14942TIP3   OH266240   1.993   3.933   2.039  0.1110  0.5359 -0.3526
14942TIP3    H166241   2.069   3.962   2.089  0.9659 -0.0652 -1.2681
14942TIP3    H266242   1.929   3.906   2.106  0.9487  0.4340  0.4274
14943TIP3   OH266243   1.978   3.437  11.659  0.5198  0.0741  0.0638
14943TIP3    H166244   1.948   3.367  11.601 -0.3162  1.0160 -0.6954
14943TIP3    H266245   1.898   3.468  11.701  1.1108 -0.5727  1.7462
14944TIP3   OH266246   2.588   3.033   0.783 -0.0418  0.2333  0.6923
14944TIP3    H166247   2.595   3.011   0.690  1.2558  1.0121  0.5814
14944TIP3    H266248   2.504   3.077   0.791 -0.8157 -1.0927  0.1709
14945TIP3   OH266249   5.410   0.955   2.332 -0.3162  0.6010 -0.8323
14945TIP3    H166250   5.361   1.035   2.349 -1.0211  0.2491 -1.1568
14945TIP3    H266251   5.481   0.956   2.396 -1.5685  0.4203  0.6296
14946TIP3   OH266252   0.690   1.395   3.737 -0.0818  0.2838 -0.0554
14946TIP3    H166253   0.688   1.447   3.817 -1.4981  0.0512  0.0888
14946TIP3    H266254   0.650   1.452   3.670 -1.2459 -0.4149  0.0068
14947TIP3   OH266255   1.897   0.467  13.336  0.5553  0.2905 -0.4070
14947TIP3    H166256   1.904   0.387  13.388 -1.9738  1.5128  2.0740
14947TIP3    H266257   1.978   0.515  13.355  0.1233  0.2608  1.6875
14948TIP3   OH266258   2.331   0.378  10.867  0.3227 -0.0604 -0.3193
14948TIP3    H166259   2.420   0.389  10.834 -0.6040  1.6362 -2.5074
14948TIP3    H266260   2.277   0.370  10.789 -1.6759  1.0704  0.8651
14949TIP3   OH266261   4.514   3.537   0.509  0.1138  0.0963  0.1350
14949TIP3    H166262   4.537   3.512   0.420 -0.3125  1.4431 -0.3688
14949TIP3    H266263   4.419   3.546   0.509  0.2275  1.5110  0.3258
14950TIP3   OH266264   3.630   5.057   3.686  0.3204  0.1770 -0.2453
14950TIP3    H166265   3.608   5.151   3.687 -0.5430 -0.0071  1.2206
14950TIP3    H266266   3.548   5.014   3.660  1.0546 -0.1331 -2.1863
14951TIP3   OH266267   3.278   2.665   0.674 -0.3678 -0.3915  0.2494
14951TIP3    H166268   3.348   2.701   0.619  0.9021 -1.3937  1.1774
14951TIP3    H266269   3.320   2.644   0.757 -2.1119  0.4785  1.4302
14952TIP3   OH266270   5.200   3.144   0.823 -0.4427 -0.6585 -0.2497
14952TIP3    H166271   5.238   3.143   0.735  0.8959 -3.2834  0.2745
14952TIP3    H266272   5.113   3.104   0.813  0.1960 -2.0903 -0.2226
14953TIP3   OH266273   2.266   0.094   5.528 -0.0375 -0.0304 -0.8336
14953TIP3    H166274   2.185   0.059   5.491  0.1042 -0.0097 -1.1668
14953TIP3    H266275   2.239   0.142   5.606 -0.3616  0.1109 -1.0341
14954TIP3   OH266276   5.377   5.628   1.837 -0.2012 -0.0539  0.8330
14954TIP3    H166277   5.384   5.534   1.856  1.2820 -0.2556 -0.5410
14954TIP3    H266278   5.449   5.668   1.886 -0.4362  0.2901  0.9029
14955TIP3   OH266279   2.230   2.917  11.389  0.1064  0.7181 -0.4442
14955TIP3    H166280   2.210   2.947  11.300 -0.7095  0.3296 -0.3961
14955TIP3    H266281   2.224   2.822  11.385  0.3338  0.6826 -0.0285
14956TIP3   OH266282   0.016   4.825  12.984 -0.3053 -0.3110 -0.0133
14956TIP3    H166283  -0.066   4.777  12.995  1.0177 -3.1422 -1.4993
14956TIP3    H266284   0.055   4.826  13.072 -0.5082 -1.7851  0.1209
14957TIP3   OH266285   5.604   3.396   1.470 -0.5595  0.2055 -0.2157
14957TIP3    H166286   5.556   3.386   1.552  0.5552  0.6006  0.5179
14957TIP3    H266287   5.653   3.478   1.481 -0.7758  0.5240 -1.4821
14958TIP3   OH266288   5.273   6.356  13.309  0.0194  0.2422  0.3127
14958TIP3    H166289   5.237   6.326  13.226 -1.1794 -0.6551  1.1213
14958TIP3    H266290   5.333   6.287  13.336 -1.4671 -0.7005  1.3576
14959TIP3   OH266291   4.714   6.535  12.684  0.1265  0.1161  0.2619
14959TIP3    H166292   4.651   6.514  12.752 -0.8492 -0.7251 -0.8765
14959TIP3    H266293   4.662   6.570  12.612  0.5729 -2.9505 -1.7087
14960TIP3   OH266294   4.976   4.091  11.996 -0.6103 -0.0164 -0.4801
14960TIP3    H166295   5.046   4.150  11.966  1.0598 -0.6259  1.9329
14960TIP3    H266296   4.923   4.076  11.918  2.3433 -0.0922 -2.6515
14961TIP3   OH266297   5.029   0.698  13.230 -0.0879 -0.3279  0.3357
14961TIP3    H166298   5.073   0.677  13.313  2.6659 -0.1544 -0.9776
14961TIP3    H266299   4.995   0.615  13.199  2.4643 -1.2308 -0.2688
14962TIP3   OH266300   2.001   3.448   3.898  0.2505  0.0052  0.0647
14962TIP3    H166301   2.003   3.495   3.815 -1.7664 -1.3470 -0.8129
14962TIP3    H266302   2.091   3.417   3.910  0.4908 -0.1816 -1.8811
14963TIP3   OH266303   5.778   1.355  15.405 -0.4112  0.7697 -0.0688
14963TIP3    H166304   5.796   1.410  15.328 -0.0657 -0.7005 -1.0719
14963TIP3    H266305   5.724   1.284  15.371 -0.2934  0.1149  1.0806
14964TIP3   OH266306   3.565   5.396  15.319  0.1785 -0.1842 -0.2042
14964TIP3    H166307   3.652   5.356  15.312 -0.4956 -1.6554 -0.6908
14964TIP3    H266308   3.516   5.336  15.376 -0.3281  1.0026  0.6441
14965TIP3   OH266309   0.692   4.459   1.898  0.4164  0.3624 -0.1123
14965TIP3    H166310   0.634   4.488   1.968  1.0762  0.3405  0.4572
14965TIP3    H266311   0.654   4.495   1.818 -0.4540  0.2216  0.2325
14966TIP3   OH266312   5.935   0.269   3.538  0.5460 -0.1675  0.2915
14966TIP3    H166313   5.854   0.320   3.531  0.6747  0.0867  0.5803
14966TIP3    H266314   5.944   0.224   3.455 -0.2829 -0.7816  0.5284
14967TIP3   OH266315   1.025   0.080  16.187  0.1707 -0.3590  0.3281
14967TIP3    H166316   1.007   0.046  16.099  1.1351 -0.8850  0.3250
14967TIP3    H266317   0.943   0.064  16.235 -0.4724  0.2168 -0.5421
14968TIP3   OH266318   4.964   5.136  15.620  0.3039  0.2692  0.2762
14968TIP3    H166319   4.960   5.194  15.544  2.4973  0.0657 -0.0481
14968TIP3    H266320   5.012   5.060  15.590 -2.5015 -1.8456  0.6902
14969TIP3   OH266321   5.645   5.348  13.881 -0.0604 -0.1184 -0.1187
14969TIP3    H166322   5.552   5.341  13.903  0.0489  2.9720  1.9565
14969TIP3    H266323   5.688   5.294  13.947 -0.3267 -1.9102 -1.3469
14970TIP3   OH266324   3.188   0.861  15.707  0.0506 -0.0393  0.1136
14970TIP3    H166325   3.125   0.914  15.658 -0.6337 -1.5321 -0.7058
14970TIP3    H266326   3.205   0.911  15.787 -0.6712  1.3148 -0.5500
14971TIP3   OH266327   0.466   3.015  13.858  0.4567  0.3145 -0.2216
14971TIP3    H166328   0.378   2.992  13.887  0.4508  0.6280  0.0108
14971TIP3    H266329   0.491   2.944  13.799 -0.0198  0.3175 -0.4265
14972TIP3   OH266330   3.656   5.046   0.492 -0.2722 -0.4690  0.2919
14972TIP3    H166331   3.695   4.976   0.439 -2.2608 -1.2836 -0.1843
14972TIP3    H266332   3.731   5.101   0.517  1.1657 -1.9357 -0.5336
14973TIP3   OH266333   1.426   6.160  15.941 -0.2423 -0.6201 -0.3915
14973TIP3    H166334   1.521   6.145  15.938 -0.2564 -0.7871 -0.0887
14973TIP3    H266335   1.410   6.228  15.877  0.0929 -0.5543 -0.4060
14974TIP3   OH266336   5.143   2.621  13.905  0.3288  0.1173  0.4843
14974TIP3    H166337   5.210   2.563  13.942  0.5008  0.1948  0.2969
14974TIP3    H266338   5.192   2.695  13.870  0.3241 -0.6960 -1.3268
14975TIP3   OH266339   0.253   3.874   5.142 -0.1700  0.6397  0.0928
14975TIP3    H166340   0.177   3.826   5.108 -0.4276  2.7816 -2.7052
14975TIP3    H266341   0.328   3.817   5.121 -0.5359  0.9663 -2.4176
14976TIP3   OH266342   0.916   3.366   3.747 -0.2054 -0.5725 -0.3466
14976TIP3    H166343   0.993   3.343   3.800  1.1863  0.9679 -1.5707
14976TIP3    H266344   0.886   3.449   3.784  2.4401  2.0136 -3.3612
14977TIP3   OH266345   2.715   4.062   1.090  0.5322  0.2590  0.1503
14977TIP3    H166346   2.637   4.095   1.046  0.9032  2.4911  0.9895
14977TIP3    H266347   2.682   4.015   1.166 -0.0377 -1.5361 -1.1549
14978TIP3   OH266348   1.391   2.043   3.171  0.1758  0.5471 -0.0862
14978TIP3    H166349   1.386   2.118   3.111  0.3157  0.4901 -0.1692
14978TIP3    H266350   1.441   2.076   3.246 -0.6018  0.8362  0.3268
14979TIP3   OH266351   0.728   2.498  14.219  0.4798  0.3676  0.0912
14979TIP3    H166352   0.744   2.568  14.157 -0.9545  0.2016 -0.5176
14979TIP3    H266353   0.737   2.418  14.168  0.6439  0.1724  0.4239
14980TIP3   OH266354   5.123   5.640  12.889 -0.3781  0.7158  0.3241
14980TIP3    H166355   5.034   5.676  12.892 -0.6523  0.0321  0.5075
14980TIP3    H266356   5.119   5.563  12.945 -0.0219 -0.0942 -0.7376
14981TIP3   OH266357   1.525   2.961   4.995 -0.2070  0.3018 -0.3065
14981TIP3    H166358   1.598   2.923   5.044 -0.3024  1.8226  1.0791
14981TIP3    H266359   1.454   2.897   5.004  0.8099 -1.0637 -1.4455
14982TIP3   OH266360   2.742   6.482   0.832 -0.3341 -0.1121 -0.3224
14982TIP3    H166361   2.772   6.546   0.768 -2.8458 -0.2477 -1.7254
14982TIP3    H266362   2.689   6.533   0.894 -1.2147 -0.5855 -0.6699
14983TIP3   OH266363   0.772   2.472  12.386  0.1806  0.2632 -0.2343
14983TIP3    H166364   0.691   2.494  12.433  1.0885  0.7393  1.1723
14983TIP3    H266365   0.813   2.557  12.368 -0.8371  0.2319 -3.3240
14984TIP3   OH266366   3.920   1.001  17.080  0.8288 -0.4644 -0.3314
14984TIP3    H166367   3.919   0.906  17.064 -1.0938 -0.4881 -0.3013
14984TIP3    H266368   3.850   1.035  17.025 -0.4066  0.5425  1.7496
14985TIP3   OH266369   4.759   0.478   6.280 -0.4296  0.1494 -0.2990
14985TIP3    H166370   4.664   0.486   6.288 -0.9127 -2.8963 -1.7851
14985TIP3    H266371   4.785   0.425   6.356  0.0839  0.7777 -0.0224
14986TIP3   OH266372   6.285   5.660   5.246 -0.0907  0.0036 -0.0768
14986TIP3    H166373   6.200   5.630   5.279 -1.5442  1.1113 -2.5686
14986TIP3    H266374   6.276   5.656   5.151  0.6744  5.0898 -0.6421
14987TIP3   OH266375   6.046   3.912   2.416 -0.3062  0.7813 -0.6513
14987TIP3    H166376   5.956   3.899   2.386  0.2180 -0.4160 -1.7644
14987TIP3    H266377   6.085   3.824   2.414 -0.1941  0.5023  3.5660
14988TIP3   OH266378   3.715   4.120  12.278 -0.3049  0.1965  0.3514
14988TIP3    H166379   3.729   4.205  12.320  1.0995  0.0698  0.1687
14988TIP3    H266380   3.758   4.128  12.193  1.9103 -1.4316  1.2367
14989TIP3   OH266381   4.424   3.463   5.508 -0.0471  0.4953  0.2197
14989TIP3    H166382   4.389   3.374   5.517 -0.1681  0.2212 -2.1245
14989TIP3    H266383   4.463   3.464   5.420  0.5866  2.5556  0.4774
14990TIP3   OH266384   4.771   0.236   1.628 -0.0087 -0.1108  0.0102
14990TIP3    H166385   4.694   0.227   1.683  0.4202 -0.1554  0.6132
14990TIP3    H266386   4.799   0.326   1.639  0.9207 -0.5039  1.0194
14991TIP3   OH266387   3.102   0.030   0.982 -0.2335 -0.3684  0.1211
14991TIP3    H166388   3.063  -0.052   1.013 -1.8717  0.2703 -0.2100
14991TIP3    H266389   3.095   0.090   1.056 -0.5969 -0.0073 -0.2059
14992TIP3   OH266390   0.615   4.707  16.242 -0.8328 -0.0280 -0.8334
14992TIP3    H166391   0.702   4.699  16.204  0.7178 -0.9265  2.5301
14992TIP3    H266392   0.617   4.792  16.287 -0.6933 -1.1137  1.3320
14993TIP3   OH266393   6.577   3.425  13.693  0.0510  0.1384  0.1382
14993TIP3    H166394   6.526   3.481  13.752 -1.3070  0.9738 -1.7520
14993TIP3    H266395   6.614   3.485  13.629  0.8812 -0.8435 -0.3257
14994TIP3   OH266396   2.307   5.871   4.505 -0.1714 -0.2352 -0.2429
14994TIP3    H166397   2.220   5.880   4.467  0.7003 -0.3220 -2.3935
14994TIP3    H266398   2.325   5.956   4.545 -1.5517 -0.4882  1.0100
14995TIP3   OH266399   3.603   4.490   3.033 -0.3879 -0.0164  0.2116
14995TIP3    H166400   3.585   4.576   2.995  0.6755 -0.7429 -2.1063
14995TIP3    H266401   3.668   4.507   3.101  0.7624  0.9216 -1.0690
14996TIP3   OH266402   6.628   2.858  15.211 -0.0201 -0.3446  0.4316
14996TIP3    H166403   6.575   2.927  15.171  0.4703  0.3795  0.9914
14996TIP3    H266404   6.598   2.777  15.170 -3.8277 -0.4450  2.8787
14997TIP3   OH266405   2.377   6.318   3.678  0.5741 -0.4490  0.0638
14997TIP3    H166406   2.337   6.327   3.591  0.3865 -1.4196  0.0317
14997TIP3    H266407   2.305   6.287   3.734  0.3670  1.3609  0.8770
14998TIP3   OH266408   6.313   1.927   1.455 -0.1747 -0.9737  0.2245
14998TIP3    H166409   6.361   1.854   1.417  0.9770  0.2616 -0.7741
14998TIP3    H266410   6.230   1.929   1.407  0.4233 -0.6961 -0.8247
14999TIP3   OH266411   2.640   3.098  15.712  0.5438 -0.2042  0.3322
14999TIP3    H166412   2.677   3.086  15.624  1.3297  0.1748  0.6034
14999TIP3    H266413   2.548   3.116  15.697  0.6805 -0.1120 -0.4195
15000TIP3   OH266414   3.881   1.541  12.583 -0.4170  0.1475 -0.2506
15000TIP3    H166415   3.860   1.449  12.596  0.0539  0.0043 -0.4868
15000TIP3    H266416   3.796   1.582  12.564 -0.8843  0.0626  1.4645
15001TIP3   OH266417   1.106   3.332  10.778 -0.0751  0.2465 -0.1280
15001TIP3    H166418   1.124   3.390  10.705  0.6263  0.0505 -0.1175
15001TIP3    H266419   1.179   3.345  10.838  0.6293 -1.3782 -0.5909
15002TIP3   OH266420   1.392   0.126  14.179  0.3851 -0.4695 -0.0985
15002TIP3    H166421   1.480   0.141  14.214  0.0192  0.7066  0.3557
15002TIP3    H266422   1.381   0.193  14.111 -0.3847 -0.1941  0.2858
15003TIP3   OH266423   5.603   0.474   0.606  0.4286  0.8986  0.1536
15003TIP3    H166424   5.598   0.510   0.695 -0.5582  0.2638  0.3750
15003TIP3    H266425   5.618   0.381   0.619 -0.0648  0.7484 -0.3387
15004TIP3   OH266426   0.939   6.614  14.174 -0.3513 -0.8592  0.3731
15004TIP3    H166427   1.026   6.574  14.168 -0.5297 -1.2230  0.1717
15004TIP3    H266428   0.952   6.690  14.230  0.3486 -0.1995 -0.6430
15005TIP3   OH266429   0.387   0.406  17.148  0.0094  0.4157 -0.1351
15005TIP3    H166430   0.318   0.379  17.087 -1.1477  1.1133  0.8244
15005TIP3    H266431   0.397   0.500  17.132  0.8175  0.3042 -0.3277
15006TIP3   OH266432   0.317   4.902  13.405  0.1272 -0.4454  0.0079
15006TIP3    H166433   0.246   4.892  13.469  0.3055 -0.7744  0.1603
15006TIP3    H266434   0.370   4.823  13.417  1.0065  0.2120  0.5096
15007TIP3   OH266435   1.744   3.582  14.697  0.2478 -0.1071 -0.0905
15007TIP3    H166436   1.822   3.526  14.686 -0.7328 -2.2135  2.6498
15007TIP3    H266437   1.679   3.544  14.638  1.2404  1.8733 -2.6587
15008TIP3   OH266438   2.103   3.958  11.003  0.2893  0.2545  0.0189
15008TIP3    H166439   2.053   3.953  10.921  0.5655  1.8218 -0.2773
15008TIP3    H266440   2.193   3.975  10.976  0.5103  0.0932  0.6317
15009TIP3   OH266441   4.954   5.275  13.009 -0.2955  0.2220 -0.0991
15009TIP3    H166442   4.895   5.202  13.027 -0.3992 -0.0611 -1.5272
15009TIP3    H266443   4.897   5.351  12.999 -0.2443  0.3613  0.6081
15010TIP3   OH266444   1.151   1.737  14.199  0.1994 -0.1951 -0.2473
15010TIP3    H166445   1.154   1.674  14.127  0.4524 -2.3922  1.5530
15010TIP3    H266446   1.219   1.801  14.179 -0.0212 -0.4833 -2.1248
15011TIP3   OH266447   0.540   3.816   0.332 -0.0458  0.2593 -0.1222
15011TIP3    H166448   0.498   3.734   0.306 -0.1185 -0.2887  1.5714
15011TIP3    H266449   0.565   3.858   0.250  0.1470 -1.5367 -1.0176
15012TIP3   OH266450   4.019   6.408   5.097  0.1308 -0.0301  0.1266
15012TIP3    H166451   4.043   6.475   5.033 -1.2155  1.0847  0.7143
15012TIP3    H266452   4.024   6.453   5.182  0.0377 -0.9271  0.6236
15013TIP3   OH266453   2.707   1.493  10.614  0.1910  0.4507  0.4332
15013TIP3    H166454   2.773   1.530  10.672  0.5510  1.6934 -0.7188
15013TIP3    H266455   2.756   1.441  10.551 -0.0137  0.6267  0.1252
15014TIP3   OH266456   2.140   5.020   0.579  0.3254 -0.1874 -0.4082
15014TIP3    H166457   2.192   5.028   0.660 -0.8391 -0.2919  0.3742
15014TIP3    H266458   2.190   4.959   0.525 -0.4297 -2.7743  1.5744
15015TIP3   OH266459   6.367   3.153   2.234 -0.3417 -0.2452  0.1686
15015TIP3    H166460   6.407   3.216   2.174 -0.1338 -1.6608 -1.2851
15015TIP3    H266461   6.273   3.160   2.218 -0.4772  0.9525  1.3614
15016TIP3   OH266462   0.313   1.790   0.782  0.3372  0.0196  0.1052
15016TIP3    H166463   0.401   1.766   0.753 -0.5718 -1.9877 -1.2089
15016TIP3    H266464   0.312   1.768   0.875  0.5132 -2.4550 -0.3968
15017TIP3   OH266465   3.010   5.705  12.210  1.1860  0.0430  0.0805
15017TIP3    H166466   2.931   5.745  12.174  2.0874  2.9337  1.0524
15017TIP3    H266467   3.080   5.766  12.188  2.4655 -0.2887  2.7910
15018TIP3   OH266468   6.267   3.752  15.983 -0.8944  0.0652  0.5579
15018TIP3    H166469   6.216   3.785  16.057  1.4425  0.7610  1.9604
15018TIP3    H266470   6.336   3.817  15.970 -0.6885 -0.5154 -1.6606
15019TIP3   OH266471   5.864   0.944   4.132 -0.2714 -0.0251 -0.3382
15019TIP3    H166472   5.931   0.969   4.196 -0.7191  0.8323 -0.1955
15019TIP3    H266473   5.897   0.976   4.048 -0.9655  1.3543 -0.1189
15020TIP3   OH266474   0.630   2.757   3.356 -0.1189  0.5593 -0.2064
15020TIP3    H166475   0.678   2.835   3.379 -1.2182  1.3675 -0.5529
15020TIP3    H266476   0.546   2.766   3.402 -0.3837 -0.2535 -0.5093
15021TIP3   OH266477   6.574   1.162   5.103  0.4450  0.1780  0.2812
15021TIP3    H166478   6.638   1.171   5.033  0.5259 -1.6191  0.0787
15021TIP3    H266479   6.523   1.085   5.080 -0.8725  0.7353  1.1775
15022TIP3   OH266480   0.809   4.169   5.876 -0.6389  0.7532 -0.2703
15022TIP3    H166481   0.842   4.204   5.794 -0.5096  2.1764  0.3419
15022TIP3    H266482   0.837   4.233   5.942  0.3160 -0.9413  1.0706
15023TIP3   OH266483   2.725   0.084   3.874  0.7084 -0.5502 -0.2541
15023TIP3    H166484   2.724   0.116   3.965 -1.9094  0.7314 -0.6185
15023TIP3    H266485   2.694   0.158   3.822  0.0129 -1.9177 -1.9122
15024TIP3   OH266486   3.818   6.629   4.559  0.0090  0.1518 -0.0958
15024TIP3    H166487   3.744   6.632   4.498  1.2357  0.1238 -1.6572
15024TIP3    H266488   3.813   6.711   4.608 -1.2688 -0.0294  0.1204
15025TIP3   OH266489   4.550   0.175  15.941  0.3020 -0.3677  0.2234
15025TIP3    H166490   4.485   0.152  16.007  0.1903  0.4571  0.4039
15025TIP3    H266491   4.499   0.207  15.867  0.5115  0.7976  0.5686
15026TIP3   OH266492   5.224   0.981  11.925  0.7477  0.1809 -0.1656
15026TIP3    H166493   5.147   0.978  11.982  0.8207  0.9907 -0.0031
15026TIP3    H266494   5.191   0.962  11.838  0.4640 -0.0758 -0.0023
15027TIP3   OH266495   0.572   0.686  12.846  0.7051 -0.2258 -0.3388
15027TIP3    H166496   0.628   0.617  12.812 -1.0951 -0.8867 -2.1782
15027TIP3    H266497   0.503   0.639  12.894  1.0497  0.4982  0.9256
15028TIP3   OH266498   6.782   3.848   3.476  0.3316 -0.0935 -0.5412
15028TIP3    H166499   6.872   3.817   3.487  0.4250  0.6884  1.2543
15028TIP3    H266500   6.778   3.879   3.386  1.5615 -1.0290 -0.9529
15029TIP3   OH266501   5.063   0.277  15.676 -0.1067 -0.2353  0.4231
15029TIP3    H166502   4.984   0.326  15.650 -0.2453 -0.4938  0.3602
15029TIP3    H266503   5.042   0.186  15.658 -0.0915 -0.3898  1.1373
15030TIP3   OH266504   0.470   1.728  12.751 -0.4777 -0.3564 -0.0345
15030TIP3    H166505   0.396   1.675  12.721 -0.7798  0.0329  0.0146
15030TIP3    H266506   0.547   1.676  12.729 -0.7941 -1.0926  0.5834
15031TIP3   OH266507   5.132   2.753   3.855 -0.5107  0.0543  0.2096
15031TIP3    H166508   5.104   2.826   3.911  0.8327  0.3451  0.5297
15031TIP3    H266509   5.187   2.794   3.788 -1.0512 -0.4682 -0.5699
15032TIP3   OH266510   3.180   5.372   5.183  0.1356 -0.3229  0.1894
15032TIP3    H166511   3.086   5.353   5.185  0.3899 -2.3887 -2.0704
15032TIP3    H266512   3.195   5.411   5.097  1.1812  1.3369  1.0834
15033TIP3   OH266513   5.294   1.551   4.574 -0.0713  0.1784 -0.3413
15033TIP3    H166514   5.351   1.488   4.617  0.6036  1.5877  0.9017
15033TIP3    H266515   5.216   1.499   4.549  1.2174 -1.5154 -1.0641
15034TIP3   OH266516   3.504   1.455   2.586 -0.0017 -0.0626 -0.1921
15034TIP3    H166517   3.563   1.413   2.523  0.7153  1.0817 -0.3084
15034TIP3    H266518   3.430   1.485   2.533 -1.9360 -3.5391  0.2657
15035TIP3   OH266519   0.363   6.457   4.963  0.5910  0.1603 -0.0186
15035TIP3    H166520   0.448   6.422   4.940  1.3612  1.7063  0.3546
15035TIP3    H266521   0.325   6.487   4.880  0.5992 -0.1226 -0.1243
15036TIP3   OH266522   0.346   3.282   2.025 -0.6713 -0.4524 -0.3249
15036TIP3    H166523   0.350   3.377   2.036 -0.7107 -0.5135  0.2176
15036TIP3    H266524   0.303   3.250   2.104  0.6552 -1.0539  0.1951
15037TIP3   OH266525   0.057   5.824  14.104 -0.4737  0.3261  0.4570
15037TIP3    H166526   0.122   5.877  14.152  0.3348  0.8876 -1.1853
15037TIP3    H266527   0.034   5.877  14.028  2.6176 -2.6647 -2.9893
15038TIP3   OH266528   2.348   0.928  15.940 -0.7337  0.1873 -0.1653
15038TIP3    H166529   2.397   0.909  16.020  2.6159  2.3257 -1.5076
15038TIP3    H266530   2.296   1.006  15.961  0.6765  1.1675 -0.1879
15039TIP3   OH266531   6.699   3.363   0.708 -0.0474 -0.4751 -0.8351
15039TIP3    H166532   6.734   3.331   0.791  0.2173  0.5472 -0.5459
15039TIP3    H266533   6.763   3.334   0.643  0.5518  0.0542 -0.4932
15040TIP3   OH266534   6.053   6.191  14.496 -0.1893  0.3162 -0.4705
15040TIP3    H166535   6.041   6.121  14.560 -0.1311  0.2268 -0.5561
15040TIP3    H266536   5.985   6.174  14.430 -0.4930  0.6288 -0.2389
15041TIP3   OH266537   3.888   0.886  16.040  0.7220  0.2840 -0.2486
15041TIP3    H166538   3.807   0.883  15.988 -0.1285  1.1140  0.9633
15041TIP3    H266539   3.922   0.797  16.037  0.8110  0.3503 -2.3721
15042TIP3   OH266540   5.306   5.953  16.421 -0.2860  0.3765  0.2389
15042TIP3    H166541   5.373   6.006  16.379  0.8835 -0.9420  0.3613
15042TIP3    H266542   5.224   5.981  16.381  0.2585  2.3624  0.4221
15043TIP3   OH266543   3.571   2.784  11.275  0.0353  0.1267 -0.5226
15043TIP3    H166544   3.596   2.815  11.188  0.9574  0.1144 -0.2776
15043TIP3    H266545   3.634   2.826  11.334 -2.7539  3.0281  0.6170
15044TIP3   OH266546   4.335   1.789  13.575 -0.1775  0.2993 -0.4922
15044TIP3    H166547   4.379   1.745  13.502 -0.8169 -1.3238  0.0615
15044TIP3    H266548   4.369   1.746  13.653  2.1839  3.4802  0.4446
15045TIP3   OH266549   3.605   5.758   6.158  0.2264  0.2217 -0.3802
15045TIP3    H166550   3.675   5.705   6.120 -0.2107 -2.1335  1.8518
15045TIP3    H266551   3.526   5.731   6.114  0.1279 -0.3625  0.1461
15046TIP3   OH266552   2.206   5.162   5.414  0.9977 -0.1986 -0.1815
15046TIP3    H166553   2.215   5.131   5.504  0.4223 -0.7265 -0.2933
15046TIP3    H266554   2.294   5.187   5.388  1.4010 -1.2840  0.0868
15047TIP3   OH266555   5.089   2.363  11.355 -0.5626  0.5683  0.0760
15047TIP3    H166556   5.112   2.442  11.403  0.2140  0.9239 -0.8673
15047TIP3    H266557   5.161   2.302  11.373 -1.0357  0.1475  0.5998
15048TIP3   OH266558   2.250   6.478   4.235  0.0061  0.0375  0.3286
15048TIP3    H166559   2.192   6.426   4.180 -0.3362 -0.3275  1.0215
15048TIP3    H266560   2.217   6.568   4.227 -0.8339 -0.2068  0.9186
15049TIP3   OH266561   4.763   6.332   0.835 -0.2019  0.0450 -0.0629
15049TIP3    H166562   4.804   6.355   0.918  0.6566  0.9189 -0.7101
15049TIP3    H266563   4.780   6.238   0.826 -0.9645 -0.2227  1.0919
15050TIP3   OH266564   0.343   3.754   4.376  0.6435  0.8299  0.2594
15050TIP3    H166565   0.358   3.685   4.312 -0.3943  0.5922  0.2531
15050TIP3    H266566   0.407   3.737   4.446  1.5223  0.8645 -0.5147
15051TIP3   OH266567   1.883   5.478  14.703  0.0154 -0.0865 -0.2718
15051TIP3    H166568   1.933   5.554  14.672  1.1742 -1.0120 -0.7042
15051TIP3    H266569   1.932   5.402  14.672 -1.3152 -1.0271 -0.1356
15052TIP3   OH266570   4.151   0.926   2.161 -0.3875 -0.1753 -0.2798
15052TIP3    H166571   4.112   0.842   2.137 -0.9346 -0.1500  0.5089
15052TIP3    H266572   4.138   0.981   2.083  2.1257 -1.5017 -1.7631
15053TIP3   OH266573   4.249   0.895   4.123 -0.6902  0.1207 -0.4582
15053TIP3    H166574   4.187   0.964   4.147  0.8403  0.9816  1.3005
15053TIP3    H266575   4.287   0.867   4.206  0.3349 -1.2996 -1.3604
15054TIP3   OH266576   6.563   5.890  10.515 -0.2764 -0.1057  0.2580
15054TIP3    H166577   6.517   5.970  10.542  0.7904  0.4472  0.5229
15054TIP3    H266578   6.505   5.848  10.452 -0.9074  0.8334  0.2018
15055TIP3   OH266579   3.747   1.364  15.144 -0.1774  0.1121 -0.4267
15055TIP3    H166580   3.801   1.340  15.219  1.8052  2.8287 -0.8118
15055TIP3    H266581   3.657   1.355  15.175  0.5654 -0.5381  1.6914
15056TIP3   OH266582   1.496   4.046  15.330 -0.0846  0.0496  0.0199
15056TIP3    H166583   1.475   3.997  15.410 -2.1075 -0.8651 -1.0081
15056TIP3    H266584   1.491   3.981  15.260 -1.2429  1.3921 -1.2065
15057TIP3   OH266585   6.471   1.806   1.881 -0.7208  0.0853  0.0702
15057TIP3    H166586   6.441   1.897   1.873  0.5241  0.7291  1.8865
15057TIP3    H266587   6.416   1.768   1.949  0.9202  0.5846  1.7739
15058TIP3   OH266588   6.356   6.703   5.438 -0.5776  0.6167 -0.7685
15058TIP3    H166589   6.423   6.657   5.388 -0.6335 -0.4366  0.0898
15058TIP3    H266590   6.397   6.785   5.463  0.8528 -0.4993  0.7398
15059TIP3   OH266591   3.584   5.823  11.618 -0.2153  0.1442  0.0599
15059TIP3    H166592   3.605   5.746  11.565  0.8079  0.8327 -0.5729
15059TIP3    H266593   3.642   5.816  11.694  0.8280  0.9228 -0.6267
15060TIP3   OH266594   4.071   6.376  15.012 -0.2154 -0.1630 -0.0421
15060TIP3    H166595   4.142   6.369  15.076 -0.7951  0.6431  0.7113
15060TIP3    H266596   4.006   6.312  15.041 -0.4257  0.1170  0.1110
15061TIP3   OH266597   6.341   2.208   5.845 -0.2743 -0.1353  0.4082
15061TIP3    H166598   6.436   2.208   5.832 -0.2988  1.8840 -0.2035
15061TIP3    H266599   6.310   2.278   5.787 -2.0003  0.0310  1.4850
15062TIP3   OH266600   0.760   6.534   3.951 -0.3893  0.3061  0.6057
15062TIP3    H166601   0.832   6.595   3.969  0.3221 -0.2254 -0.3316
15062TIP3    H266602   0.714   6.526   4.034 -1.4865  3.3333  0.4313
15063TIP3   OH266603   0.795   1.840  16.355  0.2849 -0.8196  0.2652
15063TIP3    H166604   0.745   1.829  16.436 -0.6838 -0.6734 -0.2986
15063TIP3    H266605   0.759   1.775  16.295 -1.2124  1.0995 -1.0683
15064TIP3   OH266606   5.061   6.073  16.877 -0.5570  0.1853 -0.1168
15064TIP3    H166607   4.991   6.092  16.814 -0.8639 -0.8932 -0.1205
15064TIP3    H266608   5.136   6.050  16.822 -0.9728 -1.2797 -0.1276
15065TIP3   OH266609   2.204   2.985  11.121  0.2737  0.1862  0.4943
15065TIP3    H166610   2.150   3.004  11.045  0.5704  0.0940  0.2568
15065TIP3    H266611   2.286   3.032  11.105 -0.2466  1.5069  1.5312
15066TIP3   OH266612   3.837   2.908   2.191 -0.4388 -0.3727  0.0597
15066TIP3    H166613   3.926   2.899   2.159 -0.4240  1.4469 -0.5093
15066TIP3    H266614   3.840   2.982   2.251 -1.2448 -1.3521  1.3666
15067TIP3   OH266615   2.511   1.481   0.180  0.1713  0.8853 -0.6676
15067TIP3    H166616   2.470   1.492   0.095  0.8474  0.5393 -1.0495
15067TIP3    H266617   2.556   1.396   0.175 -0.1599  0.6442  0.1889
15068TIP3   OH266618   4.222   3.034   5.182  0.0254 -0.3247 -0.1625
15068TIP3    H166619   4.131   3.021   5.208 -0.4459  3.3535  0.5555
15068TIP3    H266620   4.218   3.061   5.090  0.4413 -0.5621 -0.2550
15069TIP3   OH266621   3.154   2.212  16.628 -0.5722 -0.3154 -0.4395
15069TIP3    H166622   3.089   2.257  16.575 -0.1397 -0.0932 -0.7848
15069TIP3    H266623   3.166   2.268  16.705  1.0061  0.9269 -1.5242
15070TIP3   OH266624   3.874   0.152   3.083  0.2992  0.2757 -0.3320
15070TIP3    H166625   3.797   0.137   3.028 -1.1631  0.7971  1.4901
15070TIP3    H266626   3.907   0.064   3.102 -0.2917  0.0041 -0.5307
15071TIP3   OH266627   4.903   5.580   0.561 -0.5824 -0.3710  0.1798
15071TIP3    H166628   4.924   5.487   0.548  0.3709 -0.4642  2.1045
15071TIP3    H266629   4.813   5.579   0.595 -0.2454 -0.6552  1.0639
15072TIP3   OH266630   1.374   1.509  11.085 -0.0184 -0.5450 -0.3560
15072TIP3    H166631   1.388   1.415  11.090  0.3785 -0.5928 -1.9553
15072TIP3    H266632   1.384   1.530  10.992 -0.9048  0.9507 -0.1413
15073TIP3   OH266633   6.239   1.698  11.916 -0.7027 -0.0403 -0.4698
15073TIP3    H166634   6.209   1.768  11.857 -1.1909 -0.3252 -0.5657
15073TIP3    H266635   6.305   1.740  11.971 -0.1968  0.2140 -1.2582
15074TIP3   OH266636   6.376   4.604   6.391  0.1839 -0.0946  0.2566
15074TIP3    H166637   6.290   4.646   6.399 -0.7966 -2.0252  0.3662
15074TIP3    H266638   6.368   4.549   6.313  1.7038  0.4752 -0.3448
15075TIP3   OH266639   6.115   3.265   2.998 -0.3732  0.3023  0.1866
15075TIP3    H166640   6.171   3.190   3.021  1.1920  1.4931  0.3984
15075TIP3    H266641   6.041   3.259   3.059 -1.1133 -1.9224 -0.8138
15076TIP3   OH266642   3.671   2.214   3.164 -0.4822  0.4272 -0.1489
15076TIP3    H166643   3.620   2.143   3.203 -1.3941  1.0318 -0.2182
15076TIP3    H266644   3.620   2.293   3.182  0.8549  1.1664  0.5263
15077TIP3   OH266645   2.642   0.215   4.624 -0.1955 -0.1228  0.3076
15077TIP3    H166646   2.663   0.122   4.616 -1.6016 -0.4552  0.1055
15077TIP3    H266647   2.546   0.218   4.616 -0.0652  1.5228 -1.4865
15078TIP3   OH266648   2.719   0.309  14.682  0.3809  0.2061  0.3763
15078TIP3    H166649   2.693   0.401  14.676  2.6612  0.8732 -0.5911
15078TIP3    H266650   2.807   0.312  14.720  1.1880 -1.4170 -1.2192
15079TIP3   OH266651   2.611   1.275   3.110  0.9149  0.1968  0.1990
15079TIP3    H166652   2.566   1.352   3.144 -0.9479 -0.6726 -0.1732
15079TIP3    H266653   2.614   1.214   3.184 -0.4321 -0.5310 -0.3019
15080TIP3   OH266654   2.080   4.781   1.454 -0.1038  0.1680  0.2459
15080TIP3    H166655   2.098   4.808   1.364  0.0044  0.9319  0.4837
15080TIP3    H266656   2.160   4.800   1.501  1.3457 -3.9152 -0.2003
15081TIP3   OH266657   0.759   5.408   2.499  0.2117  0.3581 -0.1888
15081TIP3    H166658   0.838   5.440   2.542  0.5346 -1.1896  0.4316
15081TIP3    H266659   0.721   5.346   2.562 -0.0447 -0.9272 -1.5639
15082TIP3   OH266660   2.221   3.162  13.914 -0.3468 -0.3681  0.0322
15082TIP3    H166661   2.172   3.189  13.992  0.3997  0.5436  0.1988
15082TIP3    H266662   2.220   3.067  13.917  1.1375 -0.3916  2.1119
15083TIP3   OH266663   2.285   2.521   5.377  0.0358 -0.0261  0.5005
15083TIP3    H166664   2.232   2.554   5.449  0.5277  0.7815  0.5019
15083TIP3    H266665   2.233   2.536   5.298  0.2255  0.7029  0.5085
15084TIP3   OH266666   2.291   3.406   0.972  0.1812  0.1209  0.0177
15084TIP3    H166667   2.215   3.458   0.997  0.7227  0.0323  2.0091
15084TIP3    H266668   2.278   3.322   1.016  0.9002 -0.2772 -0.5114
15085TIP3   OH266669   1.708   1.763  13.536 -0.3459  0.3758  0.4694
15085TIP3    H166670   1.771   1.691  13.528 -1.1023 -0.3652  0.9666
15085TIP3    H266671   1.678   1.758  13.627  0.0140  1.6985  0.6863
15086TIP3   OH266672   4.386   0.507  16.825  0.0779 -0.4007 -0.4364
15086TIP3    H166673   4.371   0.500  16.920 -1.3269  0.3063 -0.5872
15086TIP3    H266674   4.333   0.437  16.787  1.5807 -1.4795 -0.6641
15087TIP3   OH266675   2.191   5.581  12.741  0.1030 -0.3250 -0.5489
15087TIP3    H166676   2.170   5.614  12.828  1.2725  2.1917 -1.1101
15087TIP3    H266677   2.119   5.523  12.718 -2.5901  2.4428  0.3139
15088TIP3   OH266678   3.183   0.145   3.663 -0.4932 -0.1453 -0.6145
15088TIP3    H166679   3.270   0.128   3.628 -0.2417  0.2095 -0.1649
15088TIP3    H266680   3.128   0.159   3.585  0.5936  3.3780 -0.9329
15089TIP3   OH266681   1.843   2.946   2.189 -0.3098 -0.0231  0.1979
15089TIP3    H166682   1.749   2.930   2.180  0.0189 -1.6202 -1.1419
15089TIP3    H266683   1.872   2.965   2.100  0.6139  0.6015  0.6234
15090TIP3   OH266684   3.972   4.855   5.070 -0.5172  0.2212 -0.9304
15090TIP3    H166685   3.935   4.894   5.149  0.1559  1.4154 -1.1782
15090TIP3    H266686   3.916   4.887   4.999 -0.9996 -0.6833 -0.9659
15091TIP3   OH266687   3.373   3.871  13.359 -0.3855 -0.6882  0.2846
15091TIP3    H166688   3.407   3.955  13.390  0.6852 -1.6668  1.8896
15091TIP3    H266689   3.279   3.886  13.349 -0.0418  1.0679 -0.7927
15092TIP3   OH266690   4.998   6.135   3.177  0.0547  0.0211 -0.1739
15092TIP3    H166691   4.913   6.105   3.144  0.0830  1.9252 -2.2342
15092TIP3    H266692   5.003   6.100   3.266 -1.9487 -1.8734 -0.7162
15093TIP3   OH266693   2.269   3.712   4.105 -0.1857  0.5272 -0.4748
15093TIP3    H166694   2.184   3.668   4.107  0.2274 -0.2989 -0.6804
15093TIP3    H266695   2.332   3.642   4.124  0.3723  1.3614  0.9259
15094TIP3   OH266696   3.420   4.548   0.916 -0.1406 -0.0664  0.9034
15094TIP3    H166697   3.467   4.464   0.911 -1.8150 -1.0366  0.8776
15094TIP3    H266698   3.402   4.558   1.009  0.1210  0.3186  0.9137
15095TIP3   OH266699   4.034   2.342  14.627 -0.1277 -0.6208  0.6071
15095TIP3    H166700   3.995   2.405  14.566 -1.0591 -0.9343  0.8576
15095TIP3    H266701   3.995   2.363  14.712  1.2926 -0.0743  1.1545
15096TIP3   OH266702   3.845   5.392   0.650 -0.3181 -0.2040 -0.2863
15096TIP3    H166703   3.929   5.348   0.662 -0.1959 -0.0057 -0.4156
15096TIP3    H266704   3.849   5.426   0.561 -0.1598  0.6106  0.0272
15097TIP3   OH266705   1.242   3.740   2.420 -0.7245 -0.0071 -0.0981
15097TIP3    H166706   1.303   3.813   2.424  0.0943 -0.7283  2.1547
15097TIP3    H266707   1.268   3.691   2.342  0.8191  0.3447  0.1703
15098TIP3   OH266708   6.268   4.892  16.937  0.5225 -0.8880 -0.0597
15098TIP3    H166709   6.335   4.858  16.996  0.9230 -0.3121 -0.1693
15098TIP3    H266710   6.232   4.967  16.984  2.7430  1.3239 -1.6234
15099TIP3   OH266711   4.975   1.860  16.333  0.0766 -0.0363 -0.2897
15099TIP3    H166712   4.930   1.786  16.293 -0.9650  0.0449  0.7215
15099TIP3    H266713   5.052   1.873  16.276 -0.7350 -0.6555 -1.5912
15100TIP3   OH266714   2.620   4.887   3.534  0.2914 -0.3909 -0.1528
15100TIP3    H166715   2.626   4.793   3.549 -0.5903 -0.2187  1.5339
15100TIP3    H266716   2.656   4.927   3.613 -1.3238  0.6489  0.1253
15101TIP3   OH266717   0.969   0.362  16.256  0.1215 -0.0161 -0.0124
15101TIP3    H166718   0.992   0.282  16.207 -1.4380 -0.5633  0.0605
15101TIP3    H266719   1.009   0.433  16.206  0.5444 -0.7609 -0.7661
15102TIP3   OH266720   4.186   2.378   6.100  0.2701 -0.1257 -0.4474
15102TIP3    H166721   4.279   2.401   6.100  0.5645 -1.0939 -2.4032
15102TIP3    H266722   4.170   2.345   6.188  0.9709  2.9278  0.9471
15103TIP3   OH266723   5.169   5.087   2.897  0.0946  0.4776 -0.3951
15103TIP3    H166724   5.122   5.156   2.945  1.7174  2.4508 -1.4785
15103TIP3    H266725   5.101   5.024   2.874 -1.1980  0.8461  2.0528
15104TIP3   OH266726   3.948   1.258   6.508 -0.4147 -0.7764  0.1796
15104TIP3    H166727   3.989   1.250   6.594 -1.4938 -0.8596  0.6983
15104TIP3    H266728   4.013   1.222   6.447  0.1820 -1.1249  1.0038
15105TIP3   OH266729   4.673   5.862  10.624  0.1879 -0.2027 -0.5206
15105TIP3    H166730   4.696   5.915  10.700  0.1365  0.7310 -1.1349
15105TIP3    H266731   4.739   5.885  10.558 -0.7930  0.3680 -1.3455
15106TIP3   OH266732   6.453   5.546   5.738  0.1046  0.2810 -0.0347
15106TIP3    H166733   6.444   5.553   5.643  0.1623 -0.0948 -0.0687
15106TIP3    H266734   6.430   5.455   5.758  0.4288  0.2651  0.2726
15107TIP3   OH266735   2.071   5.814   4.951 -0.1057  0.4740 -0.6408
15107TIP3    H166736   2.084   5.869   5.029  0.7502 -0.0031 -0.4387
15107TIP3    H266737   1.996   5.759   4.973 -0.2529  0.7671 -0.3988
15108TIP3   OH266738   5.013   0.960  12.369  0.0513  0.0887  0.3504
15108TIP3    H166739   4.979   0.943  12.457  1.6384 -1.8787  0.6376
15108TIP3    H266740   5.087   1.019  12.383  0.2397 -0.1408  0.3225
15109TIP3   OH266741   2.975   0.105   5.389  0.2524 -0.4832  0.5687
15109TIP3    H166742   2.903   0.061   5.345 -0.4920  0.0694  1.2214
15109TIP3    H266743   2.934   0.154   5.460  1.0844  1.0123  0.0607
15110TIP3   OH266744   2.106   6.329   0.663 -0.0853  1.1162  0.2500
15110TIP3    H166745   2.106   6.288   0.750 -3.6306 -1.1201 -0.6277
15110TIP3    H266746   2.159   6.271   0.609 -2.9886 -1.1712 -0.3810
15111TIP3   OH266747   1.417   2.469   2.389 -0.1743 -0.3071 -0.8825
15111TIP3    H166748   1.405   2.376   2.371 -0.0264 -0.5876  0.3444
15111TIP3    H266749   1.346   2.513   2.341 -1.0695 -1.1778 -0.3834
15112TIP3   OH266750   3.429   2.995  10.721 -0.7621  0.1555 -0.4603
15112TIP3    H166751   3.415   3.057  10.649 -0.6222 -0.4029 -0.9686
15112TIP3    H266752   3.491   3.040  10.779 -1.4926  0.9450 -0.2607
15113TIP3   OH266753   6.716   6.061  13.971 -0.0566  0.1801  0.3855
15113TIP3    H166754   6.649   6.111  14.017 -0.4642  1.0081 -1.0367
15113TIP3    H266755   6.745   6.120  13.900 -0.9569 -1.7461 -1.7112
15114TIP3   OH266756   3.993   2.274   6.558  0.4514 -0.3206 -0.2304
15114TIP3    H166757   4.011   2.181   6.550  2.2401  0.0815 -1.5491
15114TIP3    H266758   4.056   2.306   6.623 -0.8956 -0.1948  1.0484
15115TIP3   OH266759   4.430   5.506   0.149 -0.3559  0.0006 -0.0222
15115TIP3    H166760   4.477   5.589   0.138  0.0641 -0.3160 -0.7124
15115TIP3    H266761   4.394   5.488   0.062  0.7300 -1.2256 -0.2571
15116TIP3   OH266762   0.755   3.598   3.327 -0.2189  0.0769  0.1896
15116TIP3    H166763   0.780   3.690   3.326  0.4901 -0.0990  0.7563
15116TIP3    H266764   0.665   3.597   3.294  0.5549  0.6972 -2.1423
15117TIP3   OH266765   2.571   6.082   2.574  0.3022  0.2553  0.7086
15117TIP3    H166766   2.517   6.018   2.528 -0.6112  1.2206  0.4018
15117TIP3    H266767   2.611   6.033   2.645  0.7861 -0.9907 -0.3877
15118TIP3   OH266768   3.048   1.752   0.235 -0.0261 -0.3564  0.2456
15118TIP3    H166769   2.969   1.755   0.288 -0.3000  0.9167 -0.2161
15118TIP3    H266770   3.035   1.677   0.177 -1.5258  0.6566 -0.7860
15119TIP3   OH266771   3.910   2.003  12.806 -0.2479  0.2111 -0.6446
15119TIP3    H166772   3.903   2.019  12.900 -0.5332 -1.8964 -0.2577
15119TIP3    H266773   3.880   1.913  12.794  1.8161 -0.3319 -2.4631
15120TIP3   OH266774   0.608   5.279   2.293  0.0961  0.0827  0.2406
15120TIP3    H166775   0.602   5.332   2.214 -0.1795 -0.9886 -0.4692
15120TIP3    H266776   0.660   5.333   2.354 -0.2203  1.1759 -0.4317
15121TIP3   OH266777   3.653   0.173   2.922 -0.0897  0.3123  0.7358
15121TIP3    H166778   3.601   0.137   2.994 -0.2034 -0.4371  0.2875
15121TIP3    H266779   3.598   0.159   2.845  0.1251  0.9201  0.4691
15122TIP3   OH266780   6.637   5.087  12.265 -0.5226  0.7174 -0.6961
15122TIP3    H166781   6.703   5.147  12.298 -0.3886  0.0680  0.2833
15122TIP3    H266782   6.685   5.028  12.207 -0.6038  1.3760 -1.4462
15123TIP3   OH266783   1.018   5.943  14.368 -0.7985  0.6618  0.6529
15123TIP3    H166784   0.979   5.984  14.291 -1.7933 -0.1813  0.6908
15123TIP3    H266785   1.080   6.009  14.401 -1.2307  1.5035 -0.1686
15124TIP3   OH266786   3.930   3.975   4.121 -0.0510 -0.4682  0.1182
15124TIP3    H166787   3.867   3.934   4.062  0.2952  0.9458 -1.3082
15124TIP3    H266788   3.899   3.953   4.209 -2.2422 -0.2570 -0.5480
15125TIP3   OH266789   2.660   3.868  12.954 -0.1917  0.5410 -0.1207
15125TIP3    H166790   2.689   3.905  13.037 -3.0877 -1.4955  1.9960
15125TIP3    H266791   2.580   3.917  12.932 -0.3074  0.0303 -0.8943
15126TIP3   OH266792   0.750   0.145   2.117 -0.4000  0.4551 -0.4135
15126TIP3    H166793   0.755   0.190   2.032  1.6720  0.4248 -0.3692
15126TIP3    H266794   0.834   0.100   2.124  0.0125  1.5033  2.2217
15127TIP3   OH266795   5.850   3.970   5.469 -0.0214  0.0731  0.2313
15127TIP3    H166796   5.822   3.895   5.522  0.7865  0.5220  1.3268
15127TIP3    H266797   5.778   4.033   5.478  0.9436  0.9581  2.4985
15128TIP3   OH266798   5.766   1.781   1.642  0.6861 -0.5681 -0.4573
15128TIP3    H166799   5.820   1.857   1.666 -1.2125  0.8005 -0.3461
15128TIP3    H266800   5.699   1.816   1.583 -1.2190 -1.7941  0.8666
15129TIP3   OH266801   4.767   1.149  16.336  0.1896  0.3140 -0.4232
15129TIP3    H166802   4.711   1.085  16.381  2.4462 -1.3149  0.2495
15129TIP3    H266803   4.832   1.174  16.402 -0.1435  2.7324 -0.9338
15130TIP3   OH266804   5.335   1.432   0.769  0.1715  0.7490  0.1070
15130TIP3    H166805   5.411   1.389   0.808  1.9255  0.4719 -3.1967
15130TIP3    H266806   5.280   1.361   0.737  0.5462  0.9016 -0.9361
15131TIP3   OH266807   4.068   1.836   6.047 -0.4061  0.5106  0.6548
15131TIP3    H166808   3.997   1.831   5.982 -1.9952 -0.9041  2.3923
15131TIP3    H266809   4.023   1.833   6.131  1.6768  1.1116  1.8519
15132TIP3   OH266810   1.939   6.212  12.135  0.1310 -0.2159  0.3581
15132TIP3    H166811   1.850   6.238  12.159 -0.2398 -0.6275 -0.5175
15132TIP3    H266812   1.983   6.196  12.219 -0.4790  0.4432  0.8123
15133TIP3   OH266813   1.436   4.373  16.397 -0.1915 -0.5364  0.2675
15133TIP3    H166814   1.490   4.385  16.475  2.1428 -2.5310 -0.8884
15133TIP3    H266815   1.393   4.288  16.410 -0.8551 -0.2598 -0.0597
15134TIP3   OH266816   1.051   3.006  11.597  0.3457 -0.0947  0.5314
15134TIP3    H166817   0.959   2.997  11.572  0.3618  1.1958 -0.1015
15134TIP3    H266818   1.098   2.950  11.535  0.0964  0.4533 -0.1749
15135TIP3   OH266819   3.891   4.790   2.020  0.4235 -0.0527 -0.0125
15135TIP3    H166820   3.909   4.770   2.112 -2.1315 -0.4795  0.4649
15135TIP3    H266821   3.958   4.855   1.996  1.1477  0.0700  2.1356
15136TIP3   OH266822   2.036   2.779  12.402  0.0908 -0.1228  0.6557
15136TIP3    H166823   2.096   2.730  12.345 -1.9796  0.5854 -2.4189
15136TIP3    H266824   2.069   2.868  12.400  0.9713 -0.4060  2.0121
15137TIP3   OH266825   5.452   5.998   4.113  0.3302 -0.1736 -0.1912
15137TIP3    H166826   5.409   6.083   4.106 -1.2439 -1.0802 -3.0848
15137TIP3    H266827   5.545   6.017   4.097 -0.2005  0.8926 -2.4011
15138TIP3   OH266828   4.576   0.777   0.932  0.3203 -0.2169  0.6656
15138TIP3    H166829   4.609   0.784   0.843 -0.7175 -2.3537  0.0646
15138TIP3    H266830   4.655   0.776   0.987  0.9922  0.3840 -0.2615
15139TIP3   OH266831   1.166   5.647  11.671 -0.1988 -0.4400 -0.6662
15139TIP3    H166832   1.103   5.607  11.732 -0.6563 -2.0398 -2.0880
15139TIP3    H266833   1.124   5.639  11.586  1.7383 -1.1238 -1.6086
15140TIP3   OH266834   6.125   0.768   0.828  0.3881  0.2169 -1.2233
15140TIP3    H166835   6.087   0.836   0.773 -0.5668 -1.4281 -2.7269
15140TIP3    H266836   6.219   0.781   0.820  0.2882  3.0964  0.8917
15141TIP3   OH266837   3.786   5.753  13.161  0.7291 -0.3328  0.7847
15141TIP3    H166838   3.831   5.709  13.233  1.2121 -1.4647 -0.1717
15141TIP3    H266839   3.807   5.701  13.083 -1.1680 -0.1648  0.0810
15142TIP3   OH266840   0.044   4.958   0.481  0.0701 -0.3677  0.5264
15142TIP3    H166841   0.103   4.911   0.423 -0.9487 -0.4462 -0.4734
15142TIP3    H266842   0.101   5.014   0.534  1.1450 -1.4913  0.5890
15143TIP3   OH266843   2.002   0.643  11.826 -0.0322 -0.3160 -0.0610
15143TIP3    H166844   2.053   0.676  11.753 -1.6389 -0.8087 -1.4726
15143TIP3    H266845   2.060   0.581  11.871  0.8968 -0.1838 -1.0524
15144TIP3   OH266846   1.448   3.086   1.296  0.4530 -0.4213 -0.1090
15144TIP3    H166847   1.425   2.998   1.327  1.5171 -1.0823 -1.1121
15144TIP3    H266848   1.464   3.136   1.376  0.2209 -1.2474  0.4690
15145TIP3   OH266849   3.810   3.322  17.205  0.0959 -0.1643 -0.0015
15145TIP3    H166850   3.844   3.334  17.116 -0.6983 -0.7278 -0.3939
15145TIP3    H266851   3.885   3.291  17.256  0.2898 -0.9808 -0.7542
15146TIP3   OH266852   2.719   2.356  16.462 -0.0351 -0.2687  0.3954
15146TIP3    H166853   2.649   2.296  16.436  1.0297 -1.0649 -0.7681
15146TIP3    H266854   2.678   2.443  16.461 -1.0041 -0.7092 -0.3008
15147TIP3   OH266855   2.761   0.915   0.389  0.5103  0.2106 -0.2061
15147TIP3    H166856   2.679   0.961   0.406  1.1682  1.4474 -0.2852
15147TIP3    H266857   2.804   0.910   0.475 -1.1730 -3.6694  0.6408
15148TIP3   OH266858   6.251   2.075   2.335 -0.1311 -0.0631  0.3054
15148TIP3    H166859   6.238   2.116   2.421 -0.9552  1.0612 -0.3243
15148TIP3    H266860   6.317   2.007   2.350 -0.0653  0.2940  1.7654
15149TIP3   OH266861   3.034   0.118   3.887 -0.2597 -0.1113  0.4821
15149TIP3    H166862   2.948   0.135   3.850 -0.8423  0.9805  2.2185
15149TIP3    H266863   3.090   0.101   3.811 -1.7314  0.3395 -0.7518
15150TIP3   OH266864   0.354   0.874   5.568 -0.1458 -0.3485  0.0560
15150TIP3    H166865   0.371   0.780   5.568  0.0419 -0.3320 -0.8710
15150TIP3    H266866   0.354   0.898   5.475  0.4215  0.6730  0.2968
15151TIP3   OH266867   5.765   5.605  14.857 -0.4591  0.3481  1.0020
15151TIP3    H166868   5.725   5.535  14.804  1.5162 -0.0027 -0.1337
15151TIP3    H266869   5.790   5.562  14.939  0.2786 -0.1973  0.5114
15152TIP3   OH266870   3.099   2.331   2.181 -0.1456  0.1305 -0.1459
15152TIP3    H166871   3.184   2.315   2.139  0.3784 -0.6087  1.1248
15152TIP3    H266872   3.120   2.348   2.273 -1.2080  2.3518 -0.2560
15153TIP3   OH266873   5.806   1.507   5.704 -0.0070 -0.1260 -0.2458
15153TIP3    H166874   5.876   1.555   5.749  0.8594 -0.2667 -1.4054
15153TIP3    H266875   5.754   1.574   5.661  1.2809 -0.1777 -1.9756
15154TIP3   OH266876   2.461   0.795   4.416  0.0436  0.2071 -0.0792
15154TIP3    H166877   2.479   0.716   4.365 -0.9756  0.6472 -1.1812
15154TIP3    H266878   2.481   0.771   4.506  2.6290 -0.3822 -0.7348
15155TIP3   OH266879   5.922   3.318   2.022  0.0429 -0.3882 -0.1010
15155TIP3    H166880   5.873   3.237   2.034  0.8578 -0.7956  0.5868
15155TIP3    H266881   5.916   3.362   2.107  0.9219 -0.4736  0.0055
15156TIP3   OH266882   5.339   1.930  12.402  0.3484 -0.1665 -0.5668
15156TIP3    H166883   5.428   1.949  12.429 -0.5525  2.2299  1.0631
15156TIP3    H266884   5.295   2.015  12.404 -1.5411 -0.9539 -3.1269
15157TIP3   OH266885   4.067   4.873  16.584 -0.5268 -0.2887 -0.4619
15157TIP3    H166886   4.015   4.866  16.504 -1.3929 -2.1021  0.2058
15157TIP3    H266887   4.155   4.849  16.558 -0.6599 -0.2217 -0.9928
15158TIP3   OH266888   5.673   3.248   3.962 -0.1373  0.4431 -0.3325
15158TIP3    H166889   5.614   3.240   3.888 -0.8720  0.3552  0.2484
15158TIP3    H266890   5.632   3.196   4.031  1.5378 -1.1814 -0.4631
15159TIP3   OH266891   1.285   6.741  11.144  0.5255 -0.6931  0.3737
15159TIP3    H166892   1.265   6.708  11.232  3.1909 -0.0904  1.3267
15159TIP3    H266893   1.378   6.720  11.132  1.1888  2.3680 -0.7790
15160TIP3   OH266894   5.992   5.162   0.897  0.4741  0.4641  0.0825
15160TIP3    H166895   5.999   5.250   0.932 -0.2864  0.7507 -0.4585
15160TIP3    H266896   5.936   5.115   0.961 -1.6556  1.2283 -1.1080
15161TIP3   OH266897   2.353   6.087   3.455 -0.0112  0.0594  0.6287
15161TIP3    H166898   2.259   6.070   3.459  0.1558 -0.9278  0.7066
15161TIP3    H266899   2.392   6.022   3.514  0.7435  0.2348  0.3445
15162TIP3   OH266900   6.399   3.380  16.169  0.1864  0.1112  0.1376
15162TIP3    H166901   6.476   3.350  16.218  0.4366  0.1358 -0.2358
15162TIP3    H266902   6.334   3.401  16.236  1.3253  2.4600  0.5843
15163TIP3   OH266903   3.337   0.999   0.087 -0.0145 -0.3104 -0.4317
15163TIP3    H166904   3.356   1.035   0.000  0.5607 -1.9341 -1.0250
15163TIP3    H266905   3.290   1.069   0.132  3.3447  2.2576 -0.4973
15164TIP3   OH266906   4.151   5.197   1.601 -0.4726 -0.1694 -0.5556
15164TIP3    H166907   4.207   5.224   1.673  0.5380  1.0308 -1.7253
15164TIP3    H266908   4.161   5.102   1.596 -0.8295 -0.3050  1.0751
15165TIP3   OH266909   3.914   2.296   4.720 -0.1379 -0.3592 -0.7503
15165TIP3    H166910   3.874   2.241   4.653  1.8349 -1.9711 -0.6904
15165TIP3    H266911   3.951   2.234   4.783  2.1253  0.9974 -0.6422
15166TIP3   OH266912   4.953   5.630  12.626  0.4705 -0.5266 -0.0479
15166TIP3    H166913   5.003   5.552  12.603  0.4293 -0.2850 -1.0196
15166TIP3    H266914   5.019   5.699  12.635  0.2832  0.1465 -2.8300
15167TIP3   OH266915   2.027   0.291   2.148 -0.4926  0.0096 -0.2660
15167TIP3    H166916   2.119   0.271   2.168 -0.7323 -1.7089 -0.7593
15167TIP3    H266917   2.010   0.246   2.065 -1.9081 -0.0733  0.0451
15168TIP3   OH266918   1.819   0.709   2.600 -0.0404  0.0480 -0.1959
15168TIP3    H166919   1.731   0.742   2.580 -1.4751 -1.9674  2.2991
15168TIP3    H266920   1.845   0.757   2.678  1.5667  1.3243 -1.4596
15169TIP3   OH266921   0.442   1.458   1.236  0.8795  0.3120 -0.4495
15169TIP3    H166922   0.353   1.492   1.232  0.5336 -0.6511 -2.1783
15169TIP3    H266923   0.432   1.364   1.248  1.7801  0.5257  2.7336
15170TIP3   OH266924   6.542   0.823  15.624  0.1522  0.2417 -0.0868
15170TIP3    H166925   6.489   0.744  15.621 -0.1565  0.4042  0.6991
15170TIP3    H266926   6.612   0.808  15.560 -0.4665 -0.2446 -0.6622
15171TIP3   OH266927   6.732   1.441  11.957 -0.7035  0.6079 -0.2005
15171TIP3    H166928   6.789   1.460  12.031 -1.8105  0.0897  0.8266
15171TIP3    H266929   6.791   1.412  11.887  0.2054 -1.3474  1.2807
15172TIP3   OH266930   5.657   2.245   3.090  0.0364  0.2207  0.0072
15172TIP3    H166931   5.751   2.244   3.074  0.1749 -0.9515  0.7525
15172TIP3    H266932   5.648   2.284   3.178 -0.1191 -0.3108  0.2276
15173TIP3   OH266933   0.281   3.420  17.089  0.4217  0.3136  0.1014
15173TIP3    H166934   0.303   3.349  17.149 -0.1514 -0.4905 -0.6354
15173TIP3    H266935   0.363   3.469  17.080  1.2440 -1.1105 -0.5335
15174TIP3   OH266936   1.187   6.453  11.096 -0.3847 -0.6127  0.4044
15174TIP3    H166937   1.209   6.364  11.071 -0.1035 -0.7635  1.1539
15174TIP3    H266938   1.136   6.443  11.177 -0.1086 -0.0807  0.6492
15175TIP3   OH266939   5.165   1.555  17.105  0.2973 -0.0367  0.0843
15175TIP3    H166940   5.157   1.488  17.173  2.4926 -0.5571 -0.0918
15175TIP3    H266941   5.114   1.521  17.031  0.4021 -0.9376  0.4187
15176TIP3   OH266942   2.103   5.413  12.356 -0.0449 -0.7696 -0.3325
15176TIP3    H166943   2.113   5.333  12.408  0.3251 -0.4797  0.0554
15176TIP3    H266944   2.156   5.398  12.278 -2.0318 -1.9386 -1.5454
15177TIP3   OH266945   3.725   3.655   4.063 -0.0759  0.0731 -0.2400
15177TIP3    H166946   3.754   3.729   4.009  0.7403 -0.2410 -0.2561
15177TIP3    H266947   3.688   3.696   4.141 -2.6312  0.5914 -1.6221
15178TIP3   OH266948   2.346   0.592  11.143  0.4285 -0.4523  0.8023
15178TIP3    H166949   2.262   0.548  11.129  0.4062 -0.0518 -0.5295
15178TIP3    H266950   2.401   0.560  11.071  1.0649  0.1106  1.0309
15179TIP3   OH266951   2.982   4.250   5.471 -0.0192 -0.7443  0.2963
15179TIP3    H166952   2.962   4.177   5.412  1.7370  0.0433 -1.3616
15179TIP3    H266953   2.931   4.323   5.436  1.0083 -0.2778 -0.2460
15180TIP3   OH266954   1.700   2.875  17.036  0.0590  0.2783 -0.0095
15180TIP3    H166955   1.702   2.970  17.049 -0.5024  0.2791  0.0842
15180TIP3    H266956   1.630   2.861  16.973 -1.1994 -0.2358  1.4513
15181TIP3   OH266957   4.827   0.638   5.508  0.1766  0.2805  0.4831
15181TIP3    H166958   4.805   0.615   5.599 -0.3421  1.8745  0.8072
15181TIP3    H266959   4.771   0.582   5.455 -0.1459 -0.0715  1.1712
15182TIP3   OH266960   0.433   3.707  16.528  0.1840 -0.0467 -0.6381
15182TIP3    H166961   0.383   3.711  16.447 -0.4091  0.6560 -0.2499
15182TIP3    H266962   0.503   3.773  16.517  2.9645 -3.0130 -2.3914
15183TIP3   OH266963   2.584   4.096  13.514  0.2195  0.0574  0.1048
15183TIP3    H166964   2.604   4.004  13.497 -2.2901 -0.4526 -0.4371
15183TIP3    H266965   2.496   4.109  13.479  0.8848  2.9682 -0.7878
15184TIP3   OH266966   0.950   1.392   3.638  0.8082 -0.1049  0.0173
15184TIP3    H166967   0.855   1.385   3.625  0.8092 -1.0686  0.4782
15184TIP3    H266968   0.963   1.482   3.669 -0.0183 -0.1369  0.4930
15185TIP3   OH266969   2.495   0.519  11.360  0.0899  0.7884  0.6510
15185TIP3    H166970   2.446   0.521  11.278  1.1167  0.5072  0.0115
15185TIP3    H266971   2.433   0.550  11.426 -0.8287  0.7735 -0.1859
15186TIP3   OH266972   1.115   3.819   1.395  0.0187 -0.9105  0.3546
15186TIP3    H166973   1.098   3.725   1.390  1.3736 -1.1601  0.1751
15186TIP3    H266974   1.179   3.836   1.326 -1.1388  0.3851 -0.4518
15187TIP3   OH266975   2.947   1.623  16.933  0.3058 -0.0520 -0.3488
15187TIP3    H166976   2.948   1.639  16.839  0.9194  0.8073 -0.1985
15187TIP3    H266977   2.942   1.709  16.973  0.1075 -0.4054  0.4169
15188TIP3   OH266978   6.446   5.718  12.750 -0.2772  0.5223  0.1291
15188TIP3    H166979   6.406   5.792  12.704 -0.3478 -0.6013 -1.7246
15188TIP3    H266980   6.387   5.700  12.823 -2.0760  0.2312 -1.3240
15189TIP3   OH266981   6.293   1.657   2.040  0.3111 -0.2857  0.1464
15189TIP3    H166982   6.263   1.667   2.131 -1.7102 -0.2144 -0.4678
15189TIP3    H266983   6.317   1.565   2.034  1.3592 -0.0849  0.9868
15190TIP3   OH266984   1.361   5.847  12.514  0.1127  0.4232  0.4028
15190TIP3    H166985   1.323   5.842  12.427  2.0230 -1.3258 -0.4270
15190TIP3    H266986   1.436   5.905  12.504  0.1809  0.4319  0.9512
15191TIP3   OH266987   5.134   1.582  16.820  0.1224 -0.2267 -0.4048
15191TIP3    H166988   5.178   1.656  16.863  0.2622 -1.3530  1.4784
15191TIP3    H266989   5.112   1.615  16.732 -0.5005  2.2905  0.6207
15192TIP3   OH266990   4.975   6.305   6.502  0.4763 -0.0026 -1.0145
15192TIP3    H166991   5.011   6.393   6.508 -0.8401  0.6505 -2.1815
15192TIP3    H266992   4.882   6.315   6.521  0.0241 -0.8867 -2.5477
15193TIP3   OH266993   0.396   1.830   2.805  0.2490  0.2119  0.0488
15193TIP3    H166994   0.392   1.742   2.843 -1.4818 -0.2625 -1.0477
15193TIP3    H266995   0.351   1.886   2.868 -1.6276 -0.3636 -0.6972
15194TIP3   OH266996   1.183   0.003  11.844 -0.3556 -0.2226 -0.2119
15194TIP3    H166997   1.188  -0.037  11.757  1.1701 -0.0228 -0.2370
15194TIP3    H266998   1.098  -0.026  11.878 -0.4971 -1.2158 -1.3242
15195TIP3   OH266999   3.040   1.523  13.803  0.2799 -0.1357 -0.1940
15195TIP3    H167000   3.009   1.487  13.886 -1.8304  1.2184 -0.3385
15195TIP3    H267001   2.975   1.588  13.778  1.8142  0.8205 -2.0147
15196TIP3   OH267002   3.343   5.183   3.339 -0.5101 -0.7113  0.2466
15196TIP3    H167003   3.313   5.244   3.407 -2.4839 -0.6836 -0.5831
15196TIP3    H267004   3.306   5.098   3.366 -0.8874 -0.7934 -0.5088
15197TIP3   OH267005   2.359   3.343  14.136 -0.3790 -0.1044  0.1988
15197TIP3    H167006   2.417   3.419  14.134 -1.1270  0.6778  3.3361
15197TIP3    H267007   2.405   3.276  14.085  1.3888  1.7085 -0.7066
15198TIP3   OH267008   5.748   4.245   3.950 -0.1628 -0.8781  0.2530
15198TIP3    H167009   5.804   4.317   3.978 -0.1851 -0.9210  0.4068
15198TIP3    H267010   5.807   4.186   3.904 -0.4310  0.0246 -1.3245
15199TIP3   OH267011   0.893   0.704  14.777 -0.3253  0.7263 -0.2213
15199TIP3    H167012   0.820   0.757  14.745 -1.4552  0.4992  1.8410
15199TIP3    H267013   0.854   0.620  14.801  1.3444 -1.0036 -2.9205
15200TIP3   OH267014   2.973   4.421  13.530 -0.3381 -0.6789  0.1897
15200TIP3    H167015   2.890   4.373  13.532 -0.7082 -0.0484  0.3284
15200TIP3    H267016   3.001   4.417  13.439 -0.2500 -1.3539  0.2461
15201TIP3   OH267017   5.817   0.459   4.744 -0.5733  0.0899 -0.1318
15201TIP3    H167018   5.848   0.524   4.808  0.7667 -0.7540  0.1191
15201TIP3    H267019   5.739   0.421   4.784 -0.1038  0.0017  0.7233
15202TIP3   OH267020   3.664   5.275   4.762  0.3161  0.3125  0.1327
15202TIP3    H167021   3.611   5.286   4.683  0.5984 -0.1051 -0.1243
15202TIP3    H267022   3.619   5.207   4.812  0.0739  0.6592  0.3915
15203TIP3   OH267023   2.238   4.787  16.212  0.2990 -0.0264  0.1658
15203TIP3    H167024   2.331   4.782  16.195  0.3876  0.6244  0.4186
15203TIP3    H267025   2.223   4.878  16.239 -0.1811 -0.4338  1.3711
15204TIP3   OH267026   3.886   0.220  11.655 -0.0366  0.4520  0.2562
15204TIP3    H167027   3.878   0.124  11.658  0.7336  0.4019  2.4796
15204TIP3    H267028   3.816   0.251  11.712  0.3680  1.1434  0.3866
15205TIP3   OH267029   6.077   1.241   0.562  0.0400  0.9555  0.1002
15205TIP3    H167030   6.164   1.267   0.593 -0.1247  0.5175  0.9618
15205TIP3    H267031   6.092   1.209   0.473  0.8453  0.4545  0.4034
15206TIP3   OH267032   0.542   1.009  16.435  0.3632  0.2114  0.4215
15206TIP3    H167033   0.620   0.959  16.411  0.3972  0.7297 -0.6438
15206TIP3    H267034   0.489   0.948  16.486  1.3120 -0.2497  0.8916
15207TIP3   OH267035   0.236   1.001  16.899 -0.4521  0.1587 -0.5483
15207TIP3    H167036   0.330   0.986  16.909 -0.8183 -0.8102  2.5861
15207TIP3    H267037   0.198   0.975  16.983 -3.9164 -2.1295 -2.5580
15208TIP3   OH267038   0.982   4.924  13.160 -0.2566  0.4719 -0.7123
15208TIP3    H167039   0.890   4.946  13.180 -0.7282 -1.7050 -0.2522
15208TIP3    H267040   1.010   4.869  13.233  1.5373  1.3026 -0.7260
15209TIP3   OH267041   4.435   2.246   5.446 -0.4119  0.2012  0.7788
15209TIP3    H167042   4.453   2.249   5.540 -1.1103  1.5701  0.8870
15209TIP3    H267043   4.392   2.161   5.433  0.9009 -0.6181  1.4387
15210TIP3   OH267044   4.600   3.627  12.234 -0.0559 -0.0496  0.3231
15210TIP3    H167045   4.557   3.551  12.196  0.0178 -0.1906  0.5247
15210TIP3    H267046   4.581   3.698  12.173  0.1555 -0.2996 -0.0368
15211TIP3   OH267047   0.555   2.128  11.040  0.6324 -0.1859 -0.0278
15211TIP3    H167048   0.476   2.085  11.075  1.2400 -0.9535  0.4199
15211TIP3    H267049   0.590   2.066  10.976  1.3285 -0.2126  0.3728
15212TIP3   OH267050   5.091   2.816   2.663 -0.5302 -0.4881 -0.0819
15212TIP3    H167051   5.038   2.868   2.724 -1.1905 -0.4641 -0.6697
15212TIP3    H267052   5.162   2.874   2.638 -0.2693 -0.4837  0.6370
15213TIP3   OH267053   5.616   4.902   0.292 -0.5675  0.5328  0.1012
15213TIP3    H167054   5.550   4.935   0.353  0.1619  0.3432  0.9967
15213TIP3    H267055   5.633   4.977   0.234 -1.7415  0.5060 -0.3109
15214TIP3   OH267056   2.035   4.145   5.373  0.4200 -0.9114  0.2673
15214TIP3    H167057   1.977   4.143   5.297 -0.0628 -1.1949  0.6405
15214TIP3    H267058   2.122   4.165   5.337  0.4023 -2.1261 -0.4846
15215TIP3   OH267059   1.660   6.638   4.691 -0.1347  0.4909  0.0544
15215TIP3    H167060   1.606   6.684   4.755 -1.3212 -0.0850 -0.4983
15215TIP3    H267061   1.637   6.546   4.701 -0.1251  0.3599 -0.9811
15216TIP3   OH267062   1.361   0.092   4.361  0.0559 -0.0840 -0.0530
15216TIP3    H167063   1.297   0.022   4.353  0.8231 -0.8493  0.2807
15216TIP3    H267064   1.437   0.061   4.311  0.1432  0.8479 -0.5405
15217TIP3   OH267065   5.821   1.654   3.768  0.0147 -0.5212 -0.1321
15217TIP3    H167066   5.740   1.607   3.788 -0.8631 -0.0502 -2.2916
15217TIP3    H267067   5.874   1.592   3.718  0.4822 -0.4389  0.2498
15218TIP3   OH267068   5.651   6.029   1.984  0.0555  0.4616  0.1860
15218TIP3    H167069   5.657   5.937   2.010 -0.0714  0.8659  1.6988
15218TIP3    H267070   5.721   6.040   1.920  1.6537 -0.1266  1.7653
15219TIP3   OH267071   4.082   1.008   4.605  0.2119  0.3726  0.3292
15219TIP3    H167072   4.071   0.998   4.700  1.7645 -2.5277  0.3098
15219TIP3    H267073   4.018   0.948   4.567  0.1684  0.8981 -0.4481
15220TIP3   OH267074   3.523   6.574  12.042  0.0237 -0.3976  0.5197
15220TIP3    H167075   3.611   6.551  12.070  0.5249  1.2857  0.4386
15220TIP3    H267076   3.536   6.631  11.967 -1.2245 -2.1845 -1.1350
15221TIP3   OH267077   0.129   3.898   1.355 -0.1110  0.0708 -0.0301
15221TIP3    H167078   0.063   3.916   1.422  0.0937 -1.4148  0.6012
15221TIP3    H267079   0.103   3.953   1.281 -1.0985  0.7480  0.7942
15222TIP3   OH267080   0.599   1.268   4.431  0.0328 -0.0002  0.4685
15222TIP3    H167081   0.509   1.268   4.397  0.5779 -0.8272 -1.0612
15222TIP3    H267082   0.654   1.252   4.354  1.4693 -0.0757  1.4660
15223TIP3   OH267083   4.265   4.100  14.595 -0.1250  1.1268 -0.0871
15223TIP3    H167084   4.251   4.047  14.673  1.5962 -0.9652 -1.0663
15223TIP3    H267085   4.356   4.128  14.602  0.1277  0.7127 -1.4003
15224TIP3   OH267086   6.472   2.300   0.006 -0.0438  0.0166 -0.4129
15224TIP3    H167087   6.519   2.229  -0.038  0.1523  0.6769 -1.2805
15224TIP3    H267088   6.539   2.367   0.021 -0.3815  0.3220 -0.2484
15225TIP3   OH267089   6.526   6.490  15.346 -0.3441  0.5002  0.6603
15225TIP3    H167090   6.580   6.559  15.308  0.5879 -0.4080  0.2813
15225TIP3    H267091   6.569   6.469  15.429 -1.7495  1.7154  1.7496
15226TIP3   OH267092   0.054   2.108  12.492 -0.3146 -0.2895  0.0577
15226TIP3    H167093   0.135   2.064  12.521  0.3051  1.3401  0.9248
15226TIP3    H267094  -0.015   2.067  12.544  0.1623 -0.6683  0.3991
15227TIP3   OH267095   4.194   1.388  14.085  0.7473  0.2758 -0.5769
15227TIP3    H167096   4.254   1.315  14.070 -0.4984 -0.6589 -1.1874
15227TIP3    H267097   4.138   1.359  14.157  1.0904  1.1927  0.0777
15228TIP3   OH267098   1.310   0.267  17.040  0.9188 -0.2031  0.2318
15228TIP3    H167099   1.218   0.280  17.020  1.0903  0.2581 -0.3098
15228TIP3    H267100   1.315   0.267  17.135  0.1453 -1.8468  0.2972
15229TIP3   OH267101   0.313   4.586   0.576 -0.3582  0.3105  0.2973
15229TIP3    H167102   0.240   4.624   0.625 -1.0362 -2.7041  1.9082
15229TIP3    H267103   0.392   4.619   0.620 -0.8298  1.3020  0.4112
15230TIP3   OH267104   0.863   2.596  14.949  0.0397  0.1866  0.9480
15230TIP3    H167105   0.809   2.525  14.915  1.0898  0.0062 -0.4343
15230TIP3    H267106   0.953   2.564  14.942  0.4633  1.2455  1.3055
15231TIP3   OH267107   3.547   0.753  13.702 -0.4703  0.3274 -0.0053
15231TIP3    H167108   3.453   0.756  13.721 -0.3728  0.2402  0.4996
15231TIP3    H267109   3.573   0.845  13.698 -0.7027  0.3704 -0.8185
15232TIP3   OH267110   0.401   5.736  16.765 -0.3098 -0.7557  0.1160
15232TIP3    H167111   0.496   5.739  16.751 -0.1508 -3.0889  0.3341
15232TIP3    H267112   0.373   5.828  16.760  2.1622  0.1642  1.6780
15233TIP3   OH267113   3.424   0.534   0.194 -0.6992  0.0107  0.6844
15233TIP3    H167114   3.504   0.489   0.222 -0.1166  0.4223 -0.2731
15233TIP3    H267115   3.429   0.620   0.236 -1.0070 -0.2233  1.2084
15234TIP3   OH267116   1.726   5.094   1.129 -0.5491 -0.2303 -0.4154
15234TIP3    H167117   1.655   5.149   1.097 -0.2957  1.3503  1.4965
15234TIP3    H267118   1.707   5.085   1.223  0.6256 -1.5780 -0.2882
15235TIP3   OH267119   6.044   4.557   6.301  0.4346 -0.1145 -0.0638
15235TIP3    H167120   6.067   4.650   6.306 -0.4410  0.0977  0.1727
15235TIP3    H267121   5.949   4.556   6.293  0.5027 -0.9763 -0.8973
15236TIP3   OH267122   4.959   5.836   0.223  0.0033  0.0797 -0.1673
15236TIP3    H167123   4.944   5.845   0.317  1.1239  0.2707  0.0114
15236TIP3    H267124   4.892   5.892   0.183 -0.0806  0.5125  0.5428
15237TIP3   OH267125   6.137   3.878   5.777  0.0018  0.0759 -0.1872
15237TIP3    H167126   6.176   3.814   5.836 -0.0625  0.0999 -0.1186
15237TIP3    H267127   6.045   3.881   5.802  0.3450  1.5004  1.0133
15238TIP3   OH267128   3.311   0.231   1.930 -0.0616 -0.0122  0.0412
15238TIP3    H167129   3.231   0.265   1.971  0.4556 -0.8453  1.8292
15238TIP3    H267130   3.315   0.139   1.957 -0.8872 -1.3838 -3.8480
15239TIP3   OH267131   4.432   5.810   0.830 -0.0046  0.4085 -0.9310
15239TIP3    H167132   4.466   5.889   0.789 -2.0486  0.7200 -2.1658
15239TIP3    H267133   4.340   5.829   0.847 -0.5353 -1.6386 -1.1890
15240TIP3   OH267134   4.723   0.526   2.862 -0.0877  0.1892 -0.3603
15240TIP3    H167135   4.637   0.567   2.861 -0.4376 -0.2036  2.9212
15240TIP3    H267136   4.777   0.583   2.916  1.5539  0.0427 -1.7503
15241TIP3   OH267137   5.822   6.579  15.614 -0.0732 -0.0225 -0.0481
15241TIP3    H167138   5.917   6.591  15.605 -0.0368 -0.1060  0.2185
15241TIP3    H267139   5.811   6.485  15.623 -0.0813  0.0723  1.0443
15242TIP3   OH267140   0.518   0.388   2.044 -0.1808  0.1189 -0.0316
15242TIP3    H167141   0.530   0.323   2.113  0.8356  0.4203  0.0939
15242TIP3    H267142   0.485   0.466   2.089  0.2045  0.2234  0.0690
15243TIP3   OH267143   2.114   3.394   1.314 -0.6845  0.1119 -0.2857
15243TIP3    H167144   2.107   3.424   1.223  0.5917  2.4168  0.2701
15243TIP3    H267145   2.176   3.321   1.311  0.6744  1.2414 -1.1271
15244TIP3   OH267146   0.845   3.438  11.994  0.2357 -0.1075 -0.2214
15244TIP3    H167147   0.830   3.346  11.974  2.2739 -0.5254 -0.1180
15244TIP3    H267148   0.816   3.449  12.085  0.1761 -0.7032 -0.1688
15245TIP3   OH267149   6.160   1.815  15.349  0.2633  0.0615  0.2362
15245TIP3    H167150   6.188   1.730  15.383  0.0809 -0.2833 -0.4440
15245TIP3    H267151   6.079   1.834  15.397  0.5788  0.0921  0.7553
15246TIP3   OH267152   3.345   4.471   6.540  0.4270 -0.4297  0.5780
15246TIP3    H167153   3.300   4.387   6.548  0.8564 -0.5861  1.4282
15246TIP3    H267154   3.409   4.471   6.611 -1.0968  1.5639  2.0867
15247TIP3   OH267155   5.780   4.401   5.067  0.2168 -0.4768 -0.4405
15247TIP3    H167156   5.728   4.452   5.005 -0.9707  0.3647  1.1658
15247TIP3    H267157   5.794   4.317   5.024 -1.3977 -0.2623 -1.4507
15248TIP3   OH267158   1.199   2.839  11.430  0.3076  0.2381  0.1089
15248TIP3    H167159   1.203   2.744  11.443  1.9081  0.1365 -0.7994
15248TIP3    H267160   1.289   2.864  11.407  0.0671  2.0857  0.9769
15249TIP3   OH267161   4.543   1.202   5.926  0.6530  0.3938 -0.1080
15249TIP3    H167162   4.462   1.207   5.975 -0.4060 -1.1065 -1.5988
15249TIP3    H267163   4.526   1.250   5.845  0.8556 -0.7685 -0.8784
15250TIP3   OH267164   5.175   2.613   6.341  0.0559 -0.4862 -0.9566
15250TIP3    H167165   5.084   2.584   6.343 -0.0837 -0.0522 -0.6007
15250TIP3    H267166   5.174   2.697   6.388  0.6333 -0.4658 -0.9706
15251TIP3   OH267167   0.367   4.347  12.928  0.3885  0.2552 -0.1380
15251TIP3    H167168   0.284   4.316  12.962 -0.9569  2.3313 -1.3232
15251TIP3    H267169   0.365   4.323  12.835  1.8389 -0.9958  0.0936
15252TIP3   OH267170   2.704   6.740   4.557  0.1320 -0.1535 -0.0878
15252TIP3    H167171   2.799   6.746   4.545  0.1244  1.8277  0.5073
15252TIP3    H267172   2.692   6.673   4.624  1.2009  0.3871  0.6672
15253TIP3   OH267173   2.226   0.772  14.603  0.6501  0.3779 -0.3846
15253TIP3    H167174   2.165   0.840  14.575 -0.1053 -0.7749 -1.6731
15253TIP3    H267175   2.188   0.691  14.571  1.4528 -0.6948  1.2358
15254TIP3   OH267176   3.743   0.624  15.469 -0.2714  0.5910  0.5629
15254TIP3    H167177   3.713   0.547  15.420  0.7815  0.0011  0.8242
15254TIP3    H267178   3.742   0.695  15.405  0.1191  0.0478 -0.0522
15255TIP3   OH267179   6.306   3.824  14.582 -0.3770 -0.8150 -0.2728
15255TIP3    H167180   6.376   3.759  14.569  0.2907 -0.0136 -0.7381
15255TIP3    H267181   6.323   3.891  14.516 -1.0506 -0.1461  0.2235
15256TIP3   OH267182   3.862   3.637  11.462  0.5106  0.5065 -0.1857
15256TIP3    H167183   3.792   3.595  11.511  0.4311 -0.0284 -0.7423
15256TIP3    H267184   3.825   3.651  11.374  1.7909 -1.8353 -1.1831
15257TIP3   OH267185   0.492   2.492  13.541 -0.2572 -0.4208 -0.1804
15257TIP3    H167186   0.571   2.462  13.496  0.9983  1.3476  0.7585
15257TIP3    H267187   0.454   2.557  13.482 -0.0334  0.0073  0.1409
15258TIP3   OH267188   6.281   5.586  14.433  0.1433 -0.5999  0.1898
15258TIP3    H167189   6.204   5.572  14.488 -1.2228  0.5153 -1.3145
15258TIP3    H267190   6.327   5.502  14.433 -1.1140 -1.3228  1.0638
15259TIP3   OH267191   5.807   5.482  16.404 -0.2983  0.0203  0.2665
15259TIP3    H167192   5.787   5.547  16.472 -2.2059 -0.8633  0.6362
15259TIP3    H267193   5.721   5.457  16.369  0.5001 -1.1205 -0.9870
15260TIP3   OH267194   5.723   0.092  12.621  0.4554 -0.6110  0.4480
15260TIP3    H167195   5.693   0.128  12.704 -0.4877 -1.0553  0.3147
15260TIP3    H267196   5.649   0.103  12.562  2.0344  2.4071 -1.2403
15261TIP3   OH267197   4.482   1.694  13.794  0.3240  0.3971 -0.2734
15261TIP3    H167198   4.547   1.668  13.729  0.7098 -0.9561  0.5998
15261TIP3    H267199   4.533   1.737  13.863  0.2572 -0.3181  0.2337
15262TIP3   OH267200   0.718   1.391  13.864  0.1363 -0.1689  0.2602
15262TIP3    H167201   0.733   1.486  13.857  0.3396 -0.2953 -1.2769
15262TIP3    H267202   0.626   1.383  13.888 -0.1632  0.4082 -0.6571
15263TIP3   OH267203   5.800   3.698   4.448  0.1601  0.1785 -0.3969
15263TIP3    H167204   5.846   3.780   4.432  0.1784  0.4367  0.8606
15263TIP3    H267205   5.752   3.681   4.367  3.4520 -0.8286 -2.3447
15264TIP3   OH267206   1.060   4.572   3.969  0.4060 -0.2252 -0.6433
15264TIP3    H167207   1.127   4.557   4.036 -1.4761  0.6750  1.5858
15264TIP3    H267208   1.064   4.666   3.953 -0.6042 -0.0632 -0.0813
15265TIP3   OH267209   2.060   5.778  14.015 -0.0052 -0.6757  0.1486
15265TIP3    H167210   2.057   5.845  13.946 -1.3578 -0.6601  0.1908
15265TIP3    H267211   2.117   5.815  14.082  2.0817 -1.0609 -1.3097
15266TIP3   OH267212   4.184   2.500   4.268 -0.2440 -0.7433  1.0482
15266TIP3    H167213   4.109   2.441   4.279 -1.5732  0.0155 -2.5296
15266TIP3    H267214   4.256   2.443   4.241 -0.2749 -1.1786  1.8625
15267TIP3   OH267215   0.723   0.874   3.259  0.1691 -0.1054 -0.0439
15267TIP3    H167216   0.721   0.866   3.164  2.8286  1.5887 -0.3587
15267TIP3    H267217   0.710   0.968   3.275  2.3778  0.0691  1.0308
15268TIP3   OH267218   0.570   6.647   3.276 -0.0259 -0.5715 -0.5651
15268TIP3    H167219   0.664   6.646   3.259 -0.1764 -1.0857 -1.3993
15268TIP3    H267220   0.530   6.670   3.192 -0.5826  1.3902  0.1696
15269TIP3   OH267221   3.210   4.018   3.396  0.1880 -0.3921 -0.4411
15269TIP3    H167222   3.179   4.011   3.486  0.8816 -1.0599 -0.2467
15269TIP3    H267223   3.146   3.968   3.345  1.7422 -3.1877  0.1655
15270TIP3   OH267224   1.517   1.839   3.768 -0.6465 -0.0682 -0.0810
15270TIP3    H167225   1.571   1.769   3.731  1.4180  0.8485  1.0095
15270TIP3    H267226   1.494   1.894   3.693  1.4311  0.4541 -0.3821
15271TIP3   OH267227   3.597   2.996  12.310 -0.6409 -0.5160  0.0960
15271TIP3    H167228   3.622   2.999  12.403 -1.4513  0.1563  0.3037
15271TIP3    H267229   3.531   2.926  12.305 -0.7416 -0.4181  0.0624
15272TIP3   OH267230   4.838   0.716   3.390  0.3045  0.6408 -0.1022
15272TIP3    H167231   4.918   0.712   3.441  0.1294  2.5772  0.4120
15272TIP3    H267232   4.868   0.730   3.300  0.6352  3.4566  0.3337
15273TIP3   OH267233   2.639   0.728  10.651  0.2379  0.4088 -0.0458
15273TIP3    H167234   2.725   0.755  10.618  0.2178  2.7701  1.5781
15273TIP3    H267235   2.584   0.806  10.640 -0.4287  0.5072  3.0719
15274TIP3   OH267236   0.615   5.733  15.854  0.1433 -0.5647  0.1806
15274TIP3    H167237   0.622   5.821  15.892 -1.0527 -1.0056  1.5109
15274TIP3    H267238   0.630   5.674  15.928 -0.1241 -1.4855 -0.4879
15275TIP3   OH267239   1.792   6.131   2.445  0.3283 -0.0815 -0.3261
15275TIP3    H167240   1.747   6.215   2.455 -1.5805 -1.1949  1.1733
15275TIP3    H267241   1.824   6.131   2.355  0.0455  2.0786 -0.4818
15276TIP3   OH267242   3.558   2.705   1.042  0.2586  0.3593 -0.5009
15276TIP3    H167243   3.614   2.773   1.006 -1.7002  3.3692  1.6292
15276TIP3    H267244   3.607   2.671   1.117  0.7108  0.3379 -0.8001
15277TIP3   OH267245   2.387   1.264  10.888  0.7886 -0.4922 -0.5843
15277TIP3    H167246   2.394   1.234  10.798  2.3145 -2.1934  0.0501
15277TIP3    H267247   2.296   1.293  10.897  0.4864 -0.7256 -2.5039
15278TIP3   OH267248   3.015   6.211   4.858 -0.5345 -0.2621  0.2729
15278TIP3    H167249   3.077   6.283   4.871  1.0381 -1.1789 -1.7065
15278TIP3    H267250   2.931   6.248   4.886  0.2158  2.3330 -0.5467
15279TIP3   OH267251   1.146   3.611  11.066 -0.4252  0.3065 -0.4780
15279TIP3    H167252   1.202   3.561  11.007  0.0795  1.7411 -1.2683
15279TIP3    H267253   1.199   3.626  11.144 -0.3668  0.1161 -0.4823
15280TIP3   OH267254   4.057   0.621   3.077  0.3165 -0.1893  0.0556
15280TIP3    H167255   4.080   0.656   3.163  1.3509  0.1117 -0.3331
15280TIP3    H267256   4.007   0.542   3.096 -0.7051  0.6194  0.9355
15281TIP3   OH267257   2.405   2.793   0.643 -0.4222 -0.4324 -0.1140
15281TIP3    H167258   2.331   2.773   0.702  0.0282 -1.0195  0.2630
15281TIP3    H267259   2.391   2.885   0.619 -1.4675 -0.6319 -0.3266
15282TIP3   OH267260   4.138   4.215   2.344  0.3533 -0.2113 -0.0473
15282TIP3    H167261   4.157   4.185   2.255 -1.5791 -0.3256 -0.4562
15282TIP3    H267262   4.220   4.200   2.392  1.5554  0.1756 -1.8597
15283TIP3   OH267263   0.459   5.752  11.432  0.1816  0.0700  0.1047
15283TIP3    H167264   0.521   5.761  11.504  1.3595  1.5202 -1.0176
15283TIP3    H267265   0.411   5.835  11.432  1.0875  0.6329 -1.5277
15284TIP3   OH267266   5.474   5.907  13.907 -0.3924  0.2001 -0.2278
15284TIP3    H167267   5.457   5.971  13.838 -0.6364 -0.0568 -0.4080
15284TIP3    H267268   5.407   5.839  13.894 -2.6311  1.7155  2.2313
15285TIP3   OH267269   4.196   1.385   2.959 -0.7815  0.0169  0.6694
15285TIP3    H167270   4.267   1.342   3.008  0.8969  1.0814 -0.7333
15285TIP3    H267271   4.213   1.362   2.868 -1.6365  1.1383  0.2100
15286TIP3   OH267272   2.287   2.801   1.689 -0.1114  0.2338  0.3781
15286TIP3    H167273   2.363   2.750   1.716 -1.0926 -0.7378  1.3740
15286TIP3    H267274   2.244   2.747   1.623  1.3122  1.8278 -2.0169
15287TIP3   OH267275   0.608   5.508  12.687 -0.0207 -0.2861 -0.6710
15287TIP3    H167276   0.632   5.417  12.703  0.7024  0.1177  0.7116
15287TIP3    H267277   0.618   5.520  12.593 -0.9778 -1.8564 -1.0022
15288TIP3   OH267278   6.640   5.503   2.220 -0.2121 -0.6542 -0.5483
15288TIP3    H167279   6.729   5.480   2.246  0.5258 -0.3664 -2.6767
15288TIP3    H267280   6.602   5.421   2.188 -1.4050 -1.1956  1.9337
15289TIP3   OH267281   3.770   0.129   1.249 -0.6168 -0.3479  0.0458
15289TIP3    H167282   3.821   0.181   1.187  1.1106 -0.2076  1.5223
15289TIP3    H267283   3.826   0.122   1.326 -2.3923 -1.1703  1.3113
15290TIP3   OH267284   0.237   1.663  16.294 -0.4806 -0.6862 -0.7137
15290TIP3    H167285   0.166   1.678  16.232  2.2146 -2.2537 -4.6315
15290TIP3    H267286   0.212   1.583  16.341 -2.3239  0.1631 -0.1979
15291TIP3   OH267287   1.967   0.999  15.997  0.0744  0.3997  0.2206
15291TIP3    H167288   1.904   1.040  15.939 -0.8568  0.0542  0.9684
15291TIP3    H267289   2.042   1.060  15.998 -1.0786  1.8719  0.9539
15292TIP3   OH267290   3.607   6.378   1.433  0.5244  0.5646  0.3402
15292TIP3    H167291   3.539   6.311   1.438  0.2940  0.5748 -1.7870
15292TIP3    H267292   3.623   6.402   1.524 -1.0484 -0.7060  1.0096
15293TIP3   OH267293   3.864   4.511  13.013  0.0441  0.1073  0.7629
15293TIP3    H167294   3.942   4.499  13.066  1.6117  1.7018 -1.0645
15293TIP3    H267295   3.884   4.467  12.930 -1.0575  0.4465  0.2935
15294TIP3   OH267296   2.209   2.632  13.148 -0.2622 -0.1915  0.0498
15294TIP3    H167297   2.191   2.588  13.065  2.3863 -1.6345  0.1359
15294TIP3    H267298   2.275   2.698  13.126  0.4009 -0.5296  0.9718
15295TIP3   OH267299   3.151   3.437   2.495 -0.0250  0.1405  0.2333
15295TIP3    H167300   3.196   3.511   2.453  0.3189 -1.3148 -2.1536
15295TIP3    H267301   3.060   3.465   2.502  0.3781  1.3742  0.8497
15296TIP3   OH267302   2.636   6.357  16.431  0.3122  0.1891 -0.3989
15296TIP3    H167303   2.555   6.307  16.442  0.7786 -0.2463  1.3323
15296TIP3    H267304   2.626   6.432  16.489  2.0563 -1.0802  1.6817
15297TIP3   OH267305   0.022   5.044   3.358  0.0954 -0.0004  0.0290
15297TIP3    H167306  -0.055   4.987   3.353 -0.2621  0.5544 -1.2189
15297TIP3    H267307   0.008   5.096   3.437 -1.9475  1.6201 -1.2795
15298TIP3   OH267308   2.992   4.388   5.001 -0.0845  0.2046 -0.6775
15298TIP3    H167309   2.962   4.450   4.934  0.6321  1.3339  0.0169
15298TIP3    H267310   2.964   4.303   4.968 -2.4641  1.0218 -0.9101
15299TIP3   OH267311   5.359   2.149   4.847  0.4546  0.4973 -0.1796
15299TIP3    H167312   5.279   2.097   4.855  0.6422  0.1561 -0.5267
15299TIP3    H267313   5.365   2.195   4.931  1.4178 -1.6634  1.0266
15300TIP3   OH267314   5.813   2.001   2.337  0.1611 -0.4534 -0.2700
15300TIP3    H167315   5.764   1.925   2.306 -0.9057  0.0242  0.1979
15300TIP3    H267316   5.899   1.992   2.295 -0.0815 -1.6786 -0.5600
15301TIP3   OH267317   0.202   5.644  13.041  0.2011 -0.1351  0.2584
15301TIP3    H167318   0.129   5.616  13.096  0.1814 -0.6554 -0.0185
15301TIP3    H267319   0.217   5.570  12.982 -1.0643  1.0944 -1.7671
15302TIP3   OH267320   0.035   0.673   0.369 -0.4199  0.0860  0.2761
15302TIP3    H167321   0.082   0.599   0.407 -1.4378 -2.3113 -2.7432
15302TIP3    H267322  -0.054   0.666   0.405 -0.6774 -0.5790 -0.4611
15303TIP3   OH267323   0.995   0.988   3.041  0.7045 -0.3954 -0.1930
15303TIP3    H167324   0.944   0.908   3.058 -0.3606 -0.1330 -1.9327
15303TIP3    H267325   0.934   1.046   2.994  1.5348  1.3670  0.8258
15304TIP3   OH267326   6.027   3.868  12.839  0.3859  0.2358 -0.2611
15304TIP3    H167327   5.980   3.938  12.793 -0.6565 -0.9134 -1.0055
15304TIP3    H267328   6.086   3.832  12.773  0.1662 -0.2588 -0.1926
15305TIP3   OH267329   5.311   1.137  11.503  0.3604 -0.4558  0.1678
15305TIP3    H167330   5.252   1.177  11.567  1.8073  0.5350  0.9446
15305TIP3    H267331   5.350   1.063  11.548 -1.2079 -1.9308 -0.7847
15306TIP3   OH267332   2.916   4.421  16.356  0.1010  0.7786 -0.6392
15306TIP3    H167333   2.862   4.364  16.302 -0.1129  2.4119 -2.2404
15306TIP3    H267334   2.932   4.370  16.436  1.1101 -2.0614 -2.4996
15307TIP3   OH267335   4.741   1.478  13.277  0.8708  0.5358  0.0213
15307TIP3    H167336   4.804   1.543  13.245  1.0557  0.9557  1.2095
15307TIP3    H267337   4.754   1.477  13.372 -1.5513  1.3164  0.4133
15308TIP3   OH267338   3.112   6.134  11.167 -0.5110 -0.2594  0.4793
15308TIP3    H167339   3.053   6.148  11.241  0.0790  0.7220  0.7721
15308TIP3    H267340   3.054   6.127  11.091 -1.0332  0.1480  0.8365
15309TIP3   OH267341   0.538   2.634  15.507  0.1750  0.6806  0.2535
15309TIP3    H167342   0.570   2.702  15.448 -0.5732  0.7729 -0.0590
15309TIP3    H267343   0.453   2.608  15.471 -0.2422  0.6461  1.2128
15310TIP3   OH267344   0.902   0.518   5.411  0.0863 -0.7191  0.3248
15310TIP3    H167345   0.840   0.590   5.397 -0.8180 -1.6924 -0.8059
15310TIP3    H267346   0.985   0.562   5.428 -0.4223  0.6062 -0.4378
15311TIP3   OH267347   3.068   0.122   5.852 -0.7304 -0.0100 -0.0805
15311TIP3    H167348   3.019   0.202   5.835 -0.4555  0.2266  0.2146
15311TIP3    H267349   3.154   0.153   5.881 -0.3679 -0.4204 -0.7089
15312TIP3   OH267350   3.420   3.207   1.493  0.2535  0.2430 -0.1640
15312TIP3    H167351   3.376   3.279   1.447  0.9927 -0.3020 -1.8274
15312TIP3    H267352   3.477   3.250   1.556 -0.3140  1.0568 -0.1890
15313TIP3   OH267353   3.841   1.732   1.752 -0.1580 -0.5232 -0.0254
15313TIP3    H167354   3.910   1.773   1.805  1.6568 -0.4540 -2.2699
15313TIP3    H267355   3.786   1.805   1.724  2.2755  0.4328 -2.8847
15314TIP3   OH267356   5.480   6.781  16.224 -0.1784  0.1639 -0.3251
15314TIP3    H167357   5.520   6.862  16.257  0.9085 -0.9334  1.1985
15314TIP3    H267358   5.550   6.738  16.174 -0.2275 -0.5827  0.2324
15315TIP3   OH267359   2.186   2.889   0.358 -0.0661 -0.7566  0.4701
15315TIP3    H167360   2.126   2.925   0.423  0.1928  1.7897 -0.5923
15315TIP3    H267361   2.266   2.940   0.368  0.9703 -2.2045 -0.0187
15316TIP3   OH267362   4.329   6.481  12.628 -0.3485 -0.2938  0.8245
15316TIP3    H167363   4.352   6.547  12.694 -3.6716  2.2797 -0.2859
15316TIP3    H267364   4.233   6.482  12.627 -0.5059 -0.6014 -3.5660
15317TIP3   OH267365   4.946   3.594   5.617 -0.1354  0.1077 -0.1325
15317TIP3    H167366   5.001   3.589   5.539  0.2848 -0.1744  0.1783
15317TIP3    H267367   5.007   3.614   5.688 -0.5858  0.8722  0.0507
15318TIP3   OH267368   0.641   1.973   0.494  0.5885  0.0400 -0.5340
15318TIP3    H167369   0.650   2.068   0.504  3.1819 -0.2817  1.0486
15318TIP3    H267370   0.605   1.961   0.406 -0.0599  2.4618 -0.6689
15319TIP3   OH267371   0.548   3.982  13.997  0.1923 -0.0548  0.1580
15319TIP3    H167372   0.565   4.076  14.000  0.4639 -0.0758 -0.4667
15319TIP3    H267373   0.471   3.973  13.942 -0.2768 -0.1508  0.8223
15320TIP3   OH267374   4.347   6.085   4.589 -0.3311  0.3808  0.3190
15320TIP3    H167375   4.267   6.134   4.608 -0.9948 -1.0447  1.4353
15320TIP3    H267376   4.343   6.009   4.647  1.9534  0.3683  0.5535
15321TIP3   OH267377   0.621   2.024  12.074 -0.0245 -0.4507 -0.2201
15321TIP3    H167378   0.630   2.115  12.102 -1.7826 -0.6711  1.2290
15321TIP3    H267379   0.708   2.000  12.041  1.3701  0.7964  2.2822
15322TIP3   OH267380   4.270   5.277   3.186 -0.0362 -0.0027  0.5728
15322TIP3    H167381   4.288   5.222   3.110  0.5821  1.1555 -0.1445
15322TIP3    H267382   4.233   5.216   3.251  1.5207 -1.4518  0.1810
15323TIP3   OH267383   3.960   6.595   0.430 -0.6458 -0.7529 -0.6304
15323TIP3    H167384   3.921   6.605   0.517  0.6450 -0.1258 -0.1003
15323TIP3    H267385   3.888   6.611   0.369 -1.3565 -0.2648  0.3260
15324TIP3   OH267386   4.793   3.177   3.007 -0.0785 -0.8662 -0.4567
15324TIP3    H167387   4.878   3.169   3.050  0.7452 -0.5114 -1.9467
15324TIP3    H267388   4.797   3.261   2.961 -2.2660  0.4831  1.5635
15325TIP3   OH267389   1.636   5.982   4.627 -0.2908 -0.1221  0.3837
15325TIP3    H167390   1.615   5.895   4.594  1.8468 -0.2673 -0.7845
15325TIP3    H267391   1.727   5.975   4.656  0.0621  1.8203 -0.1162
15326TIP3   OH267392   3.249   3.036  13.915 -0.8113  0.1986  0.0507
15326TIP3    H167393   3.206   3.058  13.997 -1.3263 -1.8459  0.3660
15326TIP3    H267394   3.343   3.036  13.936 -0.7393  2.2161 -0.0447
15327TIP3   OH267395   1.520   1.166  11.741 -0.5043 -0.0612 -0.1482
15327TIP3    H167396   1.566   1.094  11.698 -1.2428 -0.6759  0.0761
15327TIP3    H267397   1.587   1.209  11.794 -0.6473 -2.4888  2.1984
15328TIP3   OH267398   3.185   0.534  14.767  0.2563 -0.3495  0.5157
15328TIP3    H167399   3.271   0.536  14.811  0.2091  0.5262  0.5952
15328TIP3    H267400   3.137   0.606  14.807  0.2355  0.5333 -1.0216
15329TIP3   OH267401   1.602   6.023   1.108 -0.2121  0.2292 -0.0711
15329TIP3    H167402   1.528   5.971   1.139  1.0396 -0.2357  2.3780
15329TIP3    H267403   1.663   5.959   1.072  0.3006  0.2288  0.7672
15330TIP3   OH267404   4.343   3.407   3.871 -0.3195  0.1414  0.1277
15330TIP3    H167405   4.294   3.325   3.871 -2.0085  1.1093 -0.7872
15330TIP3    H267406   4.375   3.415   3.961 -2.1874 -0.3487  0.8863
15331TIP3   OH267407   1.777   4.328  14.710 -0.1775  0.3494 -0.8434
15331TIP3    H167408   1.834   4.384  14.763 -0.0053 -0.9654  0.4206
15331TIP3    H267409   1.702   4.384  14.689  1.0420  1.7558 -1.6065
15332TIP3   OH267410   0.875   5.496   0.335  0.0637 -0.1410  0.2098
15332TIP3    H167411   0.909   5.569   0.385 -3.2760  2.1833 -0.6128
15332TIP3    H267412   0.856   5.533   0.249  0.2652 -2.5788 -0.9746
15333TIP3   OH267413   5.494   6.094   0.322  0.1804  0.4625  0.3528
15333TIP3    H167414   5.475   6.175   0.370 -1.3473  0.5131 -0.2613
15333TIP3    H267415   5.419   6.083   0.264 -0.9186 -2.7028  2.1338
15334TIP3   OH267416   3.851   6.440  16.673 -0.6282 -0.2990  0.4348
15334TIP3    H167417   3.938   6.440  16.712 -0.8747 -0.5300  0.9934
15334TIP3    H267418   3.866   6.424  16.580 -0.1209 -1.0118  0.6340
15335TIP3   OH267419   2.731   0.171   5.031  0.1122  0.0516  0.2777
15335TIP3    H167420   2.765   0.088   5.065  0.2316  0.0284  0.1004
15335TIP3    H267421   2.637   0.167   5.048 -0.0784 -0.6460 -0.8262
15336TIP3   OH267422   4.776   0.455  12.261 -0.4743  0.8288 -0.0092
15336TIP3    H167423   4.729   0.536  12.283 -0.5848  0.7758 -0.0523
15336TIP3    H267424   4.813   0.426  12.345 -0.0513  1.1704 -0.0798
15337TIP3   OH267425   1.964   6.040   5.483  0.3765 -0.8501 -0.2684
15337TIP3    H167426   1.979   5.948   5.463  2.0163 -0.3019 -1.7834
15337TIP3    H267427   1.882   6.061   5.440  0.2139 -1.4897 -0.2784
15338TIP3   OH267428   5.586   1.657  12.791  0.0487  0.1062 -0.4489
15338TIP3    H167429   5.600   1.640  12.698  0.7708  0.9561 -0.5040
15338TIP3    H267430   5.504   1.611  12.811  1.8912 -3.6087 -0.5296
15339TIP3   OH267431   3.015   2.035   6.442 -0.2069 -0.1057 -0.2203
15339TIP3    H167432   2.970   1.951   6.455  3.2939 -2.0931  0.1806
15339TIP3    H267433   3.016   2.075   6.528 -1.8234  0.3641 -0.3941
15340TIP3   OH267434   1.742   0.143  13.241  0.0207 -0.4276 -0.4962
15340TIP3    H167435   1.647   0.132  13.237  0.2334 -2.1902 -2.3208
15340TIP3    H267436   1.756   0.201  13.315 -2.3661 -1.7323  1.1164
15341TIP3   OH267437   5.130   3.656  15.315 -0.2814 -0.3023  0.8560
15341TIP3    H167438   5.172   3.572  15.331  1.8891  0.5895  0.3161
15341TIP3    H267439   5.139   3.704  15.397 -0.4435 -0.1767  0.8018
15342TIP3   OH267440   4.101   1.659   1.142 -0.0954  0.6384 -0.0797
15342TIP3    H167441   4.182   1.608   1.143 -0.7151 -0.3810  0.2306
15342TIP3    H267442   4.051   1.627   1.217 -1.4321  0.1382 -1.1375
15343TIP3   OH267443   5.853   6.218  12.920 -0.3929  0.1002 -0.6773
15343TIP3    H167444   5.766   6.248  12.945 -0.3277 -0.1556 -0.1354
15343TIP3    H267445   5.911   6.292  12.938 -0.3127 -0.1502  0.1600
15344TIP3   OH267446   6.707   2.132   2.429  0.2341 -0.4407  0.0212
15344TIP3    H167447   6.655   2.064   2.386  1.3765 -0.3220 -1.6553
15344TIP3    H267448   6.770   2.159   2.362  0.0928  1.9661  0.7880
15345TIP3   OH267449   4.766   6.490   3.480 -0.2795  0.9435  0.2519
15345TIP3    H167450   4.696   6.490   3.415  0.8993  0.5635 -1.0728
15345TIP3    H267451   4.846   6.473   3.429  0.6097 -0.0682  1.8859
15346TIP3   OH267452   1.463   4.895   1.230 -0.1046 -0.3097  0.1353
15346TIP3    H167453   1.412   4.815   1.231 -0.0704 -0.3509 -0.6180
15346TIP3    H267454   1.516   4.891   1.310 -1.7150  0.0405  1.2556
15347TIP3   OH267455   3.117   3.647   3.430  0.0089  0.3928 -0.7062
15347TIP3    H167456   3.206   3.613   3.440  0.4736  1.4842 -1.0452
15347TIP3    H267457   3.072   3.617   3.509  1.1814  1.3589  0.3845
15348TIP3   OH267458   1.131   5.644   4.305  0.7215  0.2888  0.1996
15348TIP3    H167459   1.041   5.676   4.304  0.3140 -0.7513 -1.6973
15348TIP3    H267460   1.184   5.722   4.291 -0.0035  0.6685 -0.5053
15349TIP3   OH267461   0.394   0.346  13.020  0.3775 -0.0794 -0.1027
15349TIP3    H167462   0.476   0.374  13.062  1.3562  0.6600 -2.3899
15349TIP3    H267463   0.404   0.251  13.010  0.6029 -0.1008  0.2785
15350TIP3   OH267464   1.144   3.586  16.792  0.5384 -0.2340 -0.1955
15350TIP3    H167465   1.160   3.527  16.718  2.7963 -1.1016  0.8845
15350TIP3    H267466   1.133   3.672  16.752  2.7107 -0.5028 -1.5452
15351TIP3   OH267467   1.043   0.895  12.891  0.3371  0.1722 -0.4054
15351TIP3    H167468   1.136   0.878  12.876  0.6636  0.8299  0.7900
15351TIP3    H267469   1.030   0.984  12.860  0.0162 -0.0346 -0.8818
15352TIP3   OH267470   5.357   5.085  14.361 -0.0247 -0.6320  0.5035
15352TIP3    H167471   5.339   5.128  14.445 -0.1359 -3.7200  2.2149
15352TIP3    H267472   5.452   5.088  14.353 -0.0785  0.6275  0.1482
15353TIP3   OH267473   0.698   6.527   3.677  0.4784 -0.3615 -0.6866
15353TIP3    H167474   0.603   6.527   3.675  0.4728  0.3931 -0.7817
15353TIP3    H267475   0.720   6.512   3.769  0.2564  0.0185 -0.5693
15354TIP3   OH267476   2.825   1.997   2.238  0.5993 -0.1533  0.2699
15354TIP3    H167477   2.787   2.029   2.319 -0.8589  1.5313 -0.9970
15354TIP3    H267478   2.870   1.916   2.262  0.7229  0.6105  2.8252
15355TIP3   OH267479   1.568   4.526   4.423 -0.5620  0.0655 -0.1386
15355TIP3    H167480   1.593   4.539   4.332  2.4839 -1.0091  0.4114
15355TIP3    H267481   1.631   4.580   4.472 -0.6112 -1.1947  1.3806
15356TIP3   OH267482   1.130   4.224   5.661 -0.3637 -0.7045  0.1120
15356TIP3    H167483   1.052   4.279   5.660  1.0320  1.4880  1.4677
15356TIP3    H267484   1.156   4.218   5.569  0.0699  2.0442 -0.0427
15357TIP3   OH267485   6.146   3.041   5.420  0.0079  0.2970  0.2472
15357TIP3    H167486   6.226   3.012   5.463  0.6028  0.8731 -0.4456
15357TIP3    H267487   6.166   3.129   5.390 -0.5707  0.0921 -0.7590
15358TIP3   OH267488   6.619   3.773   1.353  0.8987  0.0053  0.5480
15358TIP3    H167489   6.560   3.715   1.401  1.5041 -0.1209  1.1604
15358TIP3    H267490   6.589   3.861   1.373  1.2761 -0.0425  1.3369
15359TIP3   OH267491   3.811   4.776  12.551 -0.4780 -0.3843  0.2324
15359TIP3    H167492   3.721   4.764  12.521 -0.8532  1.3707  0.5615
15359TIP3    H267493   3.855   4.819  12.477  0.0069 -0.9286  0.2013
15360TIP3   OH267494   4.729   0.948   1.767 -0.6345  0.3642 -0.3614
15360TIP3    H167495   4.767   1.032   1.741  1.6757 -0.6456 -0.5029
15360TIP3    H267496   4.671   0.970   1.841 -0.7098  2.1476 -0.8930
15361TIP3   OH267497   5.276   2.418  13.589  0.8925  0.1753 -0.0289
15361TIP3    H167498   5.193   2.467  13.592  0.9666  0.3723 -0.8706
15361TIP3    H267499   5.261   2.342  13.645  0.3185  0.4807  0.2412
15362TIP3   OH267500   1.994   6.542   1.610  0.5106 -0.4835  0.2382
15362TIP3    H167501   2.052   6.494   1.550  0.6798 -0.9183  0.7489
15362TIP3    H267502   2.018   6.633   1.597  2.7887 -0.7516  1.9258
15363TIP3   OH267503   1.767   1.987  12.643 -0.4241  0.1306  0.2259
15363TIP3    H167504   1.801   2.047  12.576  0.1746 -0.9290 -0.4640
15363TIP3    H267505   1.836   1.922  12.653 -0.5607  0.2048  1.8198
15364TIP3   OH267506   0.851   3.011   0.914  0.6524 -0.2015 -0.0587
15364TIP3    H167507   0.779   2.978   0.968  0.3747  1.3685  0.5986
15364TIP3    H267508   0.826   2.988   0.825 -1.0708  0.9102  0.0747
15365TIP3   OH267509   1.631   4.105   5.216 -0.2378 -0.2332  0.4605
15365TIP3    H167510   1.690   4.034   5.242 -1.1219 -1.3038 -0.3449
15365TIP3    H267511   1.591   4.074   5.135  2.0628  2.7297 -2.1009
15366TIP3   OH267512   1.573   4.916   4.962 -0.2546  0.0694 -0.2077
15366TIP3    H167513   1.597   4.875   5.045 -0.6033  0.6829  0.2063
15366TIP3    H267514   1.614   5.002   4.965 -0.6466  0.2705 -0.4700
15367TIP3   OH267515   5.360   4.379  15.826  0.8714 -0.3219  0.2850
15367TIP3    H167516   5.276   4.392  15.872  0.6482 -0.7012 -0.0125
15367TIP3    H267517   5.424   4.424  15.881  0.3336  0.8216  0.0222
15368TIP3   OH267518   1.294   6.017  15.008  0.2937  0.1845 -0.5440
15368TIP3    H167519   1.255   5.986  15.090 -1.5756 -1.3039 -1.9255
15368TIP3    H267520   1.356   5.949  14.984 -0.2032 -0.0901 -1.0695
15369TIP3   OH267521   1.626   2.901  14.632  0.5220 -0.1923  0.0793
15369TIP3    H167522   1.596   2.979  14.677  0.6621 -0.3229  0.3982
15369TIP3    H267523   1.719   2.894  14.653  0.7245  0.0629 -0.6928
15370TIP3   OH267524   1.432   2.516   3.484  0.2089 -0.3511  0.0074
15370TIP3    H167525   1.392   2.529   3.399  0.1710  1.4932  0.2639
15370TIP3    H267526   1.366   2.470   3.536  0.9282 -3.2437 -1.4427
15371TIP3   OH267527   1.782   4.775  13.329  0.7774  0.4290 -0.1498
15371TIP3    H167528   1.692   4.743  13.333  0.4612  1.1410 -1.3138
15371TIP3    H267529   1.798   4.812  13.416  0.2079 -0.3662  0.3049
15372TIP3   OH267530   4.743   1.292  12.236  0.1181  0.6947 -0.4900
15372TIP3    H167531   4.824   1.245  12.212  1.5077  2.0121  1.3169
15372TIP3    H267532   4.677   1.258  12.176  1.2996 -2.6264 -0.1472
15373TIP3   OH267533   4.841   1.590  16.411  0.7861 -0.4518  0.2953
15373TIP3    H167534   4.778   1.518  16.405 -0.9073  1.0189 -0.8596
15373TIP3    H267535   4.875   1.600  16.322 -0.1647  1.1041  0.0650
15374TIP3   OH267536   4.517   6.579  14.496  0.7741 -0.1940  0.0776
15374TIP3    H167537   4.507   6.493  14.538 -0.2010 -1.0516 -1.8207
15374TIP3    H267538   4.481   6.568  14.408  1.2384  1.9961 -0.4514
15375TIP3   OH267539   4.202   6.224  13.949 -0.7338 -0.3774  0.0643
15375TIP3    H167540   4.201   6.310  13.906  1.5948 -0.9811 -1.3768
15375TIP3    H267541   4.247   6.167  13.887 -0.8270 -2.2837  1.6544
15376TIP3   OH267542   2.673   2.568  12.791 -0.0996  0.2502 -0.5429
15376TIP3    H167543   2.581   2.587  12.809 -0.5115 -0.5760 -1.6891
15376TIP3    H267544   2.721   2.644  12.826 -1.2609  0.9901 -0.5198
15377TIP3   OH267545   3.635   4.240  11.622  0.1683  0.3368  0.0925
15377TIP3    H167546   3.561   4.275  11.671  0.8102  2.0954 -0.1080
15377TIP3    H267547   3.681   4.318  11.590  2.2139 -0.6871  0.3813
15378TIP3   OH267548   6.565   1.238   4.200  0.8898  0.0647 -0.5273
15378TIP3    H167549   6.631   1.257   4.267  2.1817 -0.6139 -1.5599
15378TIP3    H267550   6.522   1.158   4.231 -0.8650  1.5267  1.1202
15379TIP3   OH267551   2.715   1.190  12.672 -0.3985 -0.8774  0.6953
15379TIP3    H167552   2.734   1.242  12.750 -1.3310  0.4065  0.0826
15379TIP3    H267553   2.636   1.228  12.635 -0.2298 -1.7465 -0.6510
15380TIP3   OH267554   6.460   6.644  12.736 -0.3494  0.2650 -0.3123
15380TIP3    H167555   6.489   6.555  12.753 -1.7185 -0.2536 -0.5598
15380TIP3    H267556   6.409   6.637  12.655 -0.2161  1.3289 -0.5006
15381TIP3   OH267557   1.074   5.044   1.610 -0.3384  0.0959  0.2849
15381TIP3    H167558   1.078   5.003   1.523 -0.1262 -0.9561  0.7754
15381TIP3    H267559   0.997   5.100   1.606 -1.9905 -2.0361  0.2597
15382TIP3   OH267560   1.124   1.534  14.818  0.0835 -0.0493 -0.3970
15382TIP3    H167561   1.038   1.576  14.820 -0.4680 -1.1687  0.5653
15382TIP3    H267562   1.181   1.594  14.866  0.0445  1.0383 -1.6271
15383TIP3   OH267563   3.454   1.981  17.183 -0.5895 -0.3003  0.3153
15383TIP3    H167564   3.408   1.953  17.104 -1.5574 -0.3277  0.8799
15383TIP3    H267565   3.463   1.902  17.236  0.3781 -0.3565  0.0914
15384TIP3   OH267566   0.195   3.360  13.674 -0.0540 -0.5030  0.0779
15384TIP3    H167567   0.178   3.291  13.610  1.6836 -0.2556 -0.7123
15384TIP3    H267568   0.108   3.391  13.699 -0.8239 -1.9356 -0.6949
15385TIP3   OH267569   5.300   0.434  11.882  0.0097 -0.2532  0.1753
15385TIP3    H167570   5.257   0.364  11.931  0.9156 -0.6290  0.4494
15385TIP3    H267571   5.391   0.430  11.910 -0.1377  1.8924  1.2168
15386TIP3   OH267572   0.458   2.898  11.311 -0.0085 -0.4106  0.4679
15386TIP3    H167573   0.465   2.803  11.320  1.0639 -0.2799  1.1819
15386TIP3    H267574   0.501   2.918  11.228 -0.8134 -0.6073 -0.0023
15387TIP3   OH267575   3.295   1.046  11.138 -1.1063 -0.4616 -0.0770
15387TIP3    H167576   3.227   1.051  11.071 -1.5584 -2.5576  0.1525
15387TIP3    H267577   3.308   0.952  11.151  1.4105 -0.1163  0.3401
15388TIP3   OH267578   6.108   5.439  11.957 -0.2070  0.4603 -0.4095
15388TIP3    H167579   6.155   5.410  11.878 -1.8675 -0.6175 -1.0420
15388TIP3    H267580   6.088   5.359  12.004  1.4654  1.1199  1.6137
15389TIP3   OH267581   0.784   5.389   5.181 -0.5472  0.1960 -0.1010
15389TIP3    H167582   0.733   5.370   5.101  0.5574 -0.9918 -0.5584
15389TIP3    H267583   0.747   5.471   5.213  0.1797  1.7584 -2.8725
15390TIP3   OH267584   3.005   2.870  12.174 -0.3321 -0.0090  0.1409
15390TIP3    H167585   2.966   2.956  12.190  0.0724  0.3745 -0.8559
15390TIP3    H267586   2.936   2.821  12.129 -0.5179 -0.1802  0.5977
15391TIP3   OH267587   5.976   4.471  15.259 -0.6980 -0.3846  0.5541
15391TIP3    H167588   6.029   4.395  15.285 -1.1471  0.0043  2.7349
15391TIP3    H267589   6.030   4.547  15.281 -0.3024  0.0037 -1.5101
15392TIP3   OH267590   0.531   6.499   0.311  0.0475 -0.1194 -0.3765
15392TIP3    H167591   0.536   6.588   0.274  0.1184 -1.3001 -3.5076
15392TIP3    H267592   0.438   6.481   0.319  0.0325  0.2550  0.4278
15393TIP3   OH267593   0.328   0.275   1.835 -0.0032 -0.2076 -0.2754
15393TIP3    H167594   0.413   0.252   1.873 -0.4081 -0.8240  0.2778
15393TIP3    H267595   0.303   0.198   1.785 -0.8367 -0.5649  0.6477
15394TIP3   OH267596   5.540   0.800   3.857  0.8036 -0.1088  0.2652
15394TIP3    H167597   5.542   0.770   3.766  2.4378  0.9567 -0.1079
15394TIP3    H267598   5.450   0.828   3.871  0.8439  1.1653 -1.5733
15395TIP3   OH267599   3.018   6.324   0.811  0.0290  1.0505  0.1568
15395TIP3    H167600   2.955   6.396   0.813  0.8053  1.7511  1.4182
15395TIP3    H267601   3.085   6.353   0.749 -1.9729 -0.7571 -3.1016
15396TIP3   OH267602   2.472   5.439   2.273  0.1805 -0.7269 -0.2062
15396TIP3    H167603   2.498   5.384   2.199  0.5739 -0.3121 -0.3770
15396TIP3    H267604   2.402   5.389   2.316 -0.3828 -0.7490 -1.1267
15397TIP3   OH267605   1.137   5.954  16.510  0.0331  0.0417  0.6321
15397TIP3    H167606   1.074   6.004  16.562 -0.8911 -3.0567  2.7939
15397TIP3    H267607   1.089   5.927  16.432 -0.1844  0.6027  0.5733
15398TIP3   OH267608   6.104   0.894  15.011 -0.3072 -0.1497  0.3688
15398TIP3    H167609   6.075   0.911  15.101 -0.1266  1.4327  0.1530
15398TIP3    H267610   6.165   0.820  15.019  0.6231  0.7188  1.7340
15399TIP3   OH267611   1.308   4.424  16.701  0.1144 -0.0870  0.5404
15399TIP3    H167612   1.331   4.496  16.642  0.7766 -0.9632 -0.2956
15399TIP3    H267613   1.214   4.434  16.715 -0.1183  0.0141 -0.8794
15400TIP3   OH267614   5.341   5.137  17.166  0.2440 -0.1650 -0.2708
15400TIP3    H167615   5.410   5.092  17.117 -1.4355 -1.6587 -1.3860
15400TIP3    H267616   5.323   5.216  17.115 -0.4353 -0.9424 -1.2603
15401TIP3   OH267617   2.738   4.689  15.701  0.3177 -0.5201 -0.1492
15401TIP3    H167618   2.724   4.768  15.648  1.4732  0.1447  0.5062
15401TIP3    H267619   2.825   4.659  15.676  0.5507 -0.6505  0.7738
15402TIP3   OH267620   1.682   1.512   3.867  0.4034  0.3718 -0.2686
15402TIP3    H167621   1.746   1.441   3.870  1.1202  1.0287  0.1454
15402TIP3    H267622   1.725   1.582   3.819  0.7274  1.5008  1.5412
15403TIP3   OH267623   5.591   5.788   2.299 -0.2292 -0.3320  0.2654
15403TIP3    H167624   5.642   5.720   2.256 -0.1304 -0.7870  1.0942
15403TIP3    H267625   5.509   5.745   2.323  0.6038 -0.7375  2.5609
15404TIP3   OH267626   2.588   0.181  13.322 -0.3105  0.4477  0.2481
15404TIP3    H167627   2.546   0.253  13.276  1.4075  1.7501  0.6092
15404TIP3    H267628   2.593   0.211  13.413  1.3114  0.3257  0.2174
15405TIP3   OH267629   1.658   1.596   6.559 -0.0322 -0.0259  0.4333
15405TIP3    H167630   1.694   1.632   6.477 -0.6275  1.8863  0.9622
15405TIP3    H267631   1.580   1.548   6.532  1.8613 -2.8160 -0.5324
15406TIP3   OH267632   6.323   3.011  12.745  0.2479  0.4661  0.2006
15406TIP3    H167633   6.377   3.027  12.822 -1.1239  0.0486  1.2864
15406TIP3    H267634   6.312   2.916  12.742 -1.5090  0.6141  0.8092
15407TIP3   OH267635   6.701   5.440   4.100  0.3466  0.4710  0.0354
15407TIP3    H167636   6.793   5.418   4.089  0.1318 -1.1751  1.1905
15407TIP3    H267637   6.699   5.503   4.172  0.5681  0.5511 -0.0290
15408TIP3   OH267638   2.681   4.629  12.248 -0.1393 -0.4394  0.4163
15408TIP3    H167639   2.635   4.600  12.327 -0.1436  1.5413  1.1938
15408TIP3    H267640   2.613   4.673  12.196  0.2343 -0.1444  0.1677
15409TIP3   OH267641   6.660   0.185   5.800 -0.0110  0.0987 -0.2110
15409TIP3    H167642   6.604   0.209   5.725 -0.2313 -0.3974 -0.2059
15409TIP3    H267643   6.673   0.268   5.846 -0.0433  0.3738 -0.6822
15410TIP3   OH267644   3.563   5.802  12.150 -0.1027 -0.1327  0.0692
15410TIP3    H167645   3.628   5.732  12.145  0.5944  0.3664  1.5786
15410TIP3    H267646   3.525   5.806  12.062  2.3606  0.0065 -1.0682
15411TIP3   OH267647   2.045   4.334   0.742 -0.2071  0.7729  0.2465
15411TIP3    H167648   2.032   4.360   0.833  0.0416  0.3511  0.4078
15411TIP3    H267649   2.109   4.396   0.708  0.8151  0.0557  0.7935
15412TIP3   OH267650   1.045   6.588  13.641 -0.8342  0.1617  0.1581
15412TIP3    H167651   0.984   6.648  13.600 -0.0676  0.7515 -0.1555
15412TIP3    H267652   1.121   6.643  13.663  0.4562 -0.9093 -1.3562
15413TIP3   OH267653   4.079   5.610   3.339  0.1050 -0.2383  0.5685
15413TIP3    H167654   4.093   5.666   3.415 -0.5662 -0.0061  0.5263
15413TIP3    H267655   4.010   5.549   3.366 -0.4167  0.0992  0.0185
15414TIP3   OH267656   3.242   2.785   4.052  0.5682 -0.0177 -0.1073
15414TIP3    H167657   3.316   2.837   4.083 -0.9594  0.8445  2.4592
15414TIP3    H267658   3.275   2.696   4.048  1.4852  0.1301  2.3011
15415TIP3   OH267659   5.777   3.464   0.183  0.2768 -0.2218 -0.2434
15415TIP3    H167660   5.752   3.469   0.091 -1.0910  1.2686  0.1735
15415TIP3    H267661   5.849   3.400   0.184 -0.5563 -1.2935 -2.1311
15416TIP3   OH267662   2.261   1.755   4.279  0.0013 -0.8124 -0.1774
15416TIP3    H167663   2.168   1.773   4.296  0.6157  0.4180  2.3331
15416TIP3    H267664   2.308   1.816   4.336  2.3887 -1.0751 -1.7350
15417TIP3   OH267665   1.505   3.166  15.046  0.0042  0.1526  0.8286
15417TIP3    H167666   1.430   3.106  15.043 -0.8743  1.2458  0.0869
15417TIP3    H267667   1.485   3.233  14.981  1.1073  1.0908  1.4194
15418TIP3   OH267668   2.238   0.378   2.504 -0.0031 -0.7629  0.3459
15418TIP3    H167669   2.315   0.412   2.550 -0.8502 -0.7173  1.7690
15418TIP3    H267670   2.177   0.452   2.503 -1.0535 -1.5769  1.6143
15419TIP3   OH267671   6.537   4.728   5.197  0.1595 -0.1817 -0.1402
15419TIP3    H167672   6.616   4.780   5.213 -0.9704  2.8122 -3.0627
15419TIP3    H267673   6.491   4.776   5.128 -3.5561 -2.5431  0.4327
15420TIP3   OH267674   3.377   2.953   4.556 -0.2876 -0.2361 -0.5548
15420TIP3    H167675   3.456   2.992   4.595 -0.9691  0.7724 -0.1365
15420TIP3    H267676   3.376   2.987   4.467 -0.6640  0.4128 -0.3137
15421TIP3   OH267677   5.869   6.100  13.722 -0.0470  0.4262 -0.3580
15421TIP3    H167678   5.879   6.019  13.772 -2.2402  0.6134  0.4902
15421TIP3    H267679   5.785   6.091  13.677  0.4807  1.5286 -1.6411
15422TIP3   OH267680   6.594   6.359   3.150 -0.2233 -0.4604  0.3977
15422TIP3    H167681   6.670   6.411   3.123 -0.0552 -0.9143 -0.0321
15422TIP3    H267682   6.555   6.408   3.222 -0.2323  0.4087 -0.1746
15423TIP3   OH267683   0.035   2.109  13.548 -0.2873  0.2918 -0.2018
15423TIP3    H167684   0.116   2.149  13.516 -0.8636  0.8866 -0.9687
15423TIP3    H267685  -0.007   2.073  13.470 -0.7427 -0.0519  0.1937
15424TIP3   OH267686   4.748   3.676   4.228  0.1108 -0.2476  0.0304
15424TIP3    H167687   4.786   3.589   4.220  0.5216 -0.2007  1.2504
15424TIP3    H267688   4.800   3.731   4.170  0.1392 -0.7216 -0.3946
15425TIP3   OH267689   6.125   1.048  16.120  0.5513  0.2917  0.1661
15425TIP3    H167690   6.134   1.117  16.054  0.2843  1.2788  1.1479
15425TIP3    H267691   6.146   1.091  16.203  0.6067 -0.8660  0.7683
15426TIP3   OH267692   3.387   0.443  16.971 -0.4200  0.0381  0.3706
15426TIP3    H167693   3.465   0.401  17.010 -0.4006  0.4837  0.8266
15426TIP3    H267694   3.336   0.371  16.935 -0.1044 -0.3203  0.6359
15427TIP3   OH267695   3.800   4.144  15.941  0.2686 -0.1872  0.1805
15427TIP3    H167696   3.784   4.135  15.847 -1.0749  1.6147  0.1920
15427TIP3    H267697   3.713   4.159  15.979  0.9631  0.6088  1.5123
15428TIP3   OH267698   0.784   3.733   1.852  0.4287  0.3671  0.1036
15428TIP3    H167699   0.815   3.688   1.774  1.0736  0.8545  0.0614
15428TIP3    H267700   0.862   3.742   1.907  0.2805  1.2459  0.1929
15429TIP3   OH267701   1.213   6.526   5.280  0.4533 -0.5414 -0.0751
15429TIP3    H167702   1.195   6.543   5.188  1.0701  0.1728 -0.0832
15429TIP3    H267703   1.309   6.523   5.285  0.5283  1.6384  0.8736
15430TIP3   OH267704   6.710   1.123   0.591 -0.2222  0.1426 -0.4156
15430TIP3    H167705   6.698   1.194   0.655  0.8379 -0.3497  0.3631
15430TIP3    H267706   6.803   1.125   0.570 -0.0936 -1.2362 -0.0893
15431TIP3   OH267707   2.855   1.202  15.934  0.3048  0.1814  0.4151
15431TIP3    H167708   2.926   1.257  15.965  0.4737 -0.3670  1.0171
15431TIP3    H267709   2.815   1.252  15.862  0.2656  1.2173  1.1380
15432TIP3   OH267710   4.344   1.631  15.311 -0.2540  0.4346  0.0847
15432TIP3    H167711   4.319   1.579  15.388 -2.3464  1.1281 -0.0474
15432TIP3    H267712   4.439   1.627  15.309 -0.2301 -1.0441  1.7000
15433TIP3   OH267713   5.093   3.945   5.688  0.8852  0.8933  0.0024
15433TIP3    H167714   5.117   3.884   5.618  0.0099 -0.7142  1.0437
15433TIP3    H267715   5.008   3.980   5.661 -1.6578 -2.9835  2.0760
15434TIP3   OH267716   6.740   5.661   5.020 -0.3361 -0.1404 -0.3852
15434TIP3    H167717   6.778   5.714   4.949  0.6303 -1.8648 -1.2389
15434TIP3    H267718   6.780   5.574   5.008 -2.4324 -1.2825  0.4558
15435TIP3   OH267719   1.059   1.996  13.246 -0.1428 -0.6326 -0.3195
15435TIP3    H167720   1.065   2.038  13.161  1.9320 -1.2156 -0.5100
15435TIP3    H267721   1.079   1.904  13.228 -2.3450 -1.3153  0.4218
15436TIP3   OH267722   2.048   3.439  14.427 -0.3955 -0.3331  0.0739
15436TIP3    H167723   1.992   3.517  14.421 -1.1223 -0.5301  2.8737
15436TIP3    H267724   2.130   3.472  14.464  1.0286 -0.2604 -2.8511
15437TIP3   OH267725   3.927   4.021   3.520 -0.3606  0.3277  0.0998
15437TIP3    H167726   3.980   4.036   3.598 -1.2266 -0.0828  0.7757
15437TIP3    H267727   3.953   4.091   3.460  0.5673  0.4392  0.6115
15438TIP3   OH267728   0.793   4.526  14.696 -0.2408 -0.3556  0.0952
15438TIP3    H167729   0.814   4.466  14.624 -2.2719 -1.5465  0.4405
15438TIP3    H267730   0.785   4.471  14.773 -0.4329  0.5955  0.7810
15439TIP3   OH267731   6.456   5.537   0.452 -0.0449 -0.2956  0.0946
15439TIP3    H167732   6.464   5.506   0.362 -0.1668 -3.1747  0.9890
15439TIP3    H267733   6.531   5.499   0.497 -0.8333 -0.2161  1.5339
15440TIP3   OH267734   1.519   3.428   5.013 -0.2111 -0.1386 -0.5158
15440TIP3    H167735   1.602   3.448   4.971 -0.8171  1.4992 -1.0365
15440TIP3    H267736   1.482   3.514   5.034 -0.1784 -0.8326  2.9760
15441TIP3   OH267737   4.735   2.236   2.810 -0.4976  0.3682  0.3152
15441TIP3    H167738   4.777   2.276   2.887 -0.6219  0.8690  0.1268
15441TIP3    H267739   4.799   2.249   2.740  0.0475 -0.9661  0.5422
15442TIP3   OH267740   2.295   0.532  15.402  0.1443  0.2704  0.1029
15442TIP3    H167741   2.202   0.546  15.382 -0.5030 -2.2074  0.9045
15442TIP3    H267742   2.305   0.562  15.492  0.2119  0.8670 -0.1023
15443TIP3   OH267743   6.367   2.414   1.913 -0.0073 -0.4431 -0.3885
15443TIP3    H167744   6.361   2.507   1.938 -1.4636 -0.2156 -1.4711
15443TIP3    H267745   6.370   2.367   1.996 -2.5166  0.4120  0.2722
15444TIP3   OH267746   1.354   6.284   5.140 -0.2733 -0.3756  0.0195
15444TIP3    H167747   1.347   6.204   5.192  1.2399  0.6433  1.9159
15444TIP3    H267748   1.350   6.355   5.204  0.5027  0.9915 -1.3748
15445TIP3   OH267749   5.735   3.644   3.773 -0.0607 -0.1786 -0.2704
15445TIP3    H167750   5.724   3.701   3.696  1.0902  0.7647  0.2158
15445TIP3    H267751   5.648   3.609   3.790 -0.3638 -0.3128 -1.9359
15446TIP3   OH267752   1.101   1.834  15.994  0.1288  0.2242 -0.2406
15446TIP3    H167753   1.088   1.927  15.974  0.7229  0.4824  0.5294
15446TIP3    H267754   1.042   1.788  15.934 -0.7055  1.1280 -0.1328
15447TIP3   OH267755   3.151   4.869   2.008  0.0895  0.2484  0.1777
15447TIP3    H167756   3.111   4.947   1.970 -0.2595 -0.4247 -0.8788
15447TIP3    H267757   3.240   4.869   1.972  0.6121  0.9876  1.4184
15448TIP3   OH267758   0.603   0.127  11.059  0.2024  0.5544  0.3448
15448TIP3    H167759   0.608   0.172  10.974 -0.7736 -0.9615 -0.5688
15448TIP3    H267760   0.554   0.047  11.040  2.2285 -1.1174  1.8175
15449TIP3   OH267761   0.069   3.516  12.269  0.0601 -0.0979 -0.2229
15449TIP3    H167762   0.079   3.449  12.337 -0.7435 -1.1468 -1.1068
15449TIP3    H267763   0.158   3.530  12.236  0.1623 -1.2214 -0.4695
15450TIP3   OH267764   0.562   6.263   4.882 -0.5723 -0.0298  0.0926
15450TIP3    H167765   0.574   6.168   4.875  1.3218  0.1659  0.3181
15450TIP3    H267766   0.530   6.289   4.796  1.9623 -0.5013 -1.0846
15451TIP3   OH267767   5.451   1.762  13.069  0.2898  0.0015 -0.4253
15451TIP3    H167768   5.518   1.812  13.023 -0.5695  0.7002 -0.9375
15451TIP3    H267769   5.391   1.828  13.105 -0.3843 -0.6176 -0.3713
15452TIP3   OH267770   3.925   0.631  15.683 -0.5817  0.3957 -0.0897
15452TIP3    H167771   3.856   0.622  15.618  0.2270  0.6800 -1.0142
15452TIP3    H267772   3.929   0.546  15.726 -0.5355 -0.0927 -1.0340
15453TIP3   OH267773   6.315   6.612  14.300 -0.2058 -0.1646 -0.3446
15453TIP3    H167774   6.257   6.538  14.318 -0.6522  0.1043 -0.6678
15453TIP3    H267775   6.262   6.690  14.317 -0.3769  0.0975 -1.8757
15454TIP3   OH267776   6.570   0.967   1.006 -0.0183 -0.0487 -0.4402
15454TIP3    H167777   6.496   0.919   1.042 -0.0512  0.9195  0.8759
15454TIP3    H267778   6.555   0.969   0.912 -1.2348 -0.5563 -0.2696
15455TIP3   OH267779   5.309   2.041   1.639 -0.0289 -0.6188  0.2906
15455TIP3    H167780   5.300   2.094   1.560 -0.6857  1.4544  1.6460
15455TIP3    H267781   5.315   2.106   1.710  3.0842 -2.3120  1.7544
15456TIP3   OH267782   6.242   3.581  14.754 -0.1640 -0.1627  0.0116
15456TIP3    H167783   6.310   3.518  14.778  2.1276  1.6396 -1.2539
15456TIP3    H267784   6.230   3.568  14.660 -1.6870 -0.5018  0.2316
15457TIP3   OH267785   6.767   3.328  12.931 -0.3517 -0.3505  0.3501
15457TIP3    H167786   6.716   3.251  12.909 -0.5057 -0.2035  0.1966
15457TIP3    H267787   6.711   3.402  12.907 -0.4517 -0.1891  1.0569
15458TIP3   OH267788   1.391   0.424   3.818 -0.0063 -0.2061 -0.4502
15458TIP3    H167789   1.305   0.407   3.779  0.0440  0.7055 -0.9873
15458TIP3    H267790   1.435   0.481   3.755  0.2472  0.9331  0.7177
15459TIP3   OH267791   4.218   4.239  13.084 -0.1899 -0.2668  0.2820
15459TIP3    H167792   4.134   4.237  13.129 -0.5665 -3.1879 -0.3791
15459TIP3    H267793   4.212   4.314  13.025 -2.5621 -0.7568 -0.1665
15460TIP3   OH267794   6.237   4.885  15.509  0.2243  0.1746  0.0165
15460TIP3    H167795   6.146   4.859  15.522  0.5398  0.0993  2.7216
15460TIP3    H267796   6.259   4.934  15.588  1.6997  2.7951 -1.8781
15461TIP3   OH267797   0.313   0.552  12.632 -0.5488  0.3306 -0.0042
15461TIP3    H167798   0.328   0.568  12.726 -1.6077 -1.7933  0.5868
15461TIP3    H267799   0.236   0.604  12.610 -0.1140  1.0802  0.2043
15462TIP3   OH267800   2.362   1.108  14.214  0.2562 -0.3759  0.4290
15462TIP3    H167801   2.343   1.156  14.295  1.4619  2.3118 -0.7616
15462TIP3    H267802   2.455   1.085  14.222  0.0800 -1.1696  0.2865
15463TIP3   OH267803   2.198   0.006   1.308 -0.3922 -0.5364  0.2188
15463TIP3    H167804   2.254  -0.070   1.326  0.3014  0.0187  0.4634
15463TIP3    H267805   2.122  -0.006   1.365  0.8238  0.1552  2.0642
15464TIP3   OH267806   4.869   5.431   2.206 -0.1476 -0.0194  0.3804
15464TIP3    H167807   4.911   5.516   2.219  0.4333 -0.2733  0.2133
15464TIP3    H267808   4.899   5.403   2.119  0.6683 -0.9527  0.9470
15465TIP3   OH267809   1.640   2.240  12.156  0.0045 -0.2328 -0.7886
15465TIP3    H167810   1.647   2.329  12.122  0.8635  0.0867  0.1618
15465TIP3    H267811   1.548   2.217  12.145 -0.5281  1.2978  0.2232
15466TIP3   OH267812   0.586   2.028   4.960 -0.0607  0.3370  0.2937
15466TIP3    H167813   0.664   2.070   4.996  0.7082  0.8180 -1.8026
15466TIP3    H267814   0.523   2.099   4.949 -0.4977  0.0965  1.1692
15467TIP3   OH267815   2.342   5.005  16.984  0.1454 -0.0002  0.1498
15467TIP3    H167816   2.328   4.992  17.078  1.3655 -1.1009  0.1960
15467TIP3    H267817   2.332   4.918  16.946 -2.6634  0.7513 -1.1103
15468TIP3   OH267818   1.213   4.730   5.474  0.3277  0.6467  0.6825
15468TIP3    H167819   1.277   4.791   5.438  0.4500 -0.8171 -1.7771
15468TIP3    H267820   1.134   4.744   5.422 -0.0856 -0.3171  1.0174
15469TIP3   OH267821   0.132   2.511   2.191  0.0107 -0.0768 -0.0218
15469TIP3    H167822   0.205   2.509   2.253  0.6055  1.3615 -0.6108
15469TIP3    H267823   0.174   2.513   2.105 -0.7565 -0.4365 -0.4147
15470TIP3   OH267824   2.309   1.423  13.808 -0.2660  0.4399  0.7436
15470TIP3    H167825   2.403   1.437  13.818  0.2575 -2.1191 -0.0214
15470TIP3    H267826   2.282   1.380  13.888 -0.3979 -0.5075  0.2017
15471TIP3   OH267827   1.835   3.082  13.808 -0.1402 -0.3298  0.7562
15471TIP3    H167828   1.750   3.059  13.846  0.0131 -0.9028  0.7636
15471TIP3    H267829   1.854   3.169  13.843 -0.3855 -0.5043  1.3420
15472TIP3   OH267830   1.209   6.538  16.031 -0.7920  0.1580 -0.1736
15472TIP3    H167831   1.233   6.457  16.077 -0.1575  0.7074  0.4908
15472TIP3    H267832   1.236   6.523  15.941 -0.6628 -0.3704 -0.0505
15473TIP3   OH267833   0.551   5.760   6.292  0.4787  0.2072 -0.3766
15473TIP3    H167834   0.577   5.679   6.248  0.5049  0.2169 -0.3798
15473TIP3    H267835   0.628   5.785   6.343 -0.8869 -2.0593  3.1213
15474TIP3   OH267836   5.736   6.486  17.221  0.2406 -0.1097  0.1964
15474TIP3    H167837   5.743   6.581  17.208  0.0126  0.2355  2.3174
15474TIP3    H267838   5.681   6.477  17.298  1.4276 -1.9415  0.8721
15475TIP3   OH267839   3.778   1.755  13.509 -0.0466  0.2307  0.3526
15475TIP3    H167840   3.840   1.695  13.550 -1.0126 -0.8884  0.2270
15475TIP3    H267841   3.700   1.702  13.494 -1.2919  1.7697  1.1277
15476TIP3   OH267842   6.761   4.581  16.047  0.3553  0.3736  0.6939
15476TIP3    H167843   6.694   4.648  16.030 -0.2681 -0.0914  1.2728
15476TIP3    H267844   6.806   4.572  15.963  0.4635  1.5289  0.6121
15477TIP3   OH267845   2.936   0.330  15.419  0.6305 -0.6828  0.3334
15477TIP3    H167846   2.853   0.298  15.383  1.0068 -1.8461  0.4520
15477TIP3    H267847   2.948   0.417  15.380 -0.0115 -1.0343 -0.6778
15478TIP3   OH267848   6.786   4.195   0.325  0.2747  0.1493 -0.1283
15478TIP3    H167849   6.857   4.133   0.340  0.3599  0.2238 -0.2255
15478TIP3    H267850   6.753   4.175   0.238  0.0901  0.0295 -0.0320
15479TIP3   OH267851   4.400   4.667  14.042  0.1354 -0.3562  0.0765
15479TIP3    H167852   4.333   4.616  14.088 -0.0317  0.4847  0.8075
15479TIP3    H267853   4.367   4.675  13.952 -0.1352 -0.9985  0.1160
15480TIP3   OH267854   3.575   4.586   3.360 -0.2143  0.3316  0.0633
15480TIP3    H167855   3.660   4.630   3.359 -0.5369  1.2271 -3.8151
15480TIP3    H267856   3.596   4.494   3.342 -0.0106  0.3897  0.0051
15481TIP3   OH267857   4.177   2.393  12.093  1.1041 -0.9719 -0.0384
15481TIP3    H167858   4.113   2.364  12.029  0.7742  0.7931 -0.5558
15481TIP3    H267859   4.135   2.378  12.178 -1.1835  2.4651 -0.3737
15482TIP3   OH267860   4.773   0.296   0.296 -0.1313 -0.3684 -0.0240
15482TIP3    H167861   4.686   0.259   0.287 -0.0082 -0.6774  0.0328
15482TIP3    H267862   4.786   0.349   0.217 -0.5122 -0.0206  0.1441
15483TIP3   OH267863   2.878   1.425   6.335 -0.1011  0.2956 -0.7834
15483TIP3    H167864   2.845   1.340   6.307 -0.3649  0.3879 -0.7577
15483TIP3    H267865   2.926   1.459   6.259  0.6706 -0.2134 -0.5305
15484TIP3   OH267866   5.034   1.098  14.577 -0.5795  0.3211 -0.4893
15484TIP3    H167867   4.960   1.042  14.600 -1.5111  1.1808 -1.2950
15484TIP3    H267868   4.999   1.157  14.509  0.4856  1.5693  0.0089
15485TIP3   OH267869   1.693   3.931  16.557 -0.1934 -0.1058 -0.3665
15485TIP3    H167870   1.639   3.876  16.614 -1.0503  0.5053 -0.5720
15485TIP3    H267871   1.641   4.011  16.544 -0.4362 -0.5933 -2.7544
15486TIP3   OH267872   4.468   6.130   2.665  0.3312 -0.8189 -0.0196
15486TIP3    H167873   4.378   6.115   2.635  0.3679 -1.0572 -0.0152
15486TIP3    H267874   4.488   6.219   2.637 -1.4587  1.0092  3.8607
15487TIP3   OH267875   1.794   0.449   1.669 -0.3462 -0.4287  0.9325
15487TIP3    H167876   1.761   0.444   1.759  1.2921 -0.2715  1.5637
15487TIP3    H267877   1.851   0.373   1.660 -1.4595 -1.1517 -0.4147
15488TIP3   OH267878   3.016   3.742  12.600 -0.4451 -0.2247 -0.7077
15488TIP3    H167879   3.020   3.705  12.512 -1.9289  1.1566 -1.3893
15488TIP3    H267880   2.923   3.742  12.623 -0.5623  2.8971 -0.7327
15489TIP3   OH267881   0.886   4.266  11.057  0.5569  0.7589 -0.2200
15489TIP3    H167882   0.833   4.296  11.130 -0.2947 -0.6343 -0.2347
15489TIP3    H267883   0.961   4.326  11.055 -0.0966  1.6402  0.9281
15490TIP3   OH267884   5.320   2.599   0.824 -0.3833 -0.1864  0.0751
15490TIP3    H167885   5.365   2.561   0.900 -0.4517 -1.0048 -0.2798
15490TIP3    H267886   5.382   2.662   0.788 -0.1262 -0.2071  0.4760
15491TIP3   OH267887   5.057   1.502   5.241 -0.1436 -0.5381  0.4964
15491TIP3    H167888   5.110   1.436   5.286 -1.1510 -1.2217  0.7183
15491TIP3    H267889   5.019   1.455   5.167 -0.4452 -0.0568  0.3422
15492TIP3   OH267890   2.923   4.786   5.969  0.0128  0.3677  0.1086
15492TIP3    H167891   2.843   4.749   6.007 -0.6146  0.1657 -1.3449
15492TIP3    H267892   2.973   4.816   6.045 -0.3316 -1.6779  1.2289
15493TIP3   OH267893   3.521   0.557   5.183  0.1462 -0.2529 -0.0594
15493TIP3    H167894   3.506   0.557   5.089 -0.0146  3.1049 -0.1629
15493TIP3    H267895   3.484   0.474   5.213 -0.3709 -1.1436 -2.8354
15494TIP3   OH267896   5.343   1.853  14.530 -0.2850 -0.0486 -0.2209
15494TIP3    H167897   5.388   1.771  14.510 -2.6836 -1.6128  0.3870
15494TIP3    H267898   5.259   1.826  14.566 -0.0348  2.6523  2.8870
15495TIP3   OH267899   4.042   4.781   1.743  0.1898  0.2980  0.6625
15495TIP3    H167900   3.989   4.859   1.761  0.1015  0.5897 -0.7763
15495TIP3    H267901   4.104   4.809   1.676 -1.3326 -1.4021 -1.6154
15496TIP3   OH267902   5.553   1.843   2.407  0.6744 -0.1337  0.3240
15496TIP3    H167903   5.579   1.873   2.494  0.5690  0.6042  0.1118
15496TIP3    H267904   5.593   1.757   2.398  0.9122 -0.0996  0.9965
15497TIP3   OH267905   5.502   4.581   5.024  0.1478 -0.0530  0.7661
15497TIP3    H167906   5.475   4.604   4.935  2.6909  2.0878  0.4217
15497TIP3    H267907   5.506   4.486   5.023 -2.1924 -0.2359 -0.6138
15498TIP3   OH267908   4.704   3.377  15.980  0.2121 -0.3526 -0.0909
15498TIP3    H167909   4.633   3.329  16.022  0.9973 -0.8521  0.6951
15498TIP3    H267910   4.780   3.364  16.037  0.5635  1.4918 -0.0511
15499TIP3   OH267911   1.757   2.768  15.084  0.0343 -0.2466  0.0309
15499TIP3    H167912   1.813   2.764  15.161  1.2815 -2.2483 -0.8938
15499TIP3    H267913   1.677   2.725  15.110  0.7156 -1.5426  0.0461
15500TIP3   OH267914   5.870   4.924  14.420  0.2091  0.2841 -0.3408
15500TIP3    H167915   5.832   4.845  14.458  2.7065 -0.2662  1.3062
15500TIP3    H267916   5.962   4.902  14.405  0.7066  2.4975 -0.9764
15501TIP3   OH267917   2.686   0.470   2.742  0.1724 -0.2186 -0.3697
15501TIP3    H167918   2.748   0.541   2.725  1.6167 -1.1408  0.7937
15501TIP3    H267919   2.724   0.394   2.699  0.0111 -0.8638  0.5826
15502TIP3   OH267920   4.098   0.887  11.971 -0.2545 -0.0710  0.0696
15502TIP3    H167921   4.187   0.851  11.968  0.3190  1.2410  0.7329
15502TIP3    H267922   4.110   0.981  11.978 -1.7080  0.1225  0.2828
15503TIP3   OH267923   2.999   5.335  12.007  0.6109 -0.5096  0.5379
15503TIP3    H167924   3.027   5.426  11.998  0.5041 -0.6279 -1.2780
15503TIP3    H267925   3.032   5.308  12.093  1.3949  0.9693  0.7298
15504TIP3   OH267926   5.957   2.622   4.968  0.1812  0.7460  0.1490
15504TIP3    H167927   5.955   2.529   4.990  1.4195  0.5609 -0.4224
15504TIP3    H267928   5.903   2.630   4.890  1.1565  0.2603 -0.5880
15505TIP3   OH267929   3.769   1.027   3.239  0.4689  0.0246  0.5747
15505TIP3    H167930   3.848   1.061   3.198 -0.3541 -0.0354 -1.1497
15505TIP3    H267931   3.702   1.092   3.220 -0.5182 -1.2304 -0.4274
15506TIP3   OH267932   3.654   2.714   2.947 -0.1045 -0.3149 -0.3287
15506TIP3    H167933   3.654   2.639   3.007 -0.2195 -1.1330 -1.3268
15506TIP3    H267934   3.728   2.767   2.976  0.6110 -1.3376 -0.2259
15507TIP3   OH267935   3.730   1.904  16.757  0.1185 -0.5053 -0.3216
15507TIP3    H167936   3.745   1.818  16.717  0.5507  0.3780 -2.1343
15507TIP3    H267937   3.809   1.954  16.738  0.0238  0.2119  1.0180
15508TIP3   OH267938   4.815   2.789   3.974  0.0780  0.3385  0.5487
15508TIP3    H167939   4.748   2.797   3.906 -2.4221 -0.9071  2.6720
15508TIP3    H267940   4.825   2.878   4.007 -0.4436  0.5760  0.0987
15509TIP3   OH267941   4.151   1.808  12.270 -0.5089 -0.3092 -0.0328
15509TIP3    H167942   4.172   1.827  12.178  2.0495  0.3851  0.6206
15509TIP3    H267943   4.126   1.715  12.270  1.8283 -1.0162 -1.1373
15510TIP3   OH267944   0.421   2.513  16.736  0.6775 -0.0561 -0.9419
15510TIP3    H167945   0.351   2.451  16.714 -0.2094 -0.3575  2.2401
15510TIP3    H267946   0.489   2.459  16.778  0.3247  0.8917  0.9925
15511TIP3   OH267947   0.036   4.664  12.681 -0.5034  0.0624 -0.0441
15511TIP3    H167948  -0.018   4.659  12.601 -1.2715  0.3374  0.4418
15511TIP3    H267949  -0.027   4.657  12.752 -0.2366  2.8404  0.5958
15512TIP3   OH267950   4.543   3.190  12.992  0.5248 -0.0285 -0.3799
15512TIP3    H167951   4.447   3.186  12.986  0.3903  0.6513  0.8486
15512TIP3    H267952   4.574   3.155  12.909 -0.7894 -0.5758 -0.6689
15513TIP3   OH267953   6.553   0.432   5.442  0.1671 -0.8990  0.7913
15513TIP3    H167954   6.530   0.421   5.349 -0.5989  0.5567  0.7830
15513TIP3    H267955   6.584   0.522   5.448  1.2699 -1.3196  1.7656
15514TIP3   OH267956   6.715   4.999   1.608 -0.1467 -0.7369 -0.5033
15514TIP3    H167957   6.767   5.076   1.583  0.5740 -1.0911 -0.1125
15514TIP3    H267958   6.655   5.032   1.674  0.0847 -0.4814 -0.4187
15515TIP3   OH267959   6.441   3.774  13.069 -0.4770  0.2054 -0.5779
15515TIP3    H167960   6.502   3.781  13.142  0.1362  1.3082 -1.1665
15515TIP3    H267961   6.373   3.839  13.088 -1.0364 -0.4379 -0.3402
15516TIP3   OH267962   2.165   2.214  16.563  0.3267 -0.3842 -0.4714
15516TIP3    H167963   2.107   2.286  16.587 -0.8931 -1.5200  0.0766
15516TIP3    H267964   2.253   2.251  16.573 -0.2699  1.2757 -1.0213
15517TIP3   OH267965   2.366   2.288  15.889  0.5627  0.3657 -0.0921
15517TIP3    H167966   2.399   2.363  15.840  2.8778  0.0707  0.8735
15517TIP3    H267967   2.432   2.220  15.877 -2.0304 -2.0512 -1.9406
15518TIP3   OH267968   0.314   6.082   3.754  0.1103  0.3833  0.7390
15518TIP3    H167969   0.292   6.002   3.801  0.3350  1.4881  2.8351
15518TIP3    H267970   0.325   6.054   3.663 -1.6274 -1.6241  1.0737
15519TIP3   OH267971   0.247   0.228   1.162 -0.0121  0.5990  0.2527
15519TIP3    H167972   0.301   0.305   1.178 -1.5843  1.6180  0.8586
15519TIP3    H267973   0.304   0.169   1.113  1.0400  2.3756 -0.7524
15520TIP3   OH267974   6.452   2.671  12.602  0.1687 -0.0272  0.0293
15520TIP3    H167975   6.501   2.736  12.652  0.5921  3.5722 -4.4648
15520TIP3    H267976   6.360   2.695  12.617  0.3028  1.2755 -1.0709
15521TIP3   OH267977   5.316   1.504  11.913 -0.0496  0.0135 -0.2402
15521TIP3    H167978   5.264   1.424  11.901 -0.0394 -0.1579  0.8109
15521TIP3    H267979   5.404   1.479  11.884 -0.2345 -0.1012 -0.7204
15522TIP3   OH267980   2.059   1.761   5.601 -0.0439  0.1182  0.2186
15522TIP3    H167981   2.022   1.806   5.677  0.3836 -0.8919  1.0314
15522TIP3    H267982   1.998   1.690   5.583 -0.7708  1.0254 -1.1298
15523TIP3   OH267983   4.939   5.170   3.186 -0.7938 -0.2478  0.2541
15523TIP3    H167984   4.860   5.223   3.190 -0.2673  0.5687  0.0147
15523TIP3    H267985   4.991   5.209   3.115  0.6156  0.3475  1.5516
15524TIP3   OH267986   3.306   2.692  12.477  0.0609  0.0799 -0.1907
15524TIP3    H167987   3.368   2.676  12.406 -0.8630  0.8898 -1.2127
15524TIP3    H267988   3.220   2.688  12.435 -0.6329 -1.2448  1.2296
15525TIP3   OH267989   1.819   4.445  17.195 -0.3649  0.4544 -0.1040
15525TIP3    H167990   1.841   4.531  17.160  1.1210 -0.2389 -0.9806
15525TIP3    H267991   1.898   4.416  17.241 -0.7189 -0.5592 -0.1001
15526TIP3   OH267992   6.681   4.802  14.118  0.3037 -0.2628  0.0056
15526TIP3    H167993   6.623   4.726  14.114  2.8271 -2.2986 -1.2565
15526TIP3    H267994   6.714   4.802  14.207 -0.4528 -0.0021  0.2973
15527TIP3   OH267995   5.015   0.870   6.606  0.2801  0.3247  0.2249
15527TIP3    H167996   5.065   0.951   6.614  0.3167  0.3563 -0.3337
15527TIP3    H267997   4.924   0.898   6.608  0.2938  0.4087 -0.2599
15528TIP3   OH267998   0.876   0.096   0.592 -0.0207 -0.6474 -0.2647
15528TIP3    H167999   0.899   0.015   0.547  0.5511 -0.1245 -0.9429
15528TIP3    H268000   0.955   0.150   0.586  0.3991 -0.8684  2.1430
15529TIP3   OH268001   6.280   6.126  14.714 -0.3002  0.0682 -0.8070
15529TIP3    H168002   6.372   6.101  14.704 -0.0273  0.8966 -0.4449
15529TIP3    H268003   6.242   6.111  14.627  0.1215 -0.4767 -0.9027
15530TIP3   OH268004   4.555   2.564   5.827 -0.1374  0.3547  0.0701
15530TIP3    H168005   4.506   2.536   5.750  1.2064 -0.1770 -0.6321
15530TIP3    H268006   4.632   2.507   5.829 -0.4083 -0.0068  2.1334
15531TIP3   OH268007   4.808   3.406  17.018  0.3824 -0.1576  0.0975
15531TIP3    H168008   4.834   3.482  16.966  1.7406 -0.5887  0.0795
15531TIP3    H268009   4.843   3.331  16.970  2.2997 -0.5390  1.8878
15532TIP3   OH268010   6.348   4.526  14.846  0.4606 -0.3560 -0.3582
15532TIP3    H168011   6.370   4.463  14.914 -0.4823  0.0551  0.3476
15532TIP3    H268012   6.405   4.601  14.863  0.1550 -0.2128  0.0502
15533TIP3   OH268013   5.462   1.222   5.563  0.2785  0.0893 -0.0131
15533TIP3    H168014   5.401   1.293   5.583 -1.3196 -1.2545  0.1629
15533TIP3    H268015   5.505   1.249   5.482  0.2706  1.5695  0.4430
15534TIP3   OH268016   2.400   3.061   0.216  0.1842  0.6322 -0.6631
15534TIP3    H168017   2.391   2.969   0.192 -0.2916  0.9404 -1.7055
15534TIP3    H268018   2.401   3.108   0.132  0.3923  1.5806 -0.1445
15535TIP3   OH268019   6.568   2.286   0.388  0.2947 -0.8970  0.2923
15535TIP3    H168020   6.549   2.262   0.298 -2.2778  0.4172  0.4110
15535TIP3    H268021   6.656   2.325   0.384 -1.2602  2.9264 -2.4913
15536TIP3   OH268022   3.633   0.706   0.636  0.3064 -0.6226  0.5230
15536TIP3    H168023   3.713   0.731   0.590  1.7735 -2.7390  1.7480
15536TIP3    H268024   3.613   0.781   0.691  1.9949 -0.3779  0.8513
15537TIP3   OH268025   5.433   4.503  12.793  0.0300 -0.2641  0.1232
15537TIP3    H168026   5.472   4.525  12.877 -0.4134  0.8707  0.0637
15537TIP3    H268027   5.414   4.588  12.753  0.6578 -0.7667 -1.3323
15538TIP3   OH268028   3.497   2.323   1.631 -0.6365 -0.3204 -0.2203
15538TIP3    H168029   3.416   2.370   1.647 -0.2645  0.5812 -0.8928
15538TIP3    H268030   3.543   2.324   1.715 -0.7926  0.2166 -0.1388
15539TIP3   OH268031   0.974   1.633   1.169  0.3541 -0.6367  0.6357
15539TIP3    H168032   0.980   1.704   1.233 -0.7486 -0.8804  1.0267
15539TIP3    H268033   1.065   1.617   1.142  0.5456  1.6683 -0.2937
15540TIP3   OH268034   5.204   6.003  15.305 -0.2153  0.3229  0.6897
15540TIP3    H168035   5.186   5.965  15.391  1.5930  2.2752  2.0388
15540TIP3    H268036   5.281   5.956  15.273  0.0622  0.6692  0.8537
15541TIP3   OH268037   3.857   2.041  13.077 -0.6220  0.7196  0.3255
15541TIP3    H168038   3.904   1.974  13.126 -1.4669 -0.3093 -0.2147
15541TIP3    H268039   3.779   2.060  13.129 -1.3695 -0.1586 -0.4261
15542TIP3   OH268040   5.599   4.228  14.798 -0.0503 -0.7678 -0.1582
15542TIP3    H168041   5.593   4.155  14.860  0.2995 -1.0400 -0.4399
15542TIP3    H268042   5.664   4.287  14.836 -0.2802 -0.6384  0.0340
15543TIP3   OH268043   6.415   2.296  11.114 -0.1641 -0.2007  0.0217
15543TIP3    H168044   6.453   2.254  11.037  0.7932  0.1623  0.2840
15543TIP3    H268045   6.422   2.230  11.183 -0.2187 -0.2102  0.0186
15544TIP3   OH268046   3.425   5.685  12.708 -0.2416  0.3026 -0.2093
15544TIP3    H168047   3.389   5.691  12.796  2.2077  1.0719  0.8535
15544TIP3    H268048   3.419   5.593  12.685 -1.8983  0.2664  0.3007
15545TIP3   OH268049   0.021   0.577  16.623 -0.5704 -0.4008 -0.2822
15545TIP3    H168050   0.031   0.548  16.714  0.8488 -2.0907 -0.9333
15545TIP3    H268051  -0.006   0.669  16.631 -3.3482 -1.2642  1.8466
15546TIP3   OH268052   5.589   2.513   5.836 -0.3509  0.5555  0.6394
15546TIP3    H168053   5.608   2.482   5.925  0.7291 -0.3628  0.1140
15546TIP3    H268054   5.493   2.517   5.833 -0.4838 -1.0974  1.3182
15547TIP3   OH268055   4.066   4.230  12.192  0.0720  0.3769 -0.4785
15547TIP3    H168056   4.020   4.236  12.108  0.9128  1.4322 -0.8868
15547TIP3    H268057   4.057   4.138  12.218 -1.2958  0.3120 -1.0773
15548TIP3   OH268058   5.033   4.423   3.922  0.0852  0.1657 -0.8242
15548TIP3    H168059   4.965   4.452   3.861  1.1867 -1.5170 -2.9338
15548TIP3    H268060   4.990   4.357   3.976 -0.5833  0.8690 -0.4636
15549TIP3   OH268061   3.565   4.321   2.614  0.3206 -0.5744 -0.5554
15549TIP3    H168062   3.605   4.404   2.588 -1.0015  0.5674  0.8303
15549TIP3    H268063   3.472   4.332   2.592  0.0023 -1.4086  0.3029
15550TIP3   OH268064   6.339   4.461   4.970 -0.4032 -0.0547  0.0085
15550TIP3    H168065   6.397   4.418   5.033  0.3393  0.7640 -0.0896
15550TIP3    H268066   6.396   4.524   4.924 -0.7979 -1.0434 -1.9169
15551TIP3   OH268067   0.215   2.113   2.849 -0.6138  0.0972 -0.4470
15551TIP3    H168068   0.225   2.104   2.754  0.2951  0.5071 -0.3983
15551TIP3    H268069   0.275   2.184   2.873 -0.7746 -0.0578  0.4457
15552TIP3   OH268070   1.713   1.133  14.252  0.1179 -0.4115  0.0897
15552TIP3    H168071   1.719   1.039  14.269  0.6573 -0.0965  1.9181
15552TIP3    H268072   1.635   1.143  14.197  0.7347 -2.0118 -1.1300
15553TIP3   OH268073   4.821   6.152   4.908  0.0317 -0.0892 -0.6374
15553TIP3    H168074   4.745   6.155   4.849  0.5153  0.4433 -1.2451
15553TIP3    H268075   4.879   6.087   4.868 -0.5219 -1.2441  0.3649
15554TIP3   OH268076   4.401   5.345  14.837 -0.4731 -0.5933 -0.1693
15554TIP3    H168077   4.430   5.255  14.822 -0.9396 -0.6604 -0.7014
15554TIP3    H268078   4.408   5.387  14.751 -1.1245 -0.3736 -0.1193
15555TIP3   OH268079   5.817   0.165  16.718  0.3294  0.0530  0.6289
15555TIP3    H168080   5.762   0.106  16.769 -0.1870  0.0872  0.1211
15555TIP3    H268081   5.764   0.244  16.707  0.9257  0.5267  1.1047
15556TIP3   OH268082   0.818   6.772  10.825  0.0364 -0.1913 -0.2400
15556TIP3    H168083   0.740   6.827  10.819 -0.5758 -1.0867 -0.6943
15556TIP3    H268084   0.868   6.793  10.746  0.1715  0.2476 -0.0410
15557TIP3   OH268085   2.246   5.635  12.493  0.1299 -0.1788  0.4408
15557TIP3    H168086   2.279   5.616  12.581  1.5916  0.9201  0.1655
15557TIP3    H268087   2.185   5.563  12.474 -0.4874 -0.2356  2.4719
15558TIP3   OH268088   1.320   2.096  15.203 -0.4308 -0.6934  0.0541
15558TIP3    H168089   1.298   2.136  15.119 -1.0438 -1.9495 -0.4028
15558TIP3    H268090   1.259   2.134  15.265 -1.0131 -0.9128 -0.3768
15559TIP3   OH268091   5.900   1.956  11.099  0.2680  0.2152  0.2040
15559TIP3    H168092   5.969   1.950  11.033  0.1482 -0.4345  0.1237
15559TIP3    H268093   5.886   1.865  11.126 -1.3847  0.1739 -0.6604
15560TIP3   OH268094   1.991   0.972   5.367 -0.2412  0.2931  0.5396
15560TIP3    H168095   1.961   1.041   5.427 -1.0427  0.8401 -0.4487
15560TIP3    H268096   1.937   0.984   5.288  1.3901  0.1941 -0.6517
15561TIP3   OH268097   0.865   2.178   4.779  0.2472  0.0761  0.6947
15561TIP3    H168098   0.896   2.130   4.856  0.6143 -2.1888 -0.7354
15561TIP3    H268099   0.890   2.121   4.705 -1.3819  1.4321 -0.9875
15562TIP3   OH268100   2.770   3.772  13.400 -0.4187  0.0045 -1.0662
15562TIP3    H168101   2.796   3.689  13.439  0.6330  0.7772 -0.0867
15562TIP3    H268102   2.677   3.779  13.420 -0.0679  0.0367  0.7102
15563TIP3   OH268103   4.780   0.651   5.767  0.3188  0.1700 -0.5797
15563TIP3    H168104   4.784   0.597   5.846 -0.8550  1.2997  0.2994
15563TIP3    H268105   4.835   0.727   5.788  1.3707 -0.3028 -1.5253
15564TIP3   OH268106   5.270   1.728  15.300 -0.0544 -0.1250 -1.1592
15564TIP3    H168107   5.331   1.734  15.227  0.0835  0.3748 -1.0043
15564TIP3    H268108   5.232   1.815  15.308 -0.2433 -0.2384 -0.7862
15565TIP3   OH268109   3.796   3.634  13.093  0.2390 -0.2625 -0.7038
15565TIP3    H168110   3.886   3.607  13.076 -0.1775 -2.5929  0.4354
15565TIP3    H268111   3.751   3.621  13.009  0.2218 -2.6011 -0.3925
15566TIP3   OH268112   0.247   6.341   5.738 -0.0707  0.1795 -0.0923
15566TIP3    H168113   0.293   6.260   5.718  2.6209  1.3732  0.8153
15566TIP3    H268114   0.310   6.411   5.718 -1.3227  1.9189  1.6251
15567TIP3   OH268115   1.735   6.772  16.438 -0.1486 -0.4224 -0.5749
15567TIP3    H168116   1.710   6.745  16.350  0.0888 -0.2634 -0.6938
15567TIP3    H268117   1.657   6.757  16.491 -1.3210  2.2211 -1.3777
15568TIP3   OH268118   0.406   1.350  15.150  0.0949 -0.1105 -0.3948
15568TIP3    H168119   0.409   1.416  15.081 -0.9838  0.3187 -0.0474
15568TIP3    H268120   0.314   1.327  15.158  0.1931 -0.1376  0.9202
15569TIP3   OH268121   0.654   4.405  16.375 -0.4368  0.8029 -0.1721
15569TIP3    H168122   0.685   4.418  16.286 -0.2767 -1.5129 -0.5249
15569TIP3    H268123   0.559   4.393  16.365 -0.4806  0.9912  0.0245
15570TIP3   OH268124   5.392   1.407   0.396 -0.4417 -0.1383 -0.0489
15570TIP3    H168125   5.480   1.441   0.414  1.2248 -3.1563 -1.7246
15570TIP3    H268126   5.385   1.328   0.449 -1.0540 -1.3798 -1.8885
15571TIP3   OH268127   1.033   0.109  17.014 -0.2901 -0.3153  0.7447
15571TIP3    H168128   1.091   0.130  16.941 -1.1225  0.0506  0.1760
15571TIP3    H268129   1.078   0.040  17.062  1.5330  1.2566  1.4328
15572TIP3   OH268130   2.677   2.733   4.609 -0.6960  0.3121  0.2354
15572TIP3    H168131   2.678   2.700   4.699 -0.3791  2.0564  0.9159
15572TIP3    H268132   2.602   2.690   4.569  0.3317 -2.0760  0.6803
15573TIP3   OH268133   6.029   6.060  15.923 -0.4687  0.0564 -0.1549
15573TIP3    H168134   5.972   6.136  15.925 -0.1969  0.3912 -2.4750
15573TIP3    H268135   5.980   5.995  15.873  1.3036  0.5542 -2.7320
15574TIP3   OH268136   6.383   5.209  14.879  0.3841 -0.0158  0.2324
15574TIP3    H168137   6.389   5.299  14.910  1.4162 -0.5693  1.7492
15574TIP3    H268138   6.470   5.173  14.892  0.5396 -0.6935 -2.2389
15575TIP3   OH268139   0.946   4.015  17.167 -0.5110  0.2031  0.2119
15575TIP3    H168140   0.886   3.945  17.193 -0.1708 -0.0759  0.2546
15575TIP3    H268141   1.008   3.973  17.108 -1.7008  0.9742 -1.6888
15576TIP3   OH268142   2.405   6.068  12.456 -0.2617 -0.3219 -0.0908
15576TIP3    H168143   2.470   6.085  12.524  1.2740 -1.2647 -1.2536
15576TIP3    H268144   2.342   6.008  12.496  0.0643 -0.0773  0.7930
15577TIP3   OH268145   6.219   5.703  12.900  1.0022  0.0983 -0.1899
15577TIP3    H168146   6.162   5.761  12.850  0.8428  1.1677  1.1921
15577TIP3    H268147   6.160   5.634  12.932  0.6011  0.7862  0.5993
15578TIP3   OH268148   1.142   3.121   1.604 -0.1821 -0.2105 -0.1046
15578TIP3    H168149   1.216   3.123   1.544  1.9918  0.1441  2.4247
15578TIP3    H268150   1.141   3.031   1.637 -1.7294 -0.5687 -1.0305
15579TIP3   OH268151   2.232   0.143  11.818 -0.6621 -0.2744  0.2819
15579TIP3    H168152   2.292   0.199  11.770  1.1379 -1.1856  1.3791
15579TIP3    H268153   2.196   0.084  11.752 -0.4423  0.3482 -0.4010
15580TIP3   OH268154   2.408   6.175  16.443 -0.9435  0.0369  0.3480
15580TIP3    H168155   2.446   6.098  16.485  0.4511  0.4830 -0.0716
15580TIP3    H268156   2.327   6.191  16.492  0.1813  0.0250  2.3224
15581TIP3   OH268157   3.731   3.892  13.600 -0.2336 -0.3485 -0.2117
15581TIP3    H168158   3.692   3.844  13.527 -1.8773  0.2389  0.2198
15581TIP3    H268159   3.747   3.825  13.667 -0.5937 -0.6026 -0.3771
15582TIP3   OH268160   2.793   4.596  15.168 -0.4052  0.1823 -0.0758
15582TIP3    H168161   2.710   4.629  15.134 -1.3494  0.0883  2.0099
15582TIP3    H268162   2.801   4.509  15.130 -1.1650  0.2590 -0.4434
15583TIP3   OH268163   2.212   6.772  13.850  0.4353 -0.0625  0.3735
15583TIP3    H168164   2.249   6.830  13.916  2.5885 -0.5284 -0.3441
15583TIP3    H268165   2.247   6.803  13.767  1.9019 -2.4810 -0.0119
15584TIP3   OH268166   3.881   0.864  16.365 -0.2780  0.1238  0.0448
15584TIP3    H168167   3.952   0.903  16.314 -1.3543  1.6577 -0.3858
15584TIP3    H268168   3.820   0.829  16.300 -0.0273 -1.0048  0.3997
15585TIP3   OH268169   6.183   3.211  15.027  0.3807  0.0977 -0.2893
15585TIP3    H168170   6.160   3.119  15.038 -2.8821  0.9175  0.6993
15585TIP3    H268171   6.216   3.238  15.113  0.2861  0.1261 -0.2619
15586TIP3   OH268172   3.824   6.517  12.885 -0.0843  0.3017 -0.1527
15586TIP3    H168173   3.818   6.549  12.795 -0.5688 -0.9826 -0.5959
15586TIP3    H268174   3.771   6.437  12.886  0.0895  0.1755  1.2205
15587TIP3   OH268175   0.528   1.646  15.249 -0.1326  0.1713  0.0702
15587TIP3    H168176   0.580   1.566  15.257  0.4586  0.7395  4.4997
15587TIP3    H268177   0.593   1.715  15.232 -0.1653  0.1962  0.0456
15588TIP3   OH268178   6.309   2.221   0.457  0.1588 -0.3219  0.3548
15588TIP3    H168179   6.287   2.188   0.370 -0.4929  0.8825  0.0345
15588TIP3    H268180   6.395   2.262   0.446 -0.4342  0.8680 -0.0346
15589TIP3   OH268181   0.482   5.207   5.956  0.5207 -0.3548 -0.1135
15589TIP3    H168182   0.532   5.231   6.035 -0.0061  0.3007  0.0290
15589TIP3    H268183   0.504   5.115   5.941 -1.0042 -1.1573  2.0487
15590TIP3   OH268184   0.030   0.248  11.578 -0.2148  0.5458  0.2837
15590TIP3    H168185   0.124   0.242  11.600  0.0995  3.2847 -0.0252
15590TIP3    H268186  -0.013   0.259  11.663 -0.0567  1.0252  0.3058
15591TIP3   OH268187   3.433   1.707   0.011 -0.0402  0.4482  0.1850
15591TIP3    H168188   3.345   1.676  -0.011 -0.1905  1.2002 -0.3260
15591TIP3    H268189   3.491   1.652  -0.042 -0.2508  0.4445 -0.0486
15592TIP3   OH268190   1.051   3.624   1.820  0.8038  0.0624 -0.3876
15592TIP3    H168191   1.021   3.559   1.756  2.5227  0.4748 -1.6686
15592TIP3    H268192   1.110   3.681   1.771  1.0800  1.2456  1.2498
15593TIP3   OH268193   6.723   1.246   3.898 -0.1741 -0.4705  0.3523
15593TIP3    H168194   6.666   1.318   3.924  0.6818 -0.1856  1.5397
15593TIP3    H268195   6.681   1.168   3.933 -0.6598 -0.4519 -0.1846
15594TIP3   OH268196   0.824   5.190   1.600  0.1354  0.1835  1.1464
15594TIP3    H168197   0.757   5.140   1.645 -0.3563  0.8475  1.1650
15594TIP3    H268198   0.781   5.223   1.522 -0.1419  2.1825  2.0855
15595TIP3   OH268199   2.644   0.778  14.872 -0.3723  0.1341  0.0702
15595TIP3    H168200   2.606   0.843  14.931  0.7440  0.2483  0.7057
15595TIP3    H268201   2.722   0.746  14.918  0.9163  0.6986 -1.6049
15596TIP3   OH268202   3.749   2.286   0.115 -0.1327  0.1478  0.0842
15596TIP3    H168203   3.718   2.246   0.197 -2.0950 -1.8060 -1.4977
15596TIP3    H268204   3.706   2.371   0.113 -0.5236 -0.0162  0.8272
15597TIP3   OH268205   6.214   1.387  12.772 -0.5747 -0.4791 -0.2350
15597TIP3    H168206   6.224   1.316  12.835 -1.0332  0.7553  1.2977
15597TIP3    H268207   6.180   1.345  12.693  0.9459 -2.2140 -0.0177
15598TIP3   OH268208   6.018   4.644   1.707 -0.7141 -0.4064  0.4597
15598TIP3    H168209   6.087   4.618   1.646  0.7928  1.4613  1.2510
15598TIP3    H268210   5.993   4.732   1.678 -4.3285 -1.7475 -1.0582
15599TIP3   OH268211   3.447   0.661   6.096  0.1891  0.1497 -0.3671
15599TIP3    H168212   3.454   0.730   6.163  1.8076 -1.4874  1.2636
15599TIP3    H268213   3.533   0.660   6.054 -0.0804 -0.3700 -0.9167
15600TIP3   OH268214   4.334   5.948  16.259 -0.7173 -0.5249 -0.1687
15600TIP3    H168215   4.357   5.946  16.167  0.6000  1.3831  0.0496
15600TIP3    H268216   4.364   5.864  16.294 -0.6790 -1.0145 -1.3581
15601TIP3   OH268217   6.426   4.032  10.710  0.2406 -0.5276  0.1070
15601TIP3    H168218   6.352   3.999  10.762 -0.8198  0.4862 -0.6908
15601TIP3    H268219   6.434   4.124  10.735 -0.4313  0.0465 -1.6088
15602TIP3   OH268220   5.536   3.256  11.819  0.3031  0.0313 -0.2600
15602TIP3    H168221   5.507   3.196  11.888  0.2367 -0.3226 -0.5943
15602TIP3    H268222   5.625   3.280  11.843  0.3517 -0.2536 -0.1592
15603TIP3   OH268223   3.841   1.913  13.875  0.0230 -0.2221  0.2370
15603TIP3    H168224   3.774   1.981  13.876  1.7187  1.5256 -0.0051
15603TIP3    H268225   3.877   1.913  13.964  1.1996  0.4279 -0.2260
15604TIP3   OH268226   4.909   6.531   1.296  0.2872 -0.3509  0.0869
15604TIP3    H168227   4.971   6.603   1.293  0.5858 -0.6277 -0.4456
15604TIP3    H268228   4.867   6.539   1.382 -0.4353  1.0864 -0.3655
15605TIP3   OH268229   2.186   2.620  12.229 -0.3819  0.4819  0.3419
15605TIP3    H168230   2.260   2.665  12.189  1.1580 -0.6471  1.7663
15605TIP3    H268231   2.209   2.527  12.225 -0.6612  0.2390  2.7099
15606TIP3   OH268232   4.163   0.185   3.453 -0.1247 -0.7892 -0.2973
15606TIP3    H168233   4.202   0.272   3.446 -0.9635 -0.3899 -0.0838
15606TIP3    H268234   4.073   0.201   3.482 -0.0290 -1.7701  0.6094
15607TIP3   OH268235   6.604   1.881   1.568 -0.0057 -0.0623 -0.3879
15607TIP3    H168236   6.645   1.818   1.509 -0.8611 -1.0359  0.0233
15607TIP3    H268237   6.676   1.915   1.621  0.6866  0.4003 -1.5874
15608TIP3   OH268238   2.009   2.155   2.792  0.0643 -0.1196  0.3703
15608TIP3    H168239   1.928   2.117   2.825  0.0545 -2.5193 -2.0525
15608TIP3    H268240   1.980   2.229   2.738 -0.3466  0.1515  0.9520
15609TIP3   OH268241   0.895   6.581  11.452 -0.3431  0.0248  0.1381
15609TIP3    H168242   0.926   6.646  11.389 -1.5012  0.7469  0.2866
15609TIP3    H268243   0.839   6.630  11.511 -0.4175 -0.9265  0.8737
15610TIP3   OH268244   6.427   4.793   0.694  0.2817  0.4485 -0.2592
15610TIP3    H168245   6.385   4.843   0.624  1.7298 -0.9709 -2.2820
15610TIP3    H268246   6.499   4.848   0.723 -0.4741  1.1531  0.3151
15611TIP3   OH268247   1.571   0.451   2.843  0.0272  0.4879 -0.0928
15611TIP3    H168248   1.554   0.543   2.865  1.0775  0.7484 -0.3419
15611TIP3    H268249   1.501   0.429   2.782 -0.2503  1.1105 -0.0171
15612TIP3   OH268250   5.416   3.139  16.280  0.6569 -0.0773 -0.6426
15612TIP3    H168251   5.510   3.126  16.286  0.6628  0.4390  0.5796
15612TIP3    H268252   5.406   3.230  16.250  0.5405  0.0156 -0.3198
15613TIP3   OH268253   1.119   3.614   0.973  0.2022 -0.2619 -0.5041
15613TIP3    H168254   1.106   3.700   0.933  0.0845 -0.4642 -0.9047
15613TIP3    H268255   1.033   3.590   1.008  0.4912  0.2800  0.6134
15614TIP3   OH268256   3.553   1.952  11.652 -0.2237 -0.4824  0.2528
15614TIP3    H168257   3.601   1.944  11.570  0.7271 -0.2811  0.7678
15614TIP3    H268258   3.462   1.967  11.626 -0.0544 -1.1170 -0.7500
15615TIP3   OH268259   5.504   2.575   3.100  0.4328 -0.6173 -0.1893
15615TIP3    H168260   5.465   2.516   3.035  1.3443 -1.6792  0.1898
15615TIP3    H268261   5.491   2.531   3.183  0.3936  0.1324  0.2108
15616TIP3   OH268262   2.079   0.013   4.216 -0.1520 -0.3584  0.3158
15616TIP3    H168263   2.022  -0.059   4.245 -1.1357  0.3844  0.2990
15616TIP3    H268264   2.037   0.091   4.251  0.2190  0.3131 -0.6943
15617TIP3   OH268265   6.124   5.746   3.824  0.2422 -0.0020 -0.4145
15617TIP3    H168266   6.047   5.797   3.850 -0.4838 -0.8945 -0.7918
15617TIP3    H268267   6.101   5.655   3.842  1.0376 -0.3222 -0.9403
15618TIP3   OH268268   3.170   4.594   0.711 -0.2129 -0.4597  0.0072
15618TIP3    H168269   3.247   4.611   0.765 -0.2220 -2.1507  0.6074
15618TIP3    H268270   3.155   4.676   0.664  0.1804  0.8576  2.0644
15619TIP3   OH268271   3.508   0.108   4.676  0.3295  0.7535 -0.0319
15619TIP3    H168272   3.524   0.154   4.758  0.5323 -1.0591  0.9831
15619TIP3    H268273   3.594   0.105   4.633  0.2365  1.6360 -0.2993
15620TIP3   OH268274   5.467   5.030  12.187  0.2321  0.2102 -0.6158
15620TIP3    H168275   5.478   4.948  12.234 -0.2191  0.8770  0.6989
15620TIP3    H268276   5.515   5.017  12.105  1.6824 -0.7484  0.3238
15621TIP3   OH268277   2.427   1.955   2.741  0.3381 -0.2364 -0.2950
15621TIP3    H168278   2.497   2.019   2.751  1.0123 -1.1595  1.1916
15621TIP3    H268279   2.468   1.881   2.696 -0.2467  0.0486 -1.3274
15622TIP3   OH268280   2.125   3.659   5.695 -0.1067  0.5646 -0.3502
15622TIP3    H168281   2.131   3.633   5.787  0.6534  2.7032  0.2610
15622TIP3    H268282   2.057   3.602   5.659  1.0977 -1.8462  0.9396
15623TIP3   OH268283   3.657   1.433  16.858  0.5833  0.0417 -0.1815
15623TIP3    H168284   3.594   1.491  16.815  1.0387 -0.1072 -1.0673
15623TIP3    H268285   3.737   1.486  16.866  0.8919 -0.3365 -0.6785
15624TIP3   OH268286   1.419   2.544  15.717  0.3691 -0.1976 -0.2512
15624TIP3    H168287   1.364   2.524  15.793 -0.1104  0.1363 -0.5067
15624TIP3    H268288   1.362   2.593  15.658  1.3799  1.4980  0.1317
15625TIP3   OH268289   0.214   2.429  12.512  0.0115 -0.5300  0.0117
15625TIP3    H168290   0.249   2.472  12.434 -0.3352 -1.2929 -0.5879
15625TIP3    H268291   0.270   2.459  12.583  0.0443  0.5463 -0.4564
15626TIP3   OH268292   4.528   2.703   1.944  0.0325  0.0594  0.6945
15626TIP3    H168293   4.442   2.661   1.947  0.0735 -0.1686 -0.7362
15626TIP3    H268294   4.591   2.632   1.951  0.1016 -0.1836 -1.7288
15627TIP3   OH268295   6.395   4.800  12.083  0.2831 -0.0563 -0.7720
15627TIP3    H168296   6.401   4.849  12.001  0.0468 -1.6772 -1.8030
15627TIP3    H268297   6.303   4.774  12.089  0.2198  0.3354  0.2080
15628TIP3   OH268298   3.668   2.034  14.797 -0.0776 -0.4323 -0.9913
15628TIP3    H168299   3.652   1.955  14.849  0.1441 -0.6515 -1.2538
15628TIP3    H268300   3.677   2.104  14.862 -4.6180  0.2572 -0.8083
15629TIP3   OH268301   1.332   4.699  11.737  0.1731 -0.2091 -0.7262
15629TIP3    H168302   1.259   4.644  11.709  1.0513 -1.0882 -1.3622
15629TIP3    H268303   1.383   4.643  11.795  1.7052 -0.5121 -2.2853
15630TIP3   OH268304   0.240   5.917  12.884  0.3155 -0.1194 -0.0958
15630TIP3    H168305   0.198   5.917  12.798 -0.9419 -1.7788  0.4623
15630TIP3    H268306   0.214   5.834  12.923  0.2879  0.8808  2.1604
15631TIP3   OH268307   0.834   5.257   3.996 -0.3197 -0.4740  0.0769
15631TIP3    H168308   0.857   5.316   4.068 -1.7739  0.3600 -0.1152
15631TIP3    H268309   0.815   5.174   4.038  0.7002 -0.5304  0.4563
15632TIP3   OH268310   3.587   4.945   1.071  0.6431  0.0532  0.3245
15632TIP3    H168311   3.668   4.934   1.021 -0.2536 -0.6903 -1.0208
15632TIP3    H268312   3.524   4.978   1.007 -0.8225 -1.9183  0.6597
15633TIP3   OH268313   5.167   1.390  14.555 -0.1395 -0.5206 -0.1382
15633TIP3    H168314   5.169   1.340  14.473 -1.4422  0.0383 -0.5498
15633TIP3    H268315   5.074   1.410  14.568  0.1576  0.2346  0.9696
15634TIP3   OH268316   1.360   0.597   4.674 -1.1029  0.0381 -0.2366
15634TIP3    H168317   1.416   0.664   4.633  0.3150 -0.8667  0.1652
15634TIP3    H268318   1.326   0.639   4.752  1.1408 -0.1931  0.9436
15635TIP3   OH268319   0.004   1.135  14.110 -0.4023 -0.5088  0.5410
15635TIP3    H168320   0.079   1.188  14.084  0.4074 -1.2335  1.3586
15635TIP3    H268321  -0.071   1.179  14.069  0.4575  0.1732 -0.3667
15636TIP3   OH268322   4.490   3.653   2.671 -0.6031 -0.3568  0.4357
15636TIP3    H168323   4.488   3.633   2.764 -0.9775 -0.9719  0.3023
15636TIP3    H268324   4.577   3.691   2.656 -1.4957  2.3013  1.5298
15637TIP3   OH268325   0.871   1.522   1.858  0.5741 -0.0778 -0.3346
15637TIP3    H168326   0.838   1.443   1.900  0.0250  0.5933  0.5410
15637TIP3    H268327   0.900   1.578   1.930  2.5368 -0.1353 -1.0200
15638TIP3   OH268328   2.967   4.201   2.574 -0.0221  0.0456 -0.4305
15638TIP3    H168329   3.044   4.250   2.603 -0.3323  0.5577 -0.4577
15638TIP3    H268330   2.903   4.268   2.549 -0.1188 -0.3704 -1.3772
15639TIP3   OH268331   2.143   1.154   4.219 -0.2318 -0.2434  0.6869
15639TIP3    H168332   2.230   1.195   4.219 -0.5757  0.5018  0.2578
15639TIP3    H268333   2.160   1.064   4.245  0.9559 -0.6587 -1.2751
15640TIP3   OH268334   5.391   0.248  17.029  0.2780 -0.2444  0.4179
15640TIP3    H168335   5.358   0.315  17.089  1.4770  0.7315  0.0055
15640TIP3    H268336   5.378   0.166  17.076  1.1339  0.4883  2.0092
15641TIP3   OH268337   4.317   0.396   3.932 -0.3874 -0.1148  0.0206
15641TIP3    H168338   4.277   0.310   3.928  0.1480 -0.3606 -0.1631
15641TIP3    H268339   4.367   0.403   3.851 -3.9213  2.1510 -2.2337
15642TIP3   OH268340   0.966   1.807   0.761 -0.0394  0.3411 -0.5143
15642TIP3    H168341   0.937   1.720   0.788 -1.8519 -0.3490 -4.0558
15642TIP3    H268342   0.906   1.867   0.805  0.3181 -0.2365  0.8272
15643TIP3   OH268343   4.274   2.455   0.315 -0.4793 -0.8620  0.0474
15643TIP3    H168344   4.317   2.469   0.230 -1.5233 -0.5633 -0.4472
15643TIP3    H268345   4.325   2.509   0.376  0.2670 -1.0571 -0.3798
15644TIP3   OH268346   5.365   5.869   1.981 -0.0128  0.6460  0.6241
15644TIP3    H168347   5.355   5.879   1.886 -0.6659  1.8407  0.8049
15644TIP3    H268348   5.456   5.843   1.993 -0.2212 -0.7039 -0.4011
15645TIP3   OH268349   3.846   3.219  13.317  0.0449 -0.0227 -0.6003
15645TIP3    H168350   3.868   3.131  13.285  0.4419  0.3741 -1.4523
15645TIP3    H268351   3.766   3.242  13.270 -1.0305 -0.5891  0.8835
15646TIP3   OH268352   3.342   2.176  13.956 -0.1685  0.9321 -0.6732
15646TIP3    H168353   3.264   2.157  13.904 -0.6386  0.5972  0.1407
15646TIP3    H268354   3.367   2.091  13.992 -0.5177  1.3470  0.5686
15647TIP3   OH268355   3.077   2.480  11.141  0.3988 -0.3961  0.6825
15647TIP3    H168356   3.007   2.419  11.166 -1.5966  0.9317 -1.2471
15647TIP3    H268357   3.110   2.445  11.057 -0.4851  0.8714 -0.2322
15648TIP3   OH268358   5.877   3.907   5.827  0.2817  0.2212 -0.1290
15648TIP3    H168359   5.811   3.974   5.810  0.2114  0.6769  1.7314
15648TIP3    H268360   5.844   3.861   5.905  2.0571  0.3625  0.7525
15649TIP3   OH268361   2.886   0.474   3.526 -0.2579 -0.2199 -0.1412
15649TIP3    H168362   2.825   0.450   3.597  0.0996  1.2602  0.7099
15649TIP3    H268363   2.971   0.440   3.555 -0.0959  0.4564  0.2008
15650TIP3   OH268364   4.116   2.678   5.098  0.1233 -0.5999  0.2685
15650TIP3    H168365   4.090   2.760   5.056 -0.7231 -0.8503  0.2917
15650TIP3    H268366   4.072   2.610   5.048  1.2348 -1.0937 -0.0765
15651TIP3   OH268367   5.067   5.138   1.958  0.0502  0.1038  0.1257
15651TIP3    H168368   5.072   5.162   2.050 -0.6113  0.2153  0.1316
15651TIP3    H268369   5.093   5.218   1.911 -0.1732  0.2166  0.1968
15652TIP3   OH268370   2.213   4.519   3.957 -0.6504 -0.4163  0.6375
15652TIP3    H168371   2.162   4.474   3.890 -0.4891 -0.6220  0.6521
15652TIP3    H268372   2.154   4.586   3.992 -0.7687 -0.3785  0.3641
15653TIP3   OH268373   3.665   5.052  14.591  0.1083 -0.6324 -0.8962
15653TIP3    H168374   3.632   5.069  14.679  0.4152 -0.3473 -0.8392
15653TIP3    H268375   3.759   5.068  14.596 -0.1358  1.3875 -1.7566
15654TIP3   OH268376   5.960   2.755   3.127  0.1270 -0.6458 -0.1868
15654TIP3    H168377   6.021   2.781   3.196  1.8707 -0.1240 -1.8078
15654TIP3    H268378   5.942   2.663   3.143 -0.9233 -0.1444  1.9168
15655TIP3   OH268379   6.648   2.619  14.286  0.0605  0.3638 -0.0450
15655TIP3    H168380   6.612   2.545  14.336 -1.3008 -0.4866 -2.1223
15655TIP3    H268381   6.742   2.603  14.284  0.2595  0.7728  2.6667
15656TIP3   OH268382   1.225   2.026  14.268 -0.6235 -0.1704  0.3303
15656TIP3    H168383   1.156   1.983  14.319 -1.5317  0.8161 -0.0086
15656TIP3    H268384   1.253   2.099  14.323 -0.7754  0.1998 -0.0740
15657TIP3   OH268385   0.609   4.527  16.949 -0.5294 -0.0354 -0.4547
15657TIP3    H168386   0.697   4.564  16.942  0.0272 -0.6955  2.1572
15657TIP3    H268387   0.622   4.440  16.986 -2.2628 -0.2882 -0.3453
15658TIP3   OH268388   2.084   1.634   2.859 -0.7008 -0.2034  0.7048
15658TIP3    H168389   2.017   1.699   2.883 -2.0229 -1.8116  1.5436
15658TIP3    H268390   2.079   1.629   2.764 -2.0486 -0.5452  0.7753
15659TIP3   OH268391   1.352   6.533  14.902 -0.4895  0.1504  0.4237
15659TIP3    H168392   1.336   6.445  14.938 -0.4721  0.6934  1.8281
15659TIP3    H268393   1.297   6.537  14.823 -1.2635 -0.7651  0.8929
15660TIP3   OH268394   1.090   1.465   1.655  0.2739 -0.2675 -0.3981
15660TIP3    H168395   1.039   1.539   1.622 -0.0495 -1.1475 -1.9785
15660TIP3    H268396   1.033   1.424   1.720  1.1047  1.7670  1.7059
15661TIP3   OH268397   2.078   0.522  16.512  0.0352 -0.7005 -0.7342
15661TIP3    H168398   2.065   0.455  16.579  0.2208 -0.5495 -0.5477
15661TIP3    H268399   1.989   0.549  16.488 -0.0289 -0.5170 -0.3091
15662TIP3   OH268400   4.591   0.940   2.340 -0.3229  0.7449 -0.0557
15662TIP3    H168401   4.614   1.019   2.290  1.8854 -0.4726 -1.0941
15662TIP3    H268402   4.550   0.882   2.276 -1.0080  0.6462  0.4666
15663TIP3   OH268403   2.452   1.461  17.159  0.3054 -0.5413  0.1310
15663TIP3    H168404   2.466   1.470  17.065 -0.9888  0.8153  0.0381
15663TIP3    H268405   2.363   1.428  17.167 -0.3638  1.3359  0.8977
15664TIP3   OH268406   5.347   2.879  13.326  0.1204  0.4522 -0.0125
15664TIP3    H168407   5.376   2.798  13.369 -0.6312  0.4511  0.5230
15664TIP3    H268408   5.255   2.863  13.304  0.0183  1.0890 -0.0702
15665TIP3   OH268409   1.813   3.660   1.541  0.0579  0.2981 -0.1060
15665TIP3    H168410   1.767   3.580   1.517  1.3182 -0.0075 -1.6924
15665TIP3    H268411   1.834   3.649   1.634  1.3915 -1.8924 -0.5895
15666TIP3   OH268412   2.532   3.583   4.814 -0.5673  0.0077 -0.3894
15666TIP3    H168413   2.458   3.636   4.785 -0.9316 -0.0021  0.4828
15666TIP3    H268414   2.566   3.542   4.735 -2.1007 -0.7511 -0.6794
15667TIP3   OH268415   4.382   0.989  15.091 -0.1077  0.4334 -0.4156
15667TIP3    H168416   4.309   0.947  15.046 -0.4990 -0.9278  1.4194
15667TIP3    H268417   4.402   0.932  15.165  1.4381  1.8697  0.3494
15668TIP3   OH268418   3.275   0.278   2.267 -0.0614 -0.5789  0.8693
15668TIP3    H168419   3.262   0.359   2.217 -0.9868 -0.3427  1.4739
15668TIP3    H268420   3.209   0.218   2.233  0.2377 -0.8918  0.8343
15669TIP3   OH268421   6.331   6.115   1.217 -0.1393  0.4321 -0.1979
15669TIP3    H168422   6.300   6.133   1.128  0.3637  1.1989 -0.2254
15669TIP3    H268423   6.358   6.200   1.251  0.5972  0.0017  0.3303
15670TIP3   OH268424   4.881   1.250  15.323  0.5022  0.5580  0.3352
15670TIP3    H168425   4.973   1.224  15.319  0.4688  0.2595  1.3074
15670TIP3    H268426   4.861   1.253  15.416  0.3963  3.6782  0.3147
15671TIP3   OH268427   0.710   5.830  12.400 -0.2142 -0.3463 -0.5700
15671TIP3    H168428   0.649   5.903  12.392  0.2251  0.0976  0.0109
15671TIP3    H268429   0.797   5.871  12.401 -0.0140 -0.7276  1.2092
15672TIP3   OH268430   0.484   3.580  14.805 -0.2016 -0.2085 -0.4945
15672TIP3    H168431   0.480   3.569  14.710  0.3255 -0.6274 -0.4769
15672TIP3    H268432   0.573   3.552  14.828 -0.8189 -1.5770  0.3128
15673TIP3   OH268433   5.535   4.303   5.112  0.9493  0.4297 -0.1120
15673TIP3    H168434   5.513   4.305   5.205  1.8225 -2.7559  0.2827
15673TIP3    H268435   5.620   4.347   5.107  1.0917  0.2690  0.6749
15674TIP3   OH268436   5.711   5.621  17.110 -0.4378 -0.3662 -0.2088
15674TIP3    H168437   5.645   5.577  17.163 -1.5433  1.4246 -0.0030
15674TIP3    H268438   5.771   5.660  17.174 -0.8833  0.4775 -0.2885
15675TIP3   OH268439   6.377   2.236   0.763  0.0578  0.0339  0.1430
15675TIP3    H168440   6.374   2.255   0.670 -0.5893  1.2134  0.3864
15675TIP3    H268441   6.434   2.159   0.770 -0.2729 -0.3633 -1.2529
15676TIP3   OH268442   2.407   2.643   2.825 -0.2697  0.0359 -0.4610
15676TIP3    H168443   2.369   2.583   2.889 -1.0773 -1.0467 -1.8954
15676TIP3    H268444   2.387   2.731   2.859 -1.5663 -0.5095  0.2664
15677TIP3   OH268445   4.399   4.529  17.172 -0.4307 -1.0419  0.2942
15677TIP3    H168446   4.427   4.514  17.081 -0.9572 -1.3726  0.1762
15677TIP3    H268447   4.480   4.535  17.222 -0.0794  0.7238 -0.4229
15678TIP3   OH268448   2.469   4.191  11.216 -0.1067 -0.0186 -0.5524
15678TIP3    H168449   2.414   4.252  11.265  0.1625  0.0316 -0.3096
15678TIP3    H268450   2.423   4.179  11.132  0.6108  1.7142 -1.2314
15679TIP3   OH268451   2.109   4.880   2.779 -0.1734  0.0943 -0.0804
15679TIP3    H168452   2.163   4.861   2.856  1.2059 -2.7497 -1.6101
15679TIP3    H268453   2.021   4.891   2.814  0.5887  0.0077  2.0085
15680TIP3   OH268454   3.528   3.655  15.461  0.4338  0.2347 -0.2213
15680TIP3    H168455   3.592   3.624  15.525  0.7146 -0.0082 -0.6153
15680TIP3    H268456   3.501   3.741  15.494  1.9701  0.9566 -0.7243
15681TIP3   OH268457   3.972   4.248   0.440  0.1490  0.2835 -0.4585
15681TIP3    H168458   4.065   4.226   0.441 -0.2166 -1.8885  2.9647
15681TIP3    H268459   3.970   4.342   0.460  1.6465  0.0298  1.1799
15682TIP3   OH268460   1.896   0.323  16.262  0.0223 -0.5844  0.0138
15682TIP3    H168461   1.880   0.310  16.355 -2.0965  0.4263 -0.1718
15682TIP3    H268462   1.903   0.418  16.251  1.3869 -0.7381 -0.7202
15683TIP3   OH268463   1.924   4.287   1.699 -0.3452  0.5123  0.0104
15683TIP3    H168464   1.971   4.365   1.670  1.5258  0.3087  2.1769
15683TIP3    H268465   1.837   4.294   1.659  0.8408  1.9762 -2.5198
15684TIP3   OH268466   1.141   6.740   5.421  0.0845 -0.3738  0.2818
15684TIP3    H168467   1.179   6.663   5.379  1.2526  0.5578 -0.4584
15684TIP3    H268468   1.077   6.773   5.358  0.1292 -0.3216  0.2627
15685TIP3   OH268469   6.083   3.027  14.089  0.2880 -0.1304 -0.2223
15685TIP3    H168470   6.066   3.073  14.171 -1.2678 -0.0220 -0.5876
15685TIP3    H268471   6.111   3.095  14.029  0.5156 -0.0678 -0.0482
15686TIP3   OH268472   4.453   4.803   1.186 -0.0082  0.2839  0.3825
15686TIP3    H168473   4.502   4.729   1.223 -1.0992 -1.1303 -0.9258
15686TIP3    H268474   4.362   4.775   1.188 -0.1719  0.2559 -3.0169
15687TIP3   OH268475   6.235   6.552   1.900 -0.3876  0.4660 -0.2767
15687TIP3    H168476   6.250   6.458   1.888 -1.8650  0.1896 -0.1517
15687TIP3    H268477   6.273   6.572   1.985  0.8010  0.2041 -0.7251
15688TIP3   OH268478   6.769   5.573   5.802 -0.4180  0.4738  0.2298
15688TIP3    H168479   6.687   5.526   5.814  0.5730 -0.7744  2.6086
15688TIP3    H268480   6.765   5.644   5.867  0.1925  0.6933  0.0282
15689TIP3   OH268481   6.085   4.323  15.692  0.0338  0.9166 -0.2996
15689TIP3    H168482   6.006   4.306  15.640  1.1228  0.6217 -1.9204
15689TIP3    H268483   6.119   4.405  15.658 -0.5297  2.0400  1.6748
15690TIP3   OH268484   3.555   1.908  11.922 -0.3403  0.0957  0.0404
15690TIP3    H168485   3.533   1.925  11.831 -0.5359  0.2361  0.1132
15690TIP3    H268486   3.550   1.994  11.964  1.4797  0.3357 -0.1776
15691TIP3   OH268487   0.394   3.921   1.478 -0.3253 -0.2402 -0.1171
15691TIP3    H168488   0.319   3.918   1.418 -0.5221  1.5986 -0.0007
15691TIP3    H268489   0.471   3.913   1.421 -0.5536 -1.1298 -0.3287
15692TIP3   OH268490   0.017   3.913   1.594  0.8490  0.2197 -0.3246
15692TIP3    H168491  -0.055   3.865   1.634 -0.6952  0.9853 -2.0411
15692TIP3    H268492   0.042   3.979   1.659  0.8914 -0.8589  0.7901
15693TIP3   OH268493   5.575   6.721  15.614  0.2793 -0.6212  0.3251
15693TIP3    H168494   5.590   6.796  15.672 -1.5333 -1.9338  2.6734
15693TIP3    H268495   5.649   6.662  15.632  0.4291 -0.4547  0.2655
15694TIP3   OH268496   3.999   2.770   6.291 -0.3718 -0.2993  0.0817
15694TIP3    H168497   4.015   2.730   6.205  0.6517  0.3365 -0.0442
15694TIP3    H268498   4.087   2.783   6.328 -0.4435  3.2192 -0.5478
15695TIP3   OH268499   4.427   2.256  15.956  0.1766  0.8232 -0.1686
15695TIP3    H168500   4.474   2.334  15.927 -0.6296  1.1734 -0.5585
15695TIP3    H268501   4.361   2.241  15.888  0.5304 -0.3973 -0.2743
15696TIP3   OH268502   5.331   0.006  17.122 -0.1906 -0.6844 -0.1162
15696TIP3    H168503   5.245  -0.024  17.150 -1.5671  1.4451 -1.7063
15696TIP3    H268504   5.330  -0.002  17.026  0.2519  1.9202 -0.4169
15697TIP3   OH268505   5.136   6.686  16.934 -0.4203  0.5658 -0.0224
15697TIP3    H168506   5.113   6.594  16.950 -0.9362  0.8384  0.8781
15697TIP3    H268507   5.228   6.683  16.908 -0.2173 -0.1491  0.7286
15698TIP3   OH268508   2.793   4.432   1.979 -0.0361  0.1237 -0.3600
15698TIP3    H168509   2.846   4.504   1.944 -1.0126  0.6404 -0.8204
15698TIP3    H268510   2.826   4.419   2.068  0.2078  1.0875 -0.2968
15699TIP3   OH268511   5.820   5.001   2.650  0.1433  0.4018 -0.0029
15699TIP3    H168512   5.766   4.945   2.594  0.7453  1.3701 -1.6315
15699TIP3    H268513   5.909   4.967   2.639  0.1767  0.1098  1.0296
15700TIP3   OH268514   0.225   1.939   4.647 -0.0729 -0.0097  0.0716
15700TIP3    H168515   0.185   1.994   4.579 -0.7235 -0.9266 -0.3123
15700TIP3    H268516   0.156   1.877   4.671  0.8594 -1.1301 -0.0476
15701TIP3   OH268517   2.812   5.013   6.598  0.2670  0.6181  0.0766
15701TIP3    H168518   2.837   5.093   6.644  0.5599  1.2784 -1.1856
15701TIP3    H268519   2.850   4.943   6.649 -0.0372  1.2700  1.2434
15702TIP3   OH268520   6.787   6.422  13.928 -0.1075 -0.6982  0.3500
15702TIP3    H168521   6.834   6.418  14.011  0.8816 -0.7352 -0.1929
15702TIP3    H268522   6.706   6.469  13.948  0.5009  0.0349  1.1637
15703TIP3   OH268523   5.185   5.438   2.334 -0.4639 -0.1373  0.2987
15703TIP3    H168524   5.223   5.507   2.279  0.2401 -1.0936 -0.4677
15703TIP3    H268525   5.129   5.484   2.396  0.1307  1.1330 -0.0741
15704TIP3   OH268526   3.747   5.478  14.213  0.4840  0.0331 -0.0473
15704TIP3    H168527   3.667   5.465  14.163  0.7922 -1.3517 -0.2156
15704TIP3    H268528   3.788   5.555  14.173 -0.2237  0.1076 -0.6519
15705TIP3   OH268529   1.680   0.621  13.234  0.1353  0.0065  0.8461
15705TIP3    H168530   1.668   0.657  13.322  1.5544  0.3259  0.9246
15705TIP3    H268531   1.754   0.561  13.242 -0.6543 -1.1005  0.1726
15706TIP3   OH268532   1.549   4.673  11.961 -0.2558 -0.2590 -0.6767
15706TIP3    H168533   1.554   4.578  11.971  1.7031 -0.1388 -0.1052
15706TIP3    H268534   1.591   4.690  11.877  2.2393  0.2503  0.5537
15707TIP3   OH268535   0.080   5.520   0.932 -0.3492  0.2186 -0.0377
15707TIP3    H168536   0.157   5.518   0.988  0.5195 -0.3587 -1.1867
15707TIP3    H268537   0.089   5.600   0.881 -0.0361 -0.2723 -0.7755
15708TIP3   OH268538   2.449   3.621  12.425 -0.7706  0.4155  0.4603
15708TIP3    H168539   2.491   3.551  12.376  1.0785 -0.2567  2.8072
15708TIP3    H268540   2.464   3.598  12.517  0.0933  3.9465  1.3615
15709TIP3   OH268541   2.244   1.479  16.770  0.6195 -0.0932 -0.7891
15709TIP3    H168542   2.212   1.541  16.705  0.3088  0.0903 -0.4612
15709TIP3    H268543   2.167   1.428  16.795  0.0493  1.7567  1.5894
15710TIP3   OH268544   4.819   1.717  13.071  0.0950 -0.6554 -0.2560
15710TIP3    H168545   4.733   1.682  13.048  0.6965 -2.2102 -0.2920
15710TIP3    H268546   4.847   1.767  12.994 -0.3936 -0.9161 -0.6070
15711TIP3   OH268547   4.020   6.764   0.768 -0.5458 -0.1544 -0.1515
15711TIP3    H168548   3.926   6.750   0.776 -0.2018 -3.4748 -0.5808
15711TIP3    H268549   4.028   6.844   0.715 -3.0238  1.1009  1.1960
15712TIP3   OH268550   3.822   2.059   6.046 -0.4984  0.1153  0.1998
15712TIP3    H168551   3.852   2.000   5.977 -1.4138  0.8355 -0.8435
15712TIP3    H268552   3.888   2.050   6.115  1.8764  1.2668 -1.7680
15713TIP3   OH268553   2.336   1.119   5.746  0.0672 -0.1356 -0.4146
15713TIP3    H168554   2.428   1.109   5.718  0.2249 -0.4112  0.1848
15713TIP3    H268555   2.290   1.148   5.667  0.6900  0.1071 -0.6955
15714TIP3   OH268556   1.590   5.369  13.258 -0.6930  0.1447  0.8547
15714TIP3    H168557   1.525   5.437  13.278 -1.4748 -0.3846  0.1844
15714TIP3    H268558   1.674   5.415  13.261 -1.2997  1.5416 -1.1182
15715TIP3   OH268559   5.061   3.214   1.958  0.4952  0.4198 -0.5129
15715TIP3    H168560   5.117   3.150   1.916  0.3372  0.2264 -0.4334
15715TIP3    H268561   5.031   3.271   1.887 -0.4441 -0.4087 -0.8040
15716TIP3   OH268562   5.455   4.329   5.388  0.3413  0.3167  0.6419
15716TIP3    H168563   5.459   4.420   5.417  1.3073 -0.4189  3.1130
15716TIP3    H268564   5.382   4.291   5.436 -1.4207  0.2062 -1.9473
15717TIP3   OH268565   6.077   3.600   0.559  0.2609 -0.1106 -0.1269
15717TIP3    H168566   6.006   3.590   0.496  0.3743 -2.0954  0.0034
15717TIP3    H268567   6.045   3.559   0.639  1.8766 -2.0151 -0.3743
15718TIP3   OH268568   3.281   5.368   3.511 -0.4929 -0.0336  0.7109
15718TIP3    H168569   3.299   5.397   3.600 -0.5257 -0.3980  0.8359
15718TIP3    H268570   3.186   5.357   3.508 -0.5135  0.1823  0.5694
15719TIP3   OH268571   2.029   0.779  12.696 -0.4538 -0.1358 -0.4331
15719TIP3    H168572   1.937   0.804  12.703 -0.3073  0.8192 -1.4715
15719TIP3    H268573   2.077   0.862  12.704  0.2620 -0.5088 -0.7003
15720TIP3   OH268574   2.532   5.020  11.292 -0.3370  0.2755  0.8449
15720TIP3    H168575   2.544   4.932  11.254 -0.3244  0.4465  0.4420
15720TIP3    H268576   2.596   5.074  11.246 -0.8822  0.6580  0.5228
15721TIP3   OH268577   5.064   0.415   4.636 -0.1236 -0.1864  0.2671
15721TIP3    H168578   5.085   0.508   4.649  0.2332 -0.2060 -0.1530
15721TIP3    H268579   5.097   0.395   4.549 -1.8731 -0.2266 -0.4200
15722TIP3   OH268580   5.853   1.613   0.112 -0.3033  0.6948 -0.3113
15722TIP3    H168581   5.891   1.699   0.134 -0.6575  0.7467  0.1196
15722TIP3    H268582   5.804   1.628   0.031  0.7742  0.5749 -1.0034
15723TIP3   OH268583   5.189   2.310  15.336  0.6906  0.6945 -0.3595
15723TIP3    H168584   5.216   2.307  15.427 -0.3595  0.3681 -0.0449
15723TIP3    H268585   5.129   2.237  15.325 -0.3352  1.5739 -0.9162
15724TIP3   OH268586   1.966   4.124  16.561 -0.4543  0.7416 -0.4207
15724TIP3    H168587   1.943   4.161  16.475 -1.2786  1.5411  0.1198
15724TIP3    H268588   1.893   4.065  16.581 -0.2420  0.5246 -0.2845
15725TIP3   OH268589   5.141   3.597  13.668 -0.3453  0.3218  0.1378
15725TIP3    H168590   5.046   3.606  13.662 -0.4307 -1.3133 -2.6731
15725TIP3    H268591   5.154   3.509  13.702  0.2632  1.0543  1.9538
15726TIP3   OH268592   5.629   3.870  14.714  0.2317  0.1768 -0.1802
15726TIP3    H168593   5.540   3.841  14.732  0.0846  0.3885 -0.5764
15726TIP3    H268594   5.624   3.918  14.632  0.6268  0.5922  0.0258
15727TIP3   OH268595   3.917   3.076  15.232  0.0149 -0.7728 -0.6603
15727TIP3    H168596   3.997   3.123  15.210 -0.6447 -0.1759 -1.8395
15727TIP3    H268597   3.847   3.124  15.188 -1.4146  0.3799  2.5341
15728TIP3   OH268598   3.914   0.983   0.703  0.0483  0.0428 -0.0220
15728TIP3    H168599   3.893   0.900   0.661  0.0246  0.8650 -1.7305
15728TIP3    H268600   3.829   1.019   0.728 -0.1189  0.3963 -1.0285
15729TIP3   OH268601   5.104   3.859   3.373 -0.2425 -0.3776  0.3061
15729TIP3    H168602   5.192   3.889   3.349 -0.1194 -1.3882 -0.5291
15729TIP3    H268603   5.055   3.940   3.388  0.8501  0.1985  0.8891
15730TIP3   OH268604   0.771   2.523  15.802  0.5991 -1.0140  0.3772
15730TIP3    H168605   0.760   2.572  15.883 -1.6052  0.6255 -0.7913
15730TIP3    H268606   0.697   2.463  15.800  1.3694 -1.9846  0.1647
15731TIP3   OH268607   0.426   2.498  14.300  0.3455  0.1902 -0.1364
15731TIP3    H168608   0.456   2.482  14.211 -3.7028  0.1223 -1.7310
15731TIP3    H268609   0.425   2.593  14.309  2.6775  0.1878  0.6977
15732TIP3   OH268610   2.225   0.982  12.743  0.5525  0.1087 -0.3713
15732TIP3    H168611   2.207   1.054  12.804  1.8549 -0.2935  0.5421
15732TIP3    H268612   2.318   0.989  12.724  1.1518 -2.3387  1.1577
15733TIP3   OH268613   3.445   2.334   4.730  0.2023  0.2542 -0.1266
15733TIP3    H168614   3.460   2.245   4.762 -1.7842 -0.0367  0.0916
15733TIP3    H268615   3.374   2.368   4.785 -0.1973  1.3815 -1.2824
15734TIP3   OH268616   3.408   4.691  14.512  0.6282  0.8211  0.2159
15734TIP3    H168617   3.385   4.697  14.419 -1.9076 -1.5237  0.5484
15734TIP3    H268618   3.404   4.781  14.544 -0.7139  1.4282 -1.4843
15735TIP3   OH268619   5.682   3.088  12.359  0.2591  0.0577 -0.0739
15735TIP3    H168620   5.715   3.035  12.431 -1.8885 -1.0257  0.1994
15735TIP3    H268621   5.726   3.172  12.368  1.8482 -0.8427  1.0139
15736TIP3   OH268622   6.616   2.124   5.963  0.0236  0.1179 -0.1179
15736TIP3    H168623   6.639   2.154   6.051  0.3371 -0.7831  0.1118
15736TIP3    H268624   6.683   2.162   5.906 -1.6673  2.9926 -0.4093
15737TIP3   OH268625   5.521   2.032   5.895 -0.0571  0.6223  0.0350
15737TIP3    H168626   5.476   2.030   5.980  0.2988  1.5085  0.2580
15737TIP3    H268627   5.471   1.971   5.840 -0.5175  0.3226  0.7684
15738TIP3   OH268628   3.664   5.068   3.355  0.1820 -0.2659  0.3608
15738TIP3    H168629   3.623   5.140   3.404 -0.4697 -0.4468  0.0905
15738TIP3    H268630   3.599   4.998   3.358  0.1406 -0.2784 -0.7709
15739TIP3   OH268631   3.435   1.910  15.411 -0.0729  0.0560  0.1386
15739TIP3    H168632   3.452   1.990  15.462  1.1941 -0.1205  0.0136
15739TIP3    H268633   3.393   1.851  15.474  0.9933  0.0294  0.8544
15740TIP3   OH268634   4.625   0.044  13.425  0.1387 -0.6314 -0.4322
15740TIP3    H168635   4.642   0.004  13.510 -2.5478 -0.9800  0.0419
15740TIP3    H268636   4.554  -0.008  13.388 -1.0091  1.4994 -1.4014
15741TIP3   OH268637   0.166   2.966  13.882  0.2233  0.8570 -0.2037
15741TIP3    H168638   0.103   3.037  13.896 -1.7402 -0.4647 -1.7037
15741TIP3    H268639   0.140   2.928  13.798  0.1967 -2.5833  1.1875
15742TIP3   OH268640   5.760   2.364   4.816 -0.0935  0.1746 -0.0761
15742TIP3    H168641   5.692   2.419   4.777 -0.7307 -0.5482 -0.0121
15742TIP3    H268642   5.725   2.275   4.810  0.7226 -0.1786  0.2285
15743TIP3   OH268643   0.426   1.687  12.274 -0.1121  0.2034 -0.3830
15743TIP3    H168644   0.440   1.744  12.349  0.1257  0.4386 -0.6003
15743TIP3    H268645   0.506   1.696  12.222  0.2535 -0.9210 -0.0396
15744TIP3   OH268646   2.997   0.639   1.022 -0.1174 -0.1286  0.4055
15744TIP3    H168647   2.966   0.689   0.947  1.6919  2.0888  1.0109
15744TIP3    H268648   2.972   0.549   1.003 -1.3417  0.6266 -1.9538
15745TIP3   OH268649   4.183   0.391   4.857 -0.4005  0.4990  0.1990
15745TIP3    H168650   4.130   0.422   4.930 -0.2575  0.8974  0.1340
15745TIP3    H268651   4.236   0.466   4.832  0.0834  0.1466  0.1595
15746TIP3   OH268652   1.217   2.336   1.740  0.3269 -1.0550 -0.3009
15746TIP3    H168653   1.155   2.330   1.812 -2.0117 -0.7223 -2.1524
15746TIP3    H268654   1.167   2.308   1.663  2.9676 -2.2807 -1.6963
15747TIP3   OH268655   3.689   1.051  14.359  0.5212  0.7610 -0.5354
15747TIP3    H168656   3.640   1.104  14.422 -0.6660 -0.6763 -0.1958
15747TIP3    H268657   3.625   1.031  14.289  0.6815 -0.8253 -0.2732
15748TIP3   OH268658   3.451   1.257  14.962 -0.1653 -0.1367  0.0106
15748TIP3    H168659   3.400   1.322  15.011 -0.2458  0.9193 -1.3850
15748TIP3    H268660   3.485   1.306  14.887  2.1628 -1.0557  0.4047
15749TIP3   OH268661   4.704   2.495  11.319 -0.4397 -0.0274  0.4762
15749TIP3    H168662   4.698   2.407  11.355  0.4478 -1.5934 -2.8190
15749TIP3    H268663   4.649   2.548  11.377 -0.1443 -2.4657  3.2120
15750TIP3   OH268664   3.940   2.822   1.170  0.3177  0.2684  0.1312
15750TIP3    H168665   3.846   2.839   1.167  0.0754 -0.4539  2.1224
15750TIP3    H268666   3.980   2.909   1.175 -0.3415  0.5391  0.8319
15751TIP3   OH268667   3.281   4.022   1.932 -0.1757  0.2567 -0.0396
15751TIP3    H168668   3.343   4.048   2.001 -0.0541  1.1520 -0.4780
15751TIP3    H268669   3.278   3.926   1.938  0.7969  0.2385  0.3796
15752TIP3   OH268670   1.038   4.288  11.404 -0.0731 -0.5314  0.3956
15752TIP3    H168671   0.982   4.210  11.395  0.7819 -1.2949  1.4038
15752TIP3    H268672   1.127   4.254  11.398  0.3211  0.2883  1.3815
15753TIP3   OH268673   1.241   1.652  16.695  0.2670 -0.4176  0.7119
15753TIP3    H168674   1.241   1.585  16.627 -3.1966 -1.4504  1.5459
15753TIP3    H268675   1.151   1.686  16.697  1.0558  1.9107  2.5748
15754TIP3   OH268676   4.001   2.436   4.976  0.2638  0.0921 -0.2946
15754TIP3    H168677   3.964   2.358   4.933  1.3098 -2.1901  2.5795
15754TIP3    H268678   4.083   2.452   4.929 -0.0208 -0.4769 -1.0178
15755TIP3   OH268679   3.504   2.406   2.471  0.1278  0.1937 -0.4444
15755TIP3    H168680   3.581   2.449   2.507  1.0941 -1.2127 -0.7731
15755TIP3    H268681   3.507   2.425   2.377  0.8939 -1.0466 -0.6893
15756TIP3   OH268682   1.077   5.354   0.024 -0.4086  0.0903 -0.3319
15756TIP3    H168683   1.104   5.356   0.116 -1.7978  2.5078  0.1174
15756TIP3    H268684   1.157   5.372  -0.025  0.1474 -0.1760  0.4485
15757TIP3   OH268685   6.081   1.955   0.671  0.5955 -0.3083  0.2478
15757TIP3    H168686   6.106   1.896   0.742 -0.9633 -0.5664  0.6154
15757TIP3    H268687   6.152   1.947   0.607  1.7104 -0.5499  1.4844
15758TIP3   OH268688   4.860   5.336   5.621 -0.1778  0.1924  0.0345
15758TIP3    H168689   4.779   5.324   5.573  0.5057 -0.4357 -0.9985
15758TIP3    H268690   4.909   5.401   5.571 -0.4183  1.2857  1.1700
15759TIP3   OH268691   1.752   1.623  15.008  0.2348 -0.0755 -0.6328
15759TIP3    H168692   1.819   1.611  14.941  1.2802  0.7522  0.2309
15759TIP3    H268693   1.795   1.597  15.089 -0.1153  1.4579  0.0836
15760TIP3   OH268694   0.544   3.265   4.648 -0.4316  0.6244 -0.1640
15760TIP3    H168695   0.533   3.236   4.739  1.2137  0.0376 -0.1238
15760TIP3    H268696   0.637   3.281   4.638 -0.4178 -0.2378 -2.0054
15761TIP3   OH268697   5.355   3.438  14.597 -0.8222  0.0755  0.0008
15761TIP3    H168698   5.451   3.432  14.600 -0.6093  1.3985 -1.9487
15761TIP3    H268699   5.327   3.357  14.555 -0.5837 -0.3803  0.7078
15762TIP3   OH268700   2.856   3.977   1.593 -0.6617 -0.0188  0.6080
15762TIP3    H168701   2.859   3.987   1.498  0.9537  1.3041  0.7536
15762TIP3    H268702   2.843   4.066   1.626  0.5288 -0.1971  1.6491
15763TIP3   OH268703   5.708   2.253  14.633  0.5151  0.0208  0.5236
15763TIP3    H168704   5.751   2.317  14.577  1.3133 -1.1057 -0.1803
15763TIP3    H268705   5.700   2.174  14.580 -4.1345  0.5973 -0.0790
15764TIP3   OH268706   5.236   5.395  15.309 -0.5720  0.2770 -0.3973
15764TIP3    H168707   5.221   5.396  15.214  2.5254  3.4190 -1.0853
15764TIP3    H268708   5.325   5.362  15.319 -1.2064 -0.9835  1.5796
15765TIP3   OH268709   5.419   4.878   5.075 -0.0059 -0.4050  0.2027
15765TIP3    H168710   5.495   4.934   5.060 -0.4466 -0.2613 -1.6952
15765TIP3    H268711   5.456   4.792   5.094  0.6708 -0.5054 -1.3940
15766TIP3   OH268712   1.932   3.235  16.001 -0.0385  0.0778 -0.1742
15766TIP3    H168713   1.971   3.279  16.076  0.1338 -1.0661  0.4377
15766TIP3    H268714   1.923   3.303  15.935  0.2713  1.0024  0.7059
15767TIP3   OH268715   5.007   3.195  11.598 -0.4414  0.0733 -0.0164
15767TIP3    H168716   4.979   3.233  11.682 -2.2909  0.0669 -0.5835
15767TIP3    H268717   5.077   3.135  11.621 -0.9362  0.0469  1.5380
15768TIP3   OH268718   2.016   4.359  15.607  0.7554  0.5751 -0.0213
15768TIP3    H168719   2.075   4.423  15.647  1.3856 -0.0286  0.0396
15768TIP3    H268720   1.993   4.397  15.522  0.3563  1.3185  0.4121
15769TIP3   OH268721   5.875   3.011  15.065  0.2367  0.5389  0.1047
15769TIP3    H168722   5.921   2.929  15.082  1.8721  1.5465  0.7754
15769TIP3    H268723   5.864   3.050  15.152 -0.7378  0.9233 -0.1813
15770TIP3   OH268724   4.537   4.357  12.786 -0.1057 -0.1975  0.1210
15770TIP3    H168725   4.559   4.330  12.697  1.8463  0.2438  0.4376
15770TIP3    H268726   4.605   4.319  12.841 -1.2245 -0.3839  1.4396
15771TIP3   OH268727   5.555   1.956   3.477  0.3845 -0.2494  0.1197
15771TIP3    H168728   5.560   2.051   3.484  0.5641 -0.2128 -0.4753
15771TIP3    H268729   5.479   1.939   3.422  1.0990 -0.3959 -0.8457
15772TIP3   OH268730   5.166   3.962   1.187  0.1715  0.0963 -0.0893
15772TIP3    H168731   5.087   4.013   1.169  0.7058  1.3833  1.0089
15772TIP3    H268732   5.134   3.887   1.239 -0.3039  0.8212  0.6999
15773TIP3   OH268733   5.237   3.820  15.954  1.2959 -0.3909  0.5849
15773TIP3    H168734   5.240   3.803  15.860 -0.9620 -1.8190  0.7158
15773TIP3    H268735   5.188   3.902  15.962 -1.3706 -1.8951  0.5845
15774TIP3   OH268736   3.576   5.404   1.994 -0.2575 -0.0353  0.5711
15774TIP3    H168737   3.519   5.359   2.055  0.7423 -1.9817  0.1590
15774TIP3    H268738   3.637   5.453   2.049  0.0667 -1.0362  1.1213
15775TIP3   OH268739   3.949   6.395  16.403 -0.1233 -0.2435  0.7661
15775TIP3    H168740   4.044   6.391  16.387 -0.0968  0.2642  0.7812
15775TIP3    H268741   3.915   6.450  16.332 -0.4177 -0.4944  0.7135
15776TIP3   OH268742   5.447   6.367  12.616 -0.2662 -0.5755 -0.7927
15776TIP3    H168743   5.488   6.282  12.602 -0.6576 -0.5332 -2.3686
15776TIP3    H268744   5.354   6.352  12.596 -0.3817  0.1669 -0.8213
15777TIP3   OH268745   5.428   1.678  15.763 -0.4709  0.1422  0.0681
15777TIP3    H168746   5.411   1.584  15.775  0.5799 -0.0528  0.0802
15777TIP3    H268747   5.359   1.721  15.814  0.1608 -0.6413  1.6530
15778TIP3   OH268748   1.865   5.081   1.800 -0.2038 -0.2122  0.4029
15778TIP3    H168749   1.830   5.156   1.753 -1.0098  0.2707  1.7079
15778TIP3    H268750   1.789   5.043   1.845  0.7415  0.3777  2.6590
15779TIP3   OH268751   3.902   2.250   2.296  0.1938 -0.0869  0.6692
15779TIP3    H168752   3.846   2.299   2.235 -0.0445  1.8482  2.3361
15779TIP3    H268753   3.991   2.282   2.277  0.1249  0.4828  1.2897
15780TIP3   OH268754   3.734   5.241   5.299  0.3007 -0.0293  0.1635
15780TIP3    H168755   3.698   5.294   5.370 -0.1091  0.3911 -0.3485
15780TIP3    H268756   3.657   5.217   5.246  0.6862  0.3222 -0.5736
15781TIP3   OH268757   0.360   0.611  16.902  0.2054 -0.0680  0.2423
15781TIP3    H168758   0.363   0.527  16.856 -0.9714 -0.6020  1.0761
15781TIP3    H268759   0.445   0.651  16.885  1.9571 -2.6682  2.1170
15782TIP3   OH268760   2.126   2.362   3.509  0.4377  0.2742  0.1950
15782TIP3    H168761   2.065   2.300   3.469 -1.2722  0.4982  2.2492
15782TIP3    H268762   2.079   2.446   3.506  1.5216  0.8913  0.0073
15783TIP3   OH268763   4.829   5.909   1.520 -0.0354  0.2580 -0.2470
15783TIP3    H168764   4.890   5.915   1.594 -0.7459  1.3255  0.2677
15783TIP3    H268765   4.871   5.847   1.460  0.9044 -0.0660  0.7109
15784TIP3   OH268766   5.139   0.604  15.888 -0.3595  0.5078  0.2164
15784TIP3    H168767   5.074   0.585  15.820 -0.4933  0.8891  0.2335
15784TIP3    H268768   5.213   0.547  15.868 -0.6530  0.1627  0.1227
15785TIP3   OH268769   5.011   5.631  13.616 -0.2488 -0.7542  0.5742
15785TIP3    H168770   4.987   5.632  13.523  0.1319  0.0832  0.4702
15785TIP3    H268771   4.995   5.721  13.645  4.0091  0.3774  0.1219
15786TIP3   OH268772   2.910   3.690   0.543  0.5290 -0.1204  0.2269
15786TIP3    H168773   2.947   3.672   0.630 -0.0459 -0.6640  0.3707
15786TIP3    H268774   2.836   3.749   0.560 -0.5660 -1.4449  0.3185
15787TIP3   OH268775   0.959   5.048   3.797 -0.0127 -0.1563  0.0862
15787TIP3    H168776   0.942   5.140   3.820 -1.5411  0.1809 -2.0613
15787TIP3    H268777   0.874   5.005   3.806  0.8583 -1.6111  1.8811
15788TIP3   OH268778   4.010   4.332  15.463  0.1417  0.1430  0.3824
15788TIP3    H168779   3.962   4.391  15.521 -0.0508 -0.9160  1.3373
15788TIP3    H268780   4.068   4.389  15.413  0.0540  1.1299  1.3756
15789TIP3   OH268781   4.278   2.468  14.561  0.0077 -0.1263 -0.3873
15789TIP3    H168782   4.193   2.456  14.519  0.0302  0.6881 -0.6874
15789TIP3    H268783   4.260   2.459  14.654 -0.2253 -0.9445 -0.5057
15790TIP3   OH268784   5.485   5.051   2.437 -0.3083 -0.5169 -0.0956
15790TIP3    H168785   5.464   5.138   2.469 -2.6582 -0.6817 -1.0032
15790TIP3    H268786   5.501   5.000   2.517  2.1368  0.9050  0.4126
15791TIP3   OH268787   3.415   0.963   3.274 -0.2365 -0.1078  0.0974
15791TIP3    H168788   3.358   1.022   3.224 -0.6559  0.5995  1.3796
15791TIP3    H268789   3.472   0.924   3.208 -0.6417  0.9538 -0.9178
15792TIP3   OH268790   1.786   3.155   6.352 -0.3413  0.0711  0.2350
15792TIP3    H168791   1.821   3.122   6.269 -0.7128  0.3957 -0.0555
15792TIP3    H268792   1.711   3.098   6.370 -0.9690  0.7160 -0.2549
15793TIP3   OH268793   4.002   4.230   3.355 -0.2824 -0.3533  0.3156
15793TIP3    H168794   3.964   4.233   3.267  0.9166 -0.7825 -0.2346
15793TIP3    H268795   4.092   4.199   3.342  0.1953  0.3941  1.5993
15794TIP3   OH268796   0.979   5.356  15.038  0.1850  0.4482 -0.0845
15794TIP3    H168797   0.966   5.356  15.133 -1.7549 -1.3064 -0.2841
15794TIP3    H268798   0.952   5.443  15.010  0.1264  0.7621  0.9030
15795TIP3   OH268799   3.582   0.048   1.870 -0.4349 -0.3926 -0.1100
15795TIP3    H168800   3.532   0.035   1.790  2.0547 -0.0022 -1.8553
15795TIP3    H268801   3.603  -0.041   1.900  0.7987 -0.5726 -1.4123
15796TIP3   OH268802   4.715   2.620   2.224 -0.1353  0.1369  0.4165
15796TIP3    H168803   4.757   2.705   2.213 -0.0117  0.1501  0.9742
15796TIP3    H268804   4.783   2.556   2.205 -0.3623  0.1533 -0.5133
15797TIP3   OH268805   0.565   2.615  16.525 -0.0983 -0.0402  0.0042
15797TIP3    H168806   0.493   2.579  16.576 -0.5970  0.7139 -0.1506
15797TIP3    H268807   0.564   2.565  16.443 -0.2756 -0.2025  0.1062
15798TIP3   OH268808   5.402   6.351  17.194  0.2280 -0.0096 -0.2020
15798TIP3    H168809   5.363   6.303  17.121  1.2946 -2.2211  0.5801
15798TIP3    H268810   5.460   6.416  17.153  1.8977 -2.1419 -1.4141
15799TIP3   OH268811   2.778   3.429  12.657 -0.2525  0.0212  0.0098
15799TIP3    H168812   2.858   3.377  12.649 -1.4377 -1.9308  0.0736
15799TIP3    H268813   2.758   3.456  12.567 -0.5691 -1.2116 -0.3162
15800TIP3   OH268814   0.755   3.093  17.176  0.0514 -0.4230  0.1167
15800TIP3    H168815   0.697   3.084  17.100 -0.0405 -0.2556  0.1679
15800TIP3    H268816   0.731   3.020  17.234  1.0132 -1.3432 -0.5969
15801TIP3   OH268817   5.947   1.221   4.747 -0.1783 -0.3166  0.0860
15801TIP3    H168818   6.030   1.175   4.730 -1.0689 -2.1643  0.5155
15801TIP3    H268819   5.970   1.314   4.739  1.6603 -0.8016 -1.0239
15802TIP3   OH268820   1.634   0.894   5.935  0.0039  0.3686  0.3228
15802TIP3    H168821   1.655   0.977   5.978 -0.3652  0.1413  0.9517
15802TIP3    H268822   1.625   0.831   6.006  1.1002 -0.4110 -0.1948
15803TIP3   OH268823   6.006   6.680   0.744  0.7508 -0.0877  0.2805
15803TIP3    H168824   5.982   6.650   0.656  1.0089 -0.7275  0.4279
15803TIP3    H268825   5.986   6.774   0.743 -0.7787 -0.3836  0.0615
15804TIP3   OH268826   3.875   5.798   0.933  0.1631 -0.1051  0.3267
15804TIP3    H168827   3.831   5.716   0.910 -0.8956  0.8680 -1.3893
15804TIP3    H268828   3.831   5.828   1.013  0.6069 -1.2228  1.0024
15805TIP3   OH268829   0.061   4.766  16.998 -0.0048  0.3000  0.4836
15805TIP3    H168830   0.108   4.699  16.948  0.7277  2.3375 -1.7129
15805TIP3    H268831   0.118   4.785  17.072  1.4552  0.8338 -0.7069
15806TIP3   OH268832   6.624   4.594   0.717 -0.1265  0.2583  0.0918
15806TIP3    H168833   6.565   4.667   0.733 -0.6401  0.0104 -0.6198
15806TIP3    H268834   6.571   4.531   0.667  1.1861  0.7156 -2.0044
15807TIP3   OH268835   2.037   3.891  16.809  0.4958 -0.1865 -0.3717
15807TIP3    H168836   2.076   3.904  16.896  1.0169 -2.8340 -0.1274
15807TIP3    H268837   2.094   3.939  16.750  0.4234  1.2508  0.6727
15808TIP3   OH268838   3.671   1.243   6.742 -0.2585 -0.2023  0.4373
15808TIP3    H168839   3.720   1.170   6.704  0.3939 -0.0209  0.9242
15808TIP3    H268840   3.709   1.255   6.829 -0.5686  0.5154  0.4792
15809TIP3   OH268841   0.072   1.979  16.942  0.1711  0.0363 -0.6502
15809TIP3    H168842   0.059   1.892  16.904  1.3323 -0.6704  0.4920
15809TIP3    H268843   0.033   2.039  16.878  0.8539 -1.1861 -2.3049
15810TIP3   OH268844   4.699   5.888   1.227 -0.3568 -0.3082 -0.1753
15810TIP3    H168845   4.763   5.947   1.268 -1.0984 -0.2070  0.8612
15810TIP3    H268846   4.747   5.807   1.213  0.1364 -0.0746  0.1368
15811TIP3   OH268847   5.347   2.319  11.763 -0.5966  0.2140 -0.0585
15811TIP3    H168848   5.421   2.369  11.798  1.8561 -1.0983 -2.8859
15811TIP3    H268849   5.337   2.245  11.823  2.4580 -1.1745 -1.0807
15812TIP3   OH268850   0.550   3.203  12.229 -0.4883 -0.0895  0.1205
15812TIP3    H168851   0.643   3.191  12.248 -0.5303  1.6355  1.6882
15812TIP3    H268852   0.505   3.146  12.292 -0.5459 -1.5904 -1.2004
15813TIP3   OH268853   2.490   3.862   0.910  0.1683  0.0047 -0.7000
15813TIP3    H168854   2.487   3.957   0.909 -1.4018 -0.0041  0.6332
15813TIP3    H268855   2.584   3.841   0.910  0.5546  1.5765  0.3962
15814TIP3   OH268856   0.861   5.265  11.068  0.5700 -0.7081  0.6070
15814TIP3    H168857   0.893   5.176  11.053 -1.8903 -1.8757  1.8027
15814TIP3    H268858   0.766   5.258  11.058  0.2084  1.5134  2.0067
15815TIP3   OH268859   5.643   3.528  10.718  0.0123  0.0573  0.4488
15815TIP3    H168860   5.733   3.511  10.689  0.8572  2.1994  1.5580
15815TIP3    H268861   5.647   3.616  10.755 -2.7423  0.4949 -0.1286
15816TIP3   OH268862   5.462   3.790   0.055  0.1051  0.1686 -0.4091
15816TIP3    H168863   5.537   3.805   0.114  0.4014 -1.0982 -0.4414
15816TIP3    H268864   5.388   3.827   0.102  0.6146  0.6997  0.0018
15817TIP3   OH268865   5.304   5.529  15.959  0.7567  0.2154  0.4940
15817TIP3    H168866   5.342   5.576  15.884 -1.0383  1.6792  0.4436
15817TIP3    H268867   5.274   5.598  16.018 -0.9441 -0.8666  0.9626
15818TIP3   OH268868   1.071   4.726   3.384 -0.4080  0.3585  0.0366
15818TIP3    H168869   1.011   4.770   3.443  1.1147  2.3703  0.1624
15818TIP3    H268870   1.099   4.647   3.432 -1.6124  0.2879  0.6479
15819TIP3   OH268871   3.723   2.467  15.834  0.2045  0.2526 -0.6245
15819TIP3    H168872   3.792   2.517  15.790  0.3451 -1.6558 -2.8073
15819TIP3    H268873   3.727   2.496  15.925  1.2104  3.0538 -1.4489
15820TIP3   OH268874   3.378   5.903  16.095 -0.5315  0.4987 -0.0884
15820TIP3    H168875   3.382   5.942  16.182 -0.8987  0.3858 -0.0190
15820TIP3    H268876   3.400   5.975  16.035 -0.4120  0.6094  0.0883
15821TIP3   OH268877   0.122   1.474  14.697  0.5093  0.5017  0.4822
15821TIP3    H168878   0.181   1.531  14.649 -0.6422  0.6043 -0.8618
15821TIP3    H268879   0.127   1.390  14.652 -0.9344  0.7261 -0.1564
15822TIP3   OH268880   2.521   5.951   3.627 -0.1810 -0.0215  0.1638
15822TIP3    H168881   2.511   5.962   3.721 -1.7615  3.1313 -0.2393
15822TIP3    H268882   2.612   5.976   3.609  0.0630 -0.4406  0.7821
15823TIP3   OH268883   5.332   4.779  14.772 -0.2796  0.4673  0.4956
15823TIP3    H168884   5.343   4.708  14.835  0.3554  1.5798  1.6992
15823TIP3    H268885   5.421   4.805  14.748 -0.5057  0.6648 -0.1537
15824TIP3   OH268886   0.965   2.526  17.145 -0.1443 -0.5985 -0.6374
15824TIP3    H168887   1.039   2.474  17.114 -0.0496 -0.8645  0.0211
15824TIP3    H268888   1.004   2.590  17.205 -0.5044 -1.1167  0.1735
15825TIP3   OH268889   2.470   4.892  14.334 -0.5202  0.0076 -0.5308
15825TIP3    H168890   2.386   4.896  14.288  0.4445 -0.1628 -2.4093
15825TIP3    H268891   2.461   4.955  14.406 -2.3646 -0.2800 -0.4533
15826TIP3   OH268892   3.674   0.839   5.957 -0.1267  0.4693 -0.6404
15826TIP3    H168893   3.756   0.793   5.977 -0.9189 -0.9803 -0.6007
15826TIP3    H268894   3.648   0.879   6.040  0.4115  0.7540 -0.6004
15827TIP3   OH268895   5.691   6.735  16.871  0.4705 -0.4961  0.6670
15827TIP3    H168896   5.681   6.683  16.951  0.1839 -0.4244  0.6799
15827TIP3    H268897   5.725   6.674  16.806 -0.4215 -0.8473  0.5207
15828TIP3   OH268898   4.598   2.151  10.644  0.3552 -0.1627  0.2221
15828TIP3    H168899   4.614   2.232  10.596  3.0324 -0.6309  0.1933
15828TIP3    H268900   4.685   2.117  10.663 -0.6067 -4.1004 -1.5054
15829TIP3   OH268901   6.507   3.522   5.346 -0.0035  0.3028  0.0168
15829TIP3    H168902   6.561   3.455   5.388 -0.0604  0.6921  0.7287
15829TIP3    H268903   6.425   3.521   5.394  0.1478  1.1605  0.3163
15830TIP3   OH268904   2.547   2.062   1.532 -0.4977  0.0801  0.3645
15830TIP3    H168905   2.547   2.133   1.468 -0.9110 -1.5660 -1.5429
15830TIP3    H268906   2.631   2.017   1.519 -0.8414 -0.6302  0.5346
15831TIP3   OH268907   2.626   6.732  14.357 -0.0166  0.6578 -0.0720
15831TIP3    H168908   2.693   6.674  14.393 -0.2465  0.5620  0.2031
15831TIP3    H268909   2.603   6.790  14.429 -0.5407  0.4097 -0.0367
15832TIP3   OH268910   1.841   3.720  11.247 -0.2501 -0.1683  0.0595
15832TIP3    H168911   1.928   3.760  11.239  0.1372 -0.9653  0.1762
15832TIP3    H268912   1.836   3.658  11.175 -0.1610 -1.1257  0.8521
15833TIP3   OH268913   1.130   2.418  15.023 -0.4735 -0.2213 -0.1149
15833TIP3    H168914   1.122   2.505  15.062  1.3994  0.5771 -1.3428
15833TIP3    H268915   1.216   2.387  15.051  0.8007  0.2394 -3.1089
15834TIP3   OH268916   4.083   6.771  12.587 -0.9099 -0.1879 -0.0825
15834TIP3    H168917   4.124   6.845  12.631  0.2497 -0.6044 -0.4212
15834TIP3    H268918   4.028   6.810  12.519 -1.1275  0.3837  0.4126
15835TIP3   OH268919   3.390   6.389  13.006 -0.0518 -0.3545  0.6215
15835TIP3    H168920   3.369   6.315  12.949  2.6077  0.5237 -1.7199
15835TIP3    H268921   3.482   6.377  13.029 -0.2329  0.9672  2.2758
15836TIP3   OH268922   6.497   6.044  13.031 -0.1262  0.5852  0.4517
15836TIP3    H168923   6.460   6.088  12.955 -3.0588  0.7354  1.8406
15836TIP3    H268924   6.462   5.955  13.027 -0.5566  0.6685  1.7363
15837TIP3   OH268925   3.819   3.108  16.203 -0.1471  0.2146  0.2813
15837TIP3    H168926   3.896   3.151  16.165 -0.6188 -0.8360 -2.0489
15837TIP3    H268927   3.744   3.158  16.168 -0.6085 -0.9790 -0.4861
15838TIP3   OH268928   4.575   1.418   1.273  0.5577  0.0178  0.0060
15838TIP3    H168929   4.668   1.424   1.252  0.5099  0.7244 -0.0334
15838TIP3    H268930   4.557   1.498   1.322 -0.3947  0.7162 -1.4182
15839TIP3   OH268931   5.248   1.172   2.292 -0.1723 -0.4332  0.3849
15839TIP3    H168932   5.156   1.150   2.301 -1.0463  1.6615 -2.2299
15839TIP3    H268933   5.265   1.167   2.198  1.6062  1.8975  0.4841
15840TIP3   OH268934   4.356   0.261  11.195 -0.0472  0.1652 -0.0115
15840TIP3    H168935   4.442   0.302  11.185  1.0210 -2.0206 -0.4250
15840TIP3    H268936   4.349   0.243  11.289  0.6074 -0.9240 -0.1559
15841TIP3   OH268937   0.063   1.776  15.365  0.1525  0.9689  0.1171
15841TIP3    H168938   0.048   1.739  15.278  3.9411 -2.1639  0.5237
15841TIP3    H268939   0.119   1.852  15.349 -1.0231  1.8040 -0.2153
15842TIP3   OH268940   3.409   1.726  14.469  0.2467  0.5045  0.1808
15842TIP3    H168941   3.496   1.743  14.434  0.9036 -1.0604  0.9609
15842TIP3    H268942   3.393   1.799  14.530 -0.0138  2.0542 -1.6635
15843TIP3   OH268943   3.739   0.260  16.038 -0.2533  0.7036  0.3282
15843TIP3    H168944   3.785   0.316  16.101 -0.5383  0.1249  1.0640
15843TIP3    H268945   3.686   0.321  15.986  1.5010  1.4191 -0.7175
15844TIP3   OH268946   2.864   6.107   0.579  0.5620 -0.4086  0.6630
15844TIP3    H168947   2.903   6.191   0.555  2.5025 -1.5349 -0.3812
15844TIP3    H268948   2.816   6.126   0.660 -1.7011  2.3391 -1.1254
15845TIP3   OH268949   4.701   2.761  15.321 -0.4846 -0.5781  0.6761
15845TIP3    H168950   4.712   2.757  15.226 -0.2019  2.8614  0.4517
15845TIP3    H268951   4.749   2.684  15.354 -1.9737 -2.7901 -1.9590
15846TIP3   OH268952   4.058   5.533  14.148 -0.1392 -0.2526 -0.0749
15846TIP3    H168953   4.050   5.629  14.151 -0.1656 -0.2682  1.2344
15846TIP3    H268954   4.146   5.516  14.181  0.6058 -0.6273 -2.1262
15847TIP3   OH268955   6.125   1.088  11.860  0.3281 -0.6400  0.0133
15847TIP3    H168956   6.180   1.162  11.885 -1.1203  0.2678  0.6679
15847TIP3    H268957   6.051   1.128  11.814 -0.6495 -1.6156  0.6733
15848TIP3   OH268958   5.392   1.945  12.102 -0.2071  0.0472  0.2201
15848TIP3    H168959   5.449   1.889  12.050 -2.3475 -0.1666 -2.0558
15848TIP3    H268960   5.414   1.924  12.193  2.8143 -0.4698 -0.5227
15849TIP3   OH268961   4.260   6.609  16.557  0.2341 -0.4535 -0.0715
15849TIP3    H168962   4.290   6.518  16.551  2.0733  0.0837  0.4587
15849TIP3    H268963   4.330   6.660  16.515  0.1489  0.8750  1.3260
15850TIP3   OH268964   6.224   5.031   1.582 -0.5091 -0.1737  0.1615
15850TIP3    H168965   6.144   4.987   1.555 -0.3183 -1.8263  2.0449
15850TIP3    H268966   6.290   5.002   1.519 -0.6794 -1.6215  0.6107
15851TIP3   OH268967   2.824   3.693   1.602  0.2229 -0.1121  0.5570
15851TIP3    H168968   2.818   3.788   1.590 -0.5215 -0.1810  0.2824
15851TIP3    H268969   2.916   3.672   1.586  0.0649  0.3426 -1.2203
15852TIP3   OH268970   2.387   6.102   1.607 -0.1437 -0.0039  0.2450
15852TIP3    H168971   2.473   6.142   1.621  0.1519 -0.5074 -0.0749
15852TIP3    H268972   2.329   6.147   1.668 -0.1781  2.0181 -1.1852
15853TIP3   OH268973   0.237   6.529  13.871 -0.7373 -0.1118 -0.3807
15853TIP3    H168974   0.286   6.461  13.918  0.4331  0.0280 -1.3511
15853TIP3    H268975   0.145   6.503  13.881 -0.3040 -2.0530 -1.0451
15854TIP3   OH268976   4.162   0.656   2.787 -0.4140 -0.1090  0.1564
15854TIP3    H168977   4.120   0.644   2.872 -0.1201 -0.5486  0.2456
15854TIP3    H268978   4.252   0.628   2.801 -0.7938 -1.8961 -0.7432
15855TIP3   OH268979   6.487   2.089  10.920 -0.5951  0.1711 -0.0746
15855TIP3    H168980   6.434   2.094  10.841  1.7035 -0.7708 -1.8119
15855TIP3    H268981   6.574   2.120  10.893 -0.0866  1.3543  2.5221
15856TIP3   OH268982   0.825   5.649  12.114 -0.1736  0.0072  0.3762
15856TIP3    H168983   0.797   5.557  12.123 -0.4198 -0.2221 -2.0347
15856TIP3    H268984   0.897   5.658  12.177  1.0196 -2.3662 -0.4964
15857TIP3   OH268985   1.805   1.384   0.809 -0.3124 -0.2016 -0.3879
15857TIP3    H168986   1.773   1.294   0.804 -2.1346  0.3740 -0.0506
15857TIP3    H268987   1.846   1.390   0.895 -0.2567 -0.6897 -0.3786
15858TIP3   OH268988   4.250   2.877   1.804  0.4214  0.2086 -0.1868
15858TIP3    H168989   4.305   2.841   1.734  1.1018  0.6829  0.0934
15858TIP3    H268990   4.219   2.960   1.769 -2.1769 -1.1280 -1.3438
15859TIP3   OH268991   2.354   0.534   1.445  0.0972  0.2625  0.0225
15859TIP3    H168992   2.381   0.446   1.419 -1.1441  0.0340 -0.5671
15859TIP3    H268993   2.393   0.591   1.379 -1.1677 -0.1091 -1.1101
15860TIP3   OH268994   5.132   6.070  13.518  0.4075 -0.0699 -0.2110
15860TIP3    H168995   5.104   6.157  13.545  1.3968 -0.5357  2.6596
15860TIP3    H268996   5.185   6.084  13.440 -1.0223  1.6366 -0.9434
15861TIP3   OH268997   2.885   4.553  14.195 -0.1935  0.2259  0.0658
15861TIP3    H168998   2.857   4.642  14.218 -2.3275 -0.1312 -0.8798
15861TIP3    H268999   2.844   4.497  14.262  0.6722 -0.1149  0.3265
15862TIP3   OH269000   0.584   2.315  16.853  0.2115 -0.1184  0.1460
15862TIP3    H169001   0.513   2.286  16.911 -0.6929 -0.3280 -1.0367
15862TIP3    H269002   0.661   2.319  16.910 -0.4195 -1.3208  1.1454
15863TIP3   OH269003   6.103   0.798   3.860  0.2239  0.0746 -0.2569
15863TIP3    H169004   6.034   0.836   3.805 -0.0553 -0.1852 -0.0943
15863TIP3    H269005   6.165   0.869   3.874  0.1958  0.1978 -0.7438
15864TIP3   OH269006   2.466   0.163   5.102  0.3000  0.2650 -0.5010
15864TIP3    H169007   2.398   0.195   5.161  0.5485 -0.3542  0.1323
15864TIP3    H269008   2.428   0.171   5.014 -1.6241 -2.4498 -0.0330
15865TIP3   OH269009   0.336   2.248   1.760  0.0187 -0.7261 -0.1900
15865TIP3    H169010   0.368   2.337   1.750 -0.0319 -0.7277 -0.3633
15865TIP3    H269011   0.305   2.223   1.673  0.3592 -1.0404 -0.2261
15866TIP3   OH269012   5.075   4.977   5.434 -0.5124  0.2625  0.0330
15866TIP3    H169013   5.135   4.913   5.397  0.2916  0.5968  0.7224
15866TIP3    H269014   5.102   5.061   5.395 -0.7949  0.3567  0.0360
15867TIP3   OH269015   0.107   2.620  12.120 -0.4843 -0.0848 -0.9250
15867TIP3    H169016   0.016   2.607  12.094 -0.6427  0.7615 -0.8260
15867TIP3    H269017   0.138   2.692  12.064  0.3670 -0.8711 -1.5118
15868TIP3   OH269018   2.343   1.239  16.691  0.1216 -0.3695 -0.6450
15868TIP3    H169019   2.279   1.206  16.628 -0.0629  0.2658 -0.8015
15868TIP3    H269020   2.329   1.334  16.692  0.7980 -0.2650 -0.3862
15869TIP3   OH269021   1.439   5.752  11.660 -0.1366  0.5590 -0.0292
15869TIP3    H169022   1.344   5.744  11.651 -0.2052  1.2178  0.0669
15869TIP3    H269023   1.451   5.806  11.739  0.3426 -0.4323  0.5962
15870TIP3   OH269024   2.186   6.687  12.638 -0.5061  0.1195 -0.0714
15870TIP3    H169025   2.160   6.692  12.730 -0.9361  0.2510 -0.1982
15870TIP3    H269026   2.236   6.605  12.632  0.1671  0.4832  0.4305
15871TIP3   OH269027   3.551   2.013   4.467 -0.4049  0.3340  0.1951
15871TIP3    H169028   3.581   1.976   4.550 -2.5749  0.3826  1.0704
15871TIP3    H269029   3.494   1.946   4.430 -2.3811  1.6979  0.5879
15872TIP3   OH269030   4.654   0.289  13.627 -0.0697  0.3133 -0.1753
15872TIP3    H169031   4.649   0.376  13.667 -1.5899  0.4792 -0.6597
15872TIP3    H269032   4.639   0.228  13.699 -3.6086  0.6274 -0.4675
15873TIP3   OH269033   6.392   2.219  12.063  0.2264 -1.1766  0.5197
15873TIP3    H169034   6.422   2.251  12.147  2.3974  0.2042 -0.7006
15873TIP3    H269035   6.309   2.265  12.048  0.6313 -0.2098  1.1794
15874TIP3   OH269036   2.413   0.453   3.314 -0.4539 -0.0840  0.0511
15874TIP3    H169037   2.461   0.507   3.251  0.5650  0.1890  1.0385
15874TIP3    H269038   2.345   0.410   3.261  0.1581  0.3924 -1.1702
15875TIP3   OH269039   5.898   3.367   1.760 -1.1361 -0.1086  0.2436
15875TIP3    H169040   5.893   3.277   1.727 -0.5099 -0.3654  0.8364
15875TIP3    H269041   5.923   3.357   1.852 -1.5925  0.6536  0.4547
15876TIP3   OH269042   0.997   3.332  11.278  0.1543 -0.0383  0.1456
15876TIP3    H169043   1.091   3.319  11.292 -0.2320 -2.4025  0.9303
15876TIP3    H269044   0.968   3.253  11.233 -1.4980  0.5775  0.0735
15877TIP3   OH269045   5.323   5.018  15.588  0.0419  0.0010 -0.0883
15877TIP3    H169046   5.359   4.930  15.595  1.9074  0.6556 -0.8398
15877TIP3    H269047   5.377   5.070  15.648 -1.4858  0.5244  0.8800
15878TIP3   OH269048   5.064   0.609   1.003 -0.1981 -0.3046  0.6050
15878TIP3    H169049   5.140   0.559   0.972 -0.1829  0.0864 -0.0094
15878TIP3    H269050   5.099   0.663   1.074  0.1705  0.0727  0.1493
15879TIP3   OH269051   4.754   3.174  11.301  0.5854  0.0785  0.1030
15879TIP3    H169052   4.839   3.216  11.312  0.5984  0.3177 -0.8225
15879TIP3    H269053   4.774   3.080  11.299  0.9625  0.1739 -1.1321
15880TIP3   OH269054   0.914   2.681  11.903 -0.2139 -0.1903  0.2161
15880TIP3    H169055   0.839   2.720  11.949 -2.1602 -3.2416 -0.0147
15880TIP3    H269056   0.974   2.655  11.973 -1.0058 -0.7026  0.7321
15881TIP3   OH269057   0.334   3.975  13.798  0.2925 -0.8832 -0.1550
15881TIP3    H169058   0.263   3.952  13.858 -0.5943  1.5888 -0.1419
15881TIP3    H269059   0.343   3.898  13.741 -1.7108 -1.6634  0.4813
15882TIP3   OH269060   6.185   0.040   3.874  0.3851  0.2784  0.5182
15882TIP3    H169061   6.228   0.122   3.899  1.5830 -0.1979  0.1318
15882TIP3    H269062   6.154   0.002   3.956  0.1887  0.9170  0.7408
15883TIP3   OH269063   2.402   2.851  12.124  0.1008  0.1378  0.1395
15883TIP3    H169064   2.375   2.940  12.145  0.9499  0.4006  0.1385
15883TIP3    H269065   2.437   2.816  12.206  1.2550  0.3627 -0.2452
15884TIP3   OH269066   3.447   4.957  13.773 -0.2608 -0.3945 -0.4130
15884TIP3    H169067   3.441   4.912  13.858 -0.5965 -0.7117 -0.6027
15884TIP3    H269068   3.376   5.020  13.775 -0.5359 -0.6920 -0.6244
15885TIP3   OH269069   4.328   1.570  16.197  0.0815 -0.5601 -0.0555
15885TIP3    H169070   4.325   1.622  16.277  0.8995 -1.9264  0.8945
15885TIP3    H269071   4.266   1.499  16.212  0.8648 -1.3070 -0.2564
15886TIP3   OH269072   0.860   3.760  17.166 -0.8531  0.2114 -0.2154
15886TIP3    H169073   0.927   3.745  17.099 -0.3376 -2.4874  0.7704
15886TIP3    H269074   0.872   3.688  17.228 -2.7078  1.3914  1.6456
15887TIP3   OH269075   6.509   2.617   2.931 -0.4415 -0.9224  0.5463
15887TIP3    H169076   6.530   2.526   2.909 -2.7265 -1.6758  1.1348
15887TIP3    H269077   6.442   2.641   2.867  1.1050  0.8897 -0.4924
15888TIP3   OH269078   5.371   5.645   4.816  0.3407 -0.5021  0.8588
15888TIP3    H169079   5.457   5.655   4.775 -0.3197  1.7698 -0.1937
15888TIP3    H269080   5.323   5.585   4.759  0.6418 -0.2740  0.3590
15889TIP3   OH269081   5.536   2.121  14.073 -0.2144 -0.5552  0.3127
15889TIP3    H169082   5.622   2.131  14.112  0.0141  0.5586 -0.4330
15889TIP3    H269083   5.500   2.042  14.113  0.4099 -0.0312  1.9901
15890TIP3   OH269084   1.900   3.888  13.157  0.5364 -0.2864 -0.0933
15890TIP3    H169085   1.989   3.895  13.191 -0.0939  0.7382  1.4657
15890TIP3    H269086   1.891   3.963  13.098  0.5317 -0.0617  0.1908
15891TIP3   OH269087   2.266   4.767  10.773  1.0679 -0.2282  0.5824
15891TIP3    H169088   2.323   4.770  10.850  0.6527  0.3520  0.8810
15891TIP3    H269089   2.185   4.811  10.802  0.1975 -1.6348  0.4029
15892TIP3   OH269090   3.456   0.875  14.576  1.0960  1.0348 -0.0750
15892TIP3    H169091   3.421   0.828  14.651 -1.1631  2.6025 -0.0464
15892TIP3    H269092   3.549   0.885  14.596  0.8854 -0.0344  1.6941
15893TIP3   OH269093   2.669   6.534   2.403 -0.0857  0.4851  0.0637
15893TIP3    H169094   2.683   6.440   2.397 -0.0870  0.4672  0.3106
15893TIP3    H269095   2.756   6.570   2.423 -0.3384  0.3901  1.4427
15894TIP3   OH269096   6.512   2.855   4.249 -0.2480 -0.5826  0.0508
15894TIP3    H169097   6.528   2.947   4.267 -0.1582 -0.6854  0.5050
15894TIP3    H269098   6.482   2.819   4.333  1.3978 -1.3445  0.3480
15895TIP3   OH269099   1.273   5.393  16.001  0.2202  0.1883 -0.3290
15895TIP3    H169100   1.309   5.453  16.066  0.2316 -0.2895  0.1096
15895TIP3    H269101   1.347   5.338  15.975  0.7015  1.6097 -2.1841
15896TIP3   OH269102   0.825   0.803   6.001 -0.0359  0.0021  0.1001
15896TIP3    H169103   0.861   0.890   6.015 -1.0448  0.3863  0.4003
15896TIP3    H269104   0.850   0.780   5.912  1.5420 -0.0464  0.5325
15897TIP3   OH269105   4.085   1.234  17.132 -0.5345 -0.6169  0.2020
15897TIP3    H169106   4.097   1.261  17.041  0.7027 -0.4000  0.4074
15897TIP3    H269107   4.043   1.149  17.127 -0.3344 -0.6758 -0.5764
15898TIP3   OH269108   6.027   0.592   6.181  0.1843 -0.1798 -0.9696
15898TIP3    H169109   5.959   0.615   6.244  0.2195 -1.5342 -0.3911
15898TIP3    H269110   6.016   0.498   6.168  1.7343 -0.3659 -1.1089
15899TIP3   OH269111   3.630   3.090   3.950  0.1137  0.2095  0.5422
15899TIP3    H169112   3.668   3.162   4.000 -0.8240  1.9789 -1.1716
15899TIP3    H269113   3.706   3.044   3.913  0.7029  0.9889  0.7635
15900TIP3   OH269114   0.825   4.778   4.140 -0.7205 -0.0867  0.0512
15900TIP3    H169115   0.801   4.685   4.146  0.4946 -0.4628 -0.6121
15900TIP3    H269116   0.917   4.781   4.165  0.1578  0.4419 -2.8379
15901TIP3   OH269117   0.298   3.787  11.491  0.0765  0.3136 -0.5007
15901TIP3    H169118   0.232   3.751  11.432  0.0546  1.2508 -1.0648
15901TIP3    H269119   0.248   3.828  11.561  0.0916 -0.1538 -0.2107
15902TIP3   OH269120   6.252   0.535  16.372 -1.1993 -0.8758  0.6272
15902TIP3    H169121   6.265   0.440  16.363 -0.9252 -0.7253 -0.8622
15902TIP3    H269122   6.159   0.548  16.355 -1.2195 -0.8680  0.7435
15903TIP3   OH269123   5.516   4.256  12.587 -0.1115  0.0977 -0.4643
15903TIP3    H169124   5.453   4.289  12.652  1.0080  0.4675  0.4742
15903TIP3    H269125   5.553   4.178  12.627  1.2724  0.8497 -0.2004
15904TIP3   OH269126   5.287   5.737  14.035 -0.5868 -0.4795 -0.0464
15904TIP3    H169127   5.218   5.803  14.027  0.2265  0.2689 -1.0670
15904TIP3    H269128   5.285   5.713  14.128 -2.3859 -0.6721 -0.0943
15905TIP3   OH269129   1.470   6.144   3.953  0.1579 -0.3591 -0.1904
15905TIP3    H169130   1.473   6.236   3.928 -1.0980 -0.2210  0.0992
15905TIP3    H269131   1.548   6.131   4.007 -0.1491  0.7862  0.5587
15906TIP3   OH269132   3.967   5.008   0.669 -0.1669 -0.8038 -0.0986
15906TIP3    H169133   4.061   4.999   0.685 -0.3540 -3.4692  0.0429
15906TIP3    H269134   3.960   5.031   0.576  0.6126 -1.0116 -0.2169
15907TIP3   OH269135   4.978   2.199  16.678  0.2480 -0.6284 -0.1413
15907TIP3    H169136   5.018   2.166  16.759  2.0047 -1.0555 -1.1338
15907TIP3    H269137   4.899   2.146  16.667  0.1966 -0.8362  1.0650
15908TIP3   OH269138   1.305   6.299  16.158 -0.5006 -0.2991  0.1019
15908TIP3    H169139   1.325   6.254  16.076  2.5878  0.3313  0.3898
15908TIP3    H269140   1.305   6.230  16.224  0.6126 -0.4013  0.0254
15909TIP3   OH269141   2.466   1.763   1.199 -0.3176 -0.1219  0.4690
15909TIP3    H169142   2.534   1.701   1.171  0.3521  0.1854  1.3510
15909TIP3    H269143   2.422   1.788   1.118  0.2444 -0.7766 -0.0555
15910TIP3   OH269144   6.022   2.124   4.018 -0.4294 -0.3720  0.6612
15910TIP3    H169145   5.963   2.169   3.958 -2.0198 -0.4497  2.0546
15910TIP3    H269146   6.010   2.031   3.998  0.3486 -0.3209 -0.0390
15911TIP3   OH269147   6.156   4.398  16.160 -0.1864  0.1003 -0.0731
15911TIP3    H169148   6.118   4.329  16.213  0.5668  0.1705  0.5913
15911TIP3    H269149   6.108   4.396  16.077 -0.2467 -1.1304 -0.0182
15912TIP3   OH269150   1.657   1.242  10.814  0.2769  0.2520  0.3891
15912TIP3    H169151   1.568   1.217  10.788  0.6283  0.3912 -1.0274
15912TIP3    H269152   1.659   1.337  10.802  1.2592  0.0138 -1.8108
15913TIP3   OH269153   4.821   1.140   0.541 -1.2157  0.1613  0.4759
15913TIP3    H169154   4.832   1.143   0.636 -1.8803  0.0521  0.5577
15913TIP3    H269155   4.788   1.226   0.518 -1.8959 -0.0960  0.4590
15914TIP3   OH269156   2.362   6.132   5.289 -0.1331 -0.1856 -0.3666
15914TIP3    H169157   2.294   6.185   5.247 -0.0837 -0.1376 -0.3858
15914TIP3    H269158   2.367   6.166   5.378  1.3265  1.2323 -0.9376
15915TIP3   OH269159   1.871   2.917  13.062  0.7776  0.8019 -1.0867
15915TIP3    H169160   1.871   3.008  13.031  0.6744  1.8486  1.7393
15915TIP3    H269161   1.802   2.915  13.128  0.2535 -1.5809 -1.6308
15916TIP3   OH269162   1.061   3.219  16.690  0.0507 -0.3676  0.3328
15916TIP3    H169163   1.014   3.147  16.649  0.0218  0.5520 -1.3301
15916TIP3    H269164   1.011   3.297  16.667  1.1126  0.3889  0.5051
15917TIP3   OH269165   4.532   6.398  13.926  0.4265 -0.1122 -0.1860
15917TIP3    H169166   4.583   6.479  13.931 -0.7343  0.5899  1.5891
15917TIP3    H269167   4.597   6.328  13.930  1.3146  0.7475  1.7040
15918TIP3   OH269168   1.084   3.694  14.223  0.1278  0.2308 -0.8460
15918TIP3    H169169   1.016   3.637  14.260  0.3897 -1.2767 -2.5100
15918TIP3    H269170   1.053   3.783  14.241 -0.2018 -0.3612  2.0473
15919TIP3   OH269171   5.369   6.571   0.625  0.6204 -0.0043 -0.1948
15919TIP3    H169172   5.363   6.595   0.718  2.2305  0.8326 -0.2692
15919TIP3    H269173   5.293   6.612   0.585  1.4020  2.0891  0.3094
15920TIP3   OH269174   4.016   3.879  17.101 -0.0514  0.4728 -0.0729
15920TIP3    H169175   4.019   3.969  17.131 -0.6887  0.6723 -0.5836
15920TIP3    H269176   3.929   3.869  17.061 -0.8830 -0.9989  1.9211
15921TIP3   OH269177   6.691   2.708  15.999 -0.0119 -0.4170 -0.1295
15921TIP3    H169178   6.706   2.615  16.015  0.2809 -0.6397 -1.5602
15921TIP3    H269179   6.600   2.713  15.971  0.3117 -0.4611 -1.2393
15922TIP3   OH269180   4.772   1.575  12.132  0.3145  0.0109  0.1053
15922TIP3    H169181   4.713   1.547  12.062  0.9371 -2.2464  0.3892
15922TIP3    H269182   4.820   1.649  12.095  1.1827 -1.5819 -2.1955
15923TIP3   OH269183   0.643   6.004  15.950  0.2434  0.4409  0.3084
15923TIP3    H169184   0.557   6.040  15.928 -0.0945 -1.3733 -1.6048
15923TIP3    H269185   0.703   6.078  15.939 -0.8327  1.2750 -0.1525
15924TIP3   OH269186   6.730   6.215  12.573 -0.5688  0.6131  0.2272
15924TIP3    H169187   6.692   6.274  12.507 -0.1329  2.2193  1.3423
15924TIP3    H269188   6.824   6.218  12.556 -0.4962  0.6733  0.6427
15925TIP3   OH269189   0.568   2.593   4.358  0.0248  0.0331 -0.5713
15925TIP3    H169190   0.652   2.547   4.365 -0.3155 -0.5648 -0.2850
15925TIP3    H269191   0.591   2.683   4.337  0.7637 -0.0138  0.0021
15926TIP3   OH269192   5.025   2.163   4.910 -0.0399 -0.5984  0.0055
15926TIP3    H169193   4.930   2.151   4.907 -0.0856 -0.1693 -0.5202
15926TIP3    H269194   5.061   2.080   4.881 -0.1791 -1.5906  2.4525
15927TIP3   OH269195   5.500   3.626  15.382  0.1506 -0.1849 -0.4556
15927TIP3    H169196   5.433   3.570  15.344  0.0141 -0.1267 -0.3005
15927TIP3    H269197   5.547   3.569  15.443 -0.3911  0.0253  0.1750
15928TIP3   OH269198   0.897   0.552   0.927  0.6562  0.3964  0.2590
15928TIP3    H169199   0.858   0.512   0.849  0.9304  0.3117  0.1617
15928TIP3    H269200   0.875   0.493   0.999  1.1489  0.0092  0.0997
15929TIP3   OH269201   1.566   5.797   1.936 -0.3060  0.1698 -0.3831
15929TIP3    H169202   1.652   5.837   1.920 -0.9902  1.3895 -1.2141
15929TIP3    H269203   1.558   5.795   2.031  0.8657 -0.4776 -0.2792
15930TIP3   OH269204   6.190   4.565  11.328  0.0161 -0.2784 -0.2079
15930TIP3    H169205   6.122   4.614  11.281 -0.1940  0.4664  0.8413
15930TIP3    H269206   6.142   4.515  11.394  0.3518 -0.9495 -0.4636
15931TIP3   OH269207   1.441   0.589  15.881  0.4192  0.7407  0.2695
15931TIP3    H169208   1.450   0.616  15.789  0.1515  1.6757  0.5023
15931TIP3    H269209   1.458   0.495  15.880 -2.3476  0.1546 -1.1694
15932TIP3   OH269210   4.959   5.651  14.450  0.5504  0.6303 -0.3045
15932TIP3    H169211   4.920   5.709  14.516  1.2204  0.4718  0.2400
15932TIP3    H269212   5.050   5.681  14.443  0.3660  0.9617 -1.5228
15933TIP3   OH269213   2.284   6.093   4.142 -0.5654  0.3800 -0.0614
15933TIP3    H169214   2.332   6.148   4.081  0.3552  0.3243  0.6024
15933TIP3    H269215   2.350   6.056   4.199 -1.0957 -1.8613 -0.8042
15934TIP3   OH269216   2.001   4.715   1.739  0.0657 -0.6246 -0.1266
15934TIP3    H169217   2.029   4.805   1.723 -3.3905  0.5048 -0.5986
15934TIP3    H269218   2.039   4.693   1.824  2.1184  0.7117 -0.6306
15935TIP3   OH269219   4.898   2.776   1.602 -0.2621  0.1924 -0.5498
15935TIP3    H169220   4.809   2.782   1.636 -0.6165 -1.9296 -0.9484
15935TIP3    H269221   4.898   2.829   1.523 -1.1114  0.4054 -0.4125
15936TIP3   OH269222   5.635   6.571  14.465  0.2625  0.0610  0.1916
15936TIP3    H169223   5.652   6.478  14.474  0.6283 -0.0904 -1.6279
15936TIP3    H269224   5.646   6.607  14.553  0.2801 -1.5773  0.8803
15937TIP3   OH269225   5.848   5.931  15.699 -0.0618 -0.2151  0.1338
15937TIP3    H169226   5.903   5.975  15.634  0.2445 -0.2275  0.3776
15937TIP3    H269227   5.764   5.977  15.695  0.5643  1.0826  1.0808
15938TIP3   OH269228   0.398   1.077   3.272 -0.2277  0.3990 -0.2645
15938TIP3    H169229   0.384   1.028   3.191  0.2218 -0.0152 -0.0917
15938TIP3    H269230   0.365   1.165   3.252 -0.0659  0.3160 -0.9199
15939TIP3   OH269231   5.929   6.542   5.781  0.6220 -0.2502  0.5333
15939TIP3    H169232   5.892   6.630   5.787 -1.1745 -1.0057  1.1465
15939TIP3    H269233   5.959   6.536   5.690 -0.6715  0.4746  0.0188
15940TIP3   OH269234   3.811   0.636   2.938 -0.5454 -0.0412  0.3893
15940TIP3    H169235   3.899   0.642   2.976 -0.3080  0.2870 -0.1981
15940TIP3    H269236   3.793   0.542   2.934  0.5542 -0.2309 -1.2052
15941TIP3   OH269237   0.708   3.902  13.570  0.1302  0.0910  0.1652
15941TIP3    H169238   0.648   3.977  13.564 -0.6193 -0.4148  1.0687
15941TIP3    H269239   0.698   3.871  13.660  1.8444  0.0574  0.3646
15942TIP3   OH269240   5.435   0.867   0.101  0.3642  0.4822 -0.5660
15942TIP3    H169241   5.374   0.843   0.031 -0.6136 -0.5974  0.6228
15942TIP3    H269242   5.380   0.888   0.176  1.4332  0.1672  0.3348
15943TIP3   OH269243   6.185   5.948   2.079  0.1738  0.0711  0.2848
15943TIP3    H169244   6.111   5.892   2.102  0.3277 -1.2542 -2.0724
15943TIP3    H269245   6.186   6.016   2.145 -2.7006 -0.3047  0.8112
15944TIP3   OH269246   5.336   2.456   1.999  0.8918  0.1137  0.1618
15944TIP3    H169247   5.366   2.539   2.037  0.6694 -0.2336  1.1091
15944TIP3    H269248   5.337   2.394   2.072 -0.7016 -0.2746 -0.1146
15945TIP3   OH269249   1.318   4.606   2.422 -0.4480 -0.0792 -0.2955
15945TIP3    H169250   1.360   4.540   2.367  1.8558  1.4536 -0.4761
15945TIP3    H269251   1.321   4.687   2.370 -1.5337  0.6128  0.6544
15946TIP3   OH269252   4.130   4.586   5.892 -0.0885  0.1127  0.0591
15946TIP3    H169253   4.081   4.607   5.972 -0.8106  0.4681 -0.4646
15946TIP3    H269254   4.219   4.568   5.923 -0.3740  0.1547  0.9519
15947TIP3   OH269255   4.032   2.442   5.750 -0.2614  0.2833 -0.3332
15947TIP3    H169256   3.979   2.446   5.671 -0.7238  0.4270 -0.0210
15947TIP3    H269257   4.040   2.533   5.779  0.0357  0.2478 -0.2968
15948TIP3   OH269258   5.816   2.735  15.518 -0.1222 -0.6814 -0.5233
15948TIP3    H169259   5.866   2.666  15.564 -0.1365 -1.3537 -1.4881
15948TIP3    H269260   5.725   2.720  15.545 -0.3641 -2.0988 -1.9645
15949TIP3   OH269261   3.467   6.265   4.824  0.2320 -0.1583  0.5030
15949TIP3    H169262   3.464   6.206   4.899  0.1891  2.3741  2.6371
15949TIP3    H269263   3.533   6.331   4.848 -1.3615  1.9806 -0.6667
15950TIP3   OH269264   0.894   5.722  13.101 -0.0960 -0.2605  0.4038
15950TIP3    H169265   0.909   5.631  13.076 -0.4044 -0.1276 -0.2791
15950TIP3    H269266   0.812   5.721  13.151  1.2517 -0.7506  2.7778
15951TIP3   OH269267   4.255   6.687   0.908 -0.0257 -0.2355 -0.4398
15951TIP3    H169268   4.175   6.728   0.874 -0.1308 -0.7741 -0.8497
15951TIP3    H269269   4.321   6.702   0.841  0.1874  0.0823 -0.1651
15952TIP3   OH269270   5.533   6.383  13.518 -0.0703  0.2772  0.3851
15952TIP3    H169271   5.610   6.383  13.575  0.6806 -0.1293 -0.6023
15952TIP3    H269272   5.567   6.358  13.432 -1.3884 -0.4006  0.0380
15953TIP3   OH269273   0.508   0.110   5.837  0.4871 -0.0159  0.6895
15953TIP3    H169274   0.568   0.037   5.856 -1.3894 -1.3051  2.0070
15953TIP3    H269275   0.541   0.182   5.891  2.0621 -0.0069 -0.2264
15954TIP3   OH269276   0.109   4.674  12.093  0.6122  0.6977  0.1029
15954TIP3    H169277   0.115   4.768  12.109  2.3828  0.4275  1.2596
15954TIP3    H269278   0.196   4.649  12.064  0.6635 -0.8600  1.4890
15955TIP3   OH269279   3.049   1.334  13.061 -0.1979 -0.0284  0.2656
15955TIP3    H169280   3.110   1.323  13.133  1.2579 -0.9886 -1.0433
15955TIP3    H269281   3.051   1.250  13.015 -2.5851 -0.1239  0.1957
15956TIP3   OH269282   6.596   1.590   2.793 -0.3602  0.0499 -0.5517
15956TIP3    H169283   6.560   1.668   2.835 -0.4285  0.5568 -1.5237
15956TIP3    H269284   6.592   1.609   2.699  2.1481  0.0231 -0.7327
15957TIP3   OH269285   6.259   5.687  12.132 -0.4591  0.0523 -0.1810
15957TIP3    H169286   6.269   5.641  12.048 -0.0980 -0.2097  0.0048
15957TIP3    H269287   6.278   5.620  12.198  1.7155  0.8331  0.0740
15958TIP3   OH269288   5.713   5.063  13.591 -0.8824  0.2823  0.2483
15958TIP3    H169289   5.622   5.071  13.621 -2.4125  1.1287 -3.9676
15958TIP3    H269290   5.709   4.998  13.520  1.8117  0.4495 -0.1471
15959TIP3   OH269291   2.130   6.560  15.703 -0.0246  0.3945  0.3201
15959TIP3    H169292   2.221   6.540  15.681  1.1604  1.8421  3.3174
15959TIP3    H269293   2.108   6.499  15.773 -1.7620 -0.5728 -1.0009
15960TIP3   OH269294   6.525   4.976   6.316 -0.7968 -0.2515  0.2946
15960TIP3    H169295   6.591   5.044   6.308 -0.4282 -0.6295  0.0905
15960TIP3    H269296   6.504   4.974   6.410  0.2703 -0.8648  0.5370
15961TIP3   OH269297   3.909   4.651   2.639  0.9128  0.3909  0.5215
15961TIP3    H169298   3.988   4.647   2.694  0.9229  1.0366  0.5677
15961TIP3    H269299   3.942   4.674   2.553  0.9066 -0.7259  0.2110
15962TIP3   OH269300   6.673   4.690   5.537 -0.5783  0.4231 -0.1358
15962TIP3    H169301   6.760   4.729   5.551 -0.5055 -0.1735  1.2305
15962TIP3    H269302   6.612   4.762   5.555 -0.3928  0.8231 -1.0236
15963TIP3   OH269303   0.189   5.966   0.065  0.0421  0.3638  0.5927
15963TIP3    H169304   0.111   5.942   0.015  0.4143  0.3813 -0.0139
15963TIP3    H269305   0.251   5.998  -0.002  1.4470 -1.8395  0.7368
15964TIP3   OH269306   2.795   6.717  13.122 -0.0576  0.2223 -0.2265
15964TIP3    H169307   2.797   6.750  13.033 -0.9558  1.4810  0.1906
15964TIP3    H269308   2.850   6.778  13.172  1.6621 -1.2886 -0.1215
15965TIP3   OH269309   5.323   3.271  14.837  0.0735 -0.7193  0.3479
15965TIP3    H169310   5.359   3.351  14.877  1.0204 -1.1454  0.3665
15965TIP3    H269311   5.398   3.230  14.794 -0.6255 -1.0750 -0.5484
15966TIP3   OH269312   0.892   4.466  13.043 -0.3233  0.8246  0.1233
15966TIP3    H169313   0.923   4.556  13.035 -0.4302  0.9119  0.6704
15966TIP3    H269314   0.861   4.459  13.133 -0.6745  0.3547 -0.0302
15967TIP3   OH269315   3.669   4.278   2.851  0.4385  0.1677  0.0762
15967TIP3    H169316   3.624   4.306   2.772  1.2853  0.8482 -0.1794
15967TIP3    H269317   3.642   4.341   2.918  1.4032  0.8988 -0.2064
15968TIP3   OH269318   3.128   6.381  16.545 -0.5906 -0.0040  0.2007
15968TIP3    H169319   3.050   6.331  16.571 -0.7037 -0.4260 -0.9211
15968TIP3    H269320   3.202   6.326  16.571 -0.6800 -2.2969 -3.6299
15969TIP3   OH269321   1.101   3.966  16.903  0.2025  0.2857  0.0670
15969TIP3    H169322   1.167   3.897  16.916  0.7655  0.9777  0.9776
15969TIP3    H269323   1.147   4.037  16.859 -0.2741  0.2630 -0.4886
15970TIP3   OH269324   6.119   6.083  11.405 -0.7290  0.0283 -0.3676
15970TIP3    H169325   6.100   6.175  11.385 -1.1488 -0.4237 -2.2262
15970TIP3    H269326   6.213   6.082  11.426 -0.8360  0.9420  0.2256
15971TIP3   OH269327   5.318   1.628  16.265  0.1618 -0.1968 -0.4566
15971TIP3    H169328   5.412   1.637  16.279 -0.0534 -0.3300  1.4138
15971TIP3    H269329   5.303   1.533  16.263 -0.0564 -0.1998  0.5390
15972TIP3   OH269330   5.586   5.437  12.000 -0.2724  0.3409  0.1987
15972TIP3    H169331   5.586   5.501  12.071 -1.1817 -0.3344  0.8331
15972TIP3    H269332   5.502   5.392  12.007  0.3110 -0.9022 -0.2514
15973TIP3   OH269333   6.481   1.266   5.748 -0.4909  0.3192  0.1894
15973TIP3    H169334   6.393   1.303   5.760 -0.2621  0.9443 -0.0516
15973TIP3    H269335   6.479   1.227   5.661 -0.0672  1.6594 -0.4380
15974TIP3   OH269336   0.019   5.102   2.876 -0.1874  0.7797  0.5134
15974TIP3    H169337   0.104   5.144   2.890 -0.5733  1.2206  1.6039
15974TIP3    H269338  -0.027   5.162   2.817 -0.0069  0.9081  0.5014
15975TIP3   OH269339   5.594   6.457  16.975  0.3943 -0.2187 -0.0871
15975TIP3    H169340   5.619   6.385  16.917 -0.7091  0.8641 -1.9973
15975TIP3    H269341   5.658   6.453  17.046  0.0063 -3.4456  0.2477
15976TIP3   OH269342   1.894   2.593  13.674  0.4350 -0.4466 -0.2054
15976TIP3    H169343   1.843   2.620  13.750  2.5390  1.4905  0.6375
15976TIP3    H269344   1.912   2.501  13.688 -3.5507 -1.5439 -1.0813
15977TIP3   OH269345   5.684   2.948  12.100  0.3308 -0.2707 -0.6153
15977TIP3    H169346   5.673   2.962  12.194  0.8713 -2.0349 -0.2519
15977TIP3    H269347   5.626   3.012  12.059 -1.8032 -1.0985  0.9592
15978TIP3   OH269348   5.878   4.425  11.031 -0.1156 -0.3735 -0.5619
15978TIP3    H169349   5.967   4.442  11.000 -0.2255 -0.0276 -0.6933
15978TIP3    H269350   5.856   4.340  10.995  0.3400 -0.6799 -0.1290
15979TIP3   OH269351   1.386   4.886  14.059  0.0837 -0.2379  0.5190
15979TIP3    H169352   1.355   4.821  13.996  1.6485 -0.3669 -0.1780
15979TIP3    H269353   1.310   4.940  14.078 -1.2047 -2.0716  0.8792
15980TIP3   OH269354   1.332   1.104  15.409  0.0334 -0.3338  0.1334
15980TIP3    H169355   1.247   1.123  15.449 -1.3519  0.1840 -2.7485
15980TIP3    H269356   1.370   1.190  15.391  1.1462 -0.5642  1.2301
15981TIP3   OH269357   1.242   0.509  14.578 -0.7178  0.1488 -0.0206
15981TIP3    H169358   1.257   0.433  14.522 -1.7098 -0.8490  1.0138
15981TIP3    H269359   1.328   0.529  14.614 -0.6738 -1.4654  0.8715
15982TIP3   OH269360   2.353   3.697   5.561  0.4156 -0.3456  0.5522
15982TIP3    H169361   2.364   3.784   5.601  0.2971  0.5456 -1.2421
15982TIP3    H269362   2.269   3.666   5.594 -1.4911  1.9680 -1.6804
15983TIP3   OH269363   6.442   5.765  13.067  0.2443 -0.6301 -0.0460
15983TIP3    H169364   6.350   5.755  13.043  0.3383  0.4032 -0.9417
15983TIP3    H269365   6.482   5.680  13.047 -0.3726 -0.8442 -0.3694
15984TIP3   OH269366   4.593   6.071   2.237  0.2842 -0.2526 -0.4679
15984TIP3    H169367   4.513   6.027   2.268 -0.7613  0.5101 -1.9519
15984TIP3    H269368   4.630   6.109   2.316 -0.7850 -0.6812  0.2788
15985TIP3   OH269369   0.540   6.150  14.658  0.2861 -0.5324 -0.1622
15985TIP3    H169370   0.583   6.121  14.577  0.8579  0.0400 -0.0744
15985TIP3    H269371   0.557   6.244  14.661 -1.2911 -0.2189 -0.2992
15986TIP3   OH269372   2.035   3.240  17.166 -0.5839  0.0357  0.1736
15986TIP3    H169373   2.000   3.281  17.088 -0.7313  0.3558  0.4072
15986TIP3    H269374   2.050   3.149  17.141 -2.0426 -0.2402  0.2004
15987TIP3   OH269375   0.010   3.414   5.381  0.4271 -0.5163 -0.2889
15987TIP3    H169376  -0.061   3.361   5.418  0.3768  0.9985  2.0296
15987TIP3    H269377   0.061   3.352   5.329 -2.4442 -1.6959 -1.9651
15988TIP3   OH269378   5.558   4.623   0.510 -0.4805 -0.3137  0.2708
15988TIP3    H169379   5.543   4.532   0.532  0.3787  0.2077  3.4094
15988TIP3    H269380   5.578   4.622   0.416 -2.4501 -3.0340 -0.2214
15989TIP3   OH269381   2.126   0.866   1.420  0.5309  0.0997 -0.2921
15989TIP3    H169382   2.103   0.930   1.488  0.1252  1.1668 -1.3860
15989TIP3    H269383   2.168   0.795   1.468  2.5561  1.9190  0.8467
15990TIP3   OH269384   1.536   5.485  17.242  0.3234  0.0775 -0.2040
15990TIP3    H169385   1.496   5.507  17.326  1.3043 -0.8995  0.5523
15990TIP3    H269386   1.543   5.568  17.196 -3.0569  0.2675 -0.6637
15991TIP3   OH269387   3.245   4.520  16.249 -0.4088  0.2683  0.7064
15991TIP3    H169388   3.175   4.556  16.195 -0.2024  0.0778  0.3115
15991TIP3    H269389   3.213   4.434  16.277  0.1313 -0.3185 -0.4201
15992TIP3   OH269390   1.391   0.867  16.787 -0.0311 -0.2013  1.1401
15992TIP3    H169391   1.424   0.778  16.775  1.7283  0.5738 -0.2968
15992TIP3    H269392   1.463   0.914  16.828  0.7430  1.4852 -1.8482
15993TIP3   OH269393   3.367   3.714  11.510  0.5147 -0.5290 -0.8594
15993TIP3    H169394   3.314   3.721  11.590  0.2617 -3.8371 -0.6153
15993TIP3    H269395   3.411   3.799  11.503  1.3750 -0.4170  3.3810
15994TIP3   OH269396   0.294   4.249  12.062 -0.2053  0.3325 -0.1047
15994TIP3    H169397   0.307   4.162  12.099  1.3919 -0.3549 -2.0452
15994TIP3    H269398   0.199   4.261  12.058 -0.4286 -0.4731  1.9587
15995TIP3   OH269399   0.155   3.168  16.346 -0.6915 -0.3456  0.0795
15995TIP3    H169400   0.200   3.212  16.274 -2.1622  0.4991 -0.3794
15995TIP3    H269401   0.185   3.077  16.342  2.1424  0.4617  0.8080
15996TIP3   OH269402   0.435   0.870   1.352  0.3064 -0.3534  0.9004
15996TIP3    H169403   0.472   0.785   1.376 -0.1199 -1.2256 -1.3112
15996TIP3    H269404   0.427   0.868   1.257 -1.6558  1.3622  0.9317
15997TIP3   OH269405   2.554   5.694   3.118 -0.0445  0.0721  0.3826
15997TIP3    H169406   2.490   5.652   3.175 -0.1653 -1.0446 -0.5428
15997TIP3    H269407   2.515   5.778   3.096  0.3739  0.8957  2.5802
15998TIP3   OH269408   3.568   1.590  13.495 -0.2175 -0.0446 -0.7216
15998TIP3    H169409   3.493   1.622  13.545  0.3633 -0.7306  0.6127
15998TIP3    H269410   3.621   1.541  13.558  1.6685  0.9074 -1.4779
15999TIP3   OH269411   3.811   4.598   1.807  0.2048 -0.3850  0.5813
15999TIP3    H169412   3.824   4.652   1.885 -1.7214  0.0737  0.6278
15999TIP3    H269413   3.831   4.656   1.734 -2.1007  0.5685  0.6212
16000TIP3   OH269414   2.893   0.896   0.688 -0.3518 -0.0871  1.0730
16000TIP3    H169415   2.924   0.980   0.723  0.1804  0.3955 -0.4650
16000TIP3    H269416   2.973   0.854   0.656 -1.0645  0.7940 -2.1965
16001TIP3   OH269417   2.146   4.922   5.266 -0.1102 -0.1178 -0.1643
16001TIP3    H169418   2.096   4.958   5.193  0.2596  0.3173 -0.2103
16001TIP3    H269419   2.163   4.998   5.323 -1.7286 -0.7020  1.1806
16002TIP3   OH269420   5.440   3.048  12.581  0.5627 -0.2704  0.0185
16002TIP3    H169421   5.375   3.000  12.631  0.4234  0.3308  0.4317
16002TIP3    H269422   5.521   2.998  12.592  0.3047 -0.7019 -0.0174
16003TIP3   OH269423   0.960   3.559  13.607  0.2845 -0.2314 -0.0924
16003TIP3    H169424   0.872   3.564  13.571 -0.3479 -3.7043  0.6098
16003TIP3    H269425   1.002   3.487  13.558  2.5998  1.0129 -0.0816
16004TIP3   OH269426   0.333   0.271  15.016  0.6915 -0.0604  0.1597
16004TIP3    H169427   0.404   0.289  14.956  1.7439 -1.8273  0.8147
16004TIP3    H269428   0.276   0.209  14.970 -0.3722  1.2118 -0.2972
16005TIP3   OH269429   1.565   0.350  14.815  0.1363  0.0983  0.2845
16005TIP3    H169430   1.608   0.264  14.819  0.3822  0.2755  2.2850
16005TIP3    H269431   1.535   0.366  14.904 -0.3930  1.8627 -0.1765
16006TIP3   OH269432   5.894   6.729  14.018  0.4196  0.5867 -0.1852
16006TIP3    H169433   5.837   6.677  13.962  1.7343  0.4200 -1.4372
16006TIP3    H269434   5.838   6.800  14.049 -0.1032  1.4258 -2.7562
16007TIP3   OH269435   5.779   3.361   0.675  0.3672 -0.0525  0.2903
16007TIP3    H169436   5.870   3.366   0.702  0.8035  0.1939 -1.1055
16007TIP3    H269437   5.740   3.443   0.705  0.6119 -0.1464  0.8672
16008TIP3   OH269438   3.342   5.575  15.447 -0.0744  0.0775  0.1080
16008TIP3    H169439   3.383   5.527  15.519 -1.7023  2.7354  3.0881
16008TIP3    H269440   3.400   5.649  15.430  2.2362 -2.3343 -4.1970
16009TIP3   OH269441   2.824   0.022  14.622 -0.0420  0.3403 -0.8224
16009TIP3    H169442   2.764   0.023  14.697  2.1018 -0.3638  1.0263
16009TIP3    H269443   2.790   0.088  14.563 -0.9604  2.1096  1.5265
16010TIP3   OH269444   0.410   5.396   1.374 -0.4407 -0.5691 -0.0920
16010TIP3    H169445   0.444   5.484   1.388  0.5580 -0.8776 -0.4495
16010TIP3    H269446   0.321   5.409   1.341 -0.4358  0.2890  0.2050
16011TIP3   OH269447   5.240   5.751  11.372  0.2764  0.2208 -0.7179
16011TIP3    H169448   5.284   5.744  11.287 -1.4123  1.8078 -1.8164
16011TIP3    H269449   5.301   5.801  11.426  1.5539 -1.1639 -0.8340
16012TIP3   OH269450   2.373   0.788  13.253 -0.0620 -0.0832 -0.6334
16012TIP3    H169451   2.325   0.765  13.173  0.5029 -1.0379 -0.7159
16012TIP3    H269452   2.393   0.881  13.243 -0.0845 -0.1689 -1.5608
16013TIP3   OH269453   1.088   2.513   0.886 -0.0789 -0.7200 -0.0204
16013TIP3    H169454   1.168   2.519   0.938 -0.3541 -1.1778  0.4594
16013TIP3    H269455   1.090   2.591   0.830 -0.3955  0.4409  1.5255
16014TIP3   OH269456   3.431   4.942  12.136  0.5185 -0.8023  0.3712
16014TIP3    H169457   3.445   4.874  12.202  0.3890 -0.9781  0.2175
16014TIP3    H269458   3.509   4.939  12.081  0.2578 -1.2197  0.0164
16015TIP3   OH269459   5.086   4.836   3.514  0.2983 -0.0389 -0.9281
16015TIP3    H169460   5.118   4.925   3.502 -1.1302  0.8406  1.2071
16015TIP3    H269461   5.022   4.824   3.444 -1.0314  1.4255 -0.0153
16016TIP3   OH269462   1.102   2.008  10.961 -0.6965 -0.2631  0.3154
16016TIP3    H169463   1.104   1.914  10.941 -1.2518 -0.4731  1.1862
16016TIP3    H269464   1.091   2.012  11.056 -0.6051  0.6903  0.2961
16017TIP3   OH269465   5.302   1.880  15.918  0.3303  0.1079 -0.2762
16017TIP3    H169466   5.211   1.912  15.911 -0.4747 -1.0051  3.2720
16017TIP3    H269467   5.355   1.959  15.916 -0.8508  0.9258 -0.5782
16018TIP3   OH269468   0.321   4.559  12.674  0.1843 -0.1265 -0.0627
16018TIP3    H169469   0.273   4.500  12.616 -0.7641  0.4490  0.1158
16018TIP3    H269470   0.311   4.646  12.633  0.2581  0.1449  0.4892
16019TIP3   OH269471   1.098   2.638  12.096 -0.0979  0.5286 -0.6144
16019TIP3    H169472   1.050   2.628  12.178  2.2423 -1.4756  0.6403
16019TIP3    H269473   1.144   2.721  12.105 -0.7156  0.8557 -0.3998
16020TIP3   OH269474   5.529   4.901  16.668  0.3886  0.6607 -0.4958
16020TIP3    H169475   5.552   4.850  16.746 -0.3068  1.1024  0.0088
16020TIP3    H269476   5.434   4.900  16.667  0.3566  2.2632 -0.2656
16021TIP3   OH269477   1.905   1.314   5.902  0.2869  0.3360 -0.0000
16021TIP3    H169478   1.934   1.405   5.905  0.6326  0.2423 -0.3704
16021TIP3    H269479   1.940   1.280   5.819 -1.2665  0.3308 -0.6814
16022TIP3   OH269480   2.874   2.357   5.191 -0.2147 -0.3561 -0.0041
16022TIP3    H169481   2.906   2.293   5.128 -0.3170 -0.0330 -0.3888
16022TIP3    H269482   2.782   2.334   5.205 -0.4046  0.0392 -0.5676
16023TIP3   OH269483   1.876   6.048   6.548 -0.1429  0.2178 -1.0729
16023TIP3    H169484   1.805   6.013   6.600 -1.3788  0.2600 -2.6594
16023TIP3    H269485   1.948   6.059   6.610 -1.5947  0.4723  0.6465
16024TIP3   OH269486   2.154   1.129  15.231 -0.0897  0.2651 -0.1663
16024TIP3    H169487   2.165   1.151  15.323 -2.2266  0.1595  0.1583
16024TIP3    H269488   2.138   1.035  15.229 -0.8667  0.3993 -0.5583
16025TIP3   OH269489   2.470   4.042  12.979  0.7008 -0.4665 -0.1044
16025TIP3    H169490   2.421   3.971  12.938  0.6537 -0.5649  0.1195
16025TIP3    H269491   2.459   4.116  12.920  1.1724 -0.7810 -0.5974
16026TIP3   OH269492   4.823   3.937  15.121  0.0660  0.0315  0.4088
16026TIP3    H169493   4.879   4.007  15.087 -0.0860  0.2828  0.6799
16026TIP3    H269494   4.882   3.863  15.134  0.1356 -0.0657 -0.3783
16027TIP3   OH269495   6.282   4.872   3.349 -0.2831  0.7685  0.3633
16027TIP3    H169496   6.306   4.954   3.307 -1.5502  0.8451 -0.2400
16027TIP3    H269497   6.313   4.881   3.439  0.1958  1.6245  0.1186
16028TIP3   OH269498   5.170   4.021  15.302 -0.1937  0.3920  0.6663
16028TIP3    H169499   5.184   3.945  15.358 -1.2132  1.3818  2.3510
16028TIP3    H269500   5.212   4.093  15.349  1.9715  0.6948 -1.5639
16029TIP3   OH269501   1.623   5.205   2.950 -0.1642 -0.0513 -0.0527
16029TIP3    H169502   1.643   5.279   3.006 -0.2562  0.0399 -0.1393
16029TIP3    H269503   1.654   5.129   2.998 -0.0375  0.0472  0.0197
16030TIP3   OH269504   3.089   2.219  13.868  0.1531  0.0412 -0.3634
16030TIP3    H169505   3.119   2.274  13.795  1.0678  0.5199  0.3465
16030TIP3    H269506   3.046   2.145  13.826 -0.6714  1.0398 -1.3650
16031TIP3   OH269507   3.206   6.642  13.695  0.2731 -0.0720 -0.2758
16031TIP3    H169508   3.244   6.718  13.653  0.1679  0.4299  0.5091
16031TIP3    H269509   3.142   6.678  13.757  0.1339 -0.7966  0.0186
16032TIP3   OH269510   5.579   2.872  14.256  0.2673  0.0390 -0.2628
16032TIP3    H169511   5.549   2.886  14.346 -0.4765 -0.1785 -0.4763
16032TIP3    H269512   5.649   2.807  14.264 -1.7249 -2.2054 -0.1267
16033TIP3   OH269513   3.903   5.612  13.352  0.0089 -0.5465 -0.1677
16033TIP3    H169514   3.984   5.586  13.309  0.0024 -0.6773 -0.0991
16033TIP3    H269515   3.880   5.537  13.407 -0.8420 -1.0386 -1.1614
16034TIP3   OH269516   6.787   1.508   1.620  0.4829 -0.0181 -0.6883
16034TIP3    H169517   6.815   1.446   1.688  1.6990 -0.2135 -1.3430
16034TIP3    H269518   6.739   1.575   1.669 -0.5554 -1.2693  0.0766
16035TIP3   OH269519   5.970   0.552   0.913  0.1216  0.5143 -0.0787
16035TIP3    H169520   5.974   0.647   0.923  1.1120  0.3245  1.7043
16035TIP3    H269521   6.017   0.535   0.832 -0.7106  1.5791 -0.8209
16036TIP3   OH269522   6.166   5.189   0.346  0.4180 -0.0028  0.0729
16036TIP3    H169523   6.161   5.279   0.312 -2.8390 -0.3149 -0.6198
16036TIP3    H269524   6.076   5.169   0.373  1.3054 -2.6611  1.3855
16037TIP3   OH269525   1.980   2.215  12.317 -0.1610 -0.5680  0.4661
16037TIP3    H169526   1.965   2.150  12.385  1.2611  0.3173  1.7121
16037TIP3    H269527   1.940   2.295  12.352  0.5082 -0.1304  0.2609
16038TIP3   OH269528   4.942   2.916  14.793 -0.4624 -0.6547  0.1876
16038TIP3    H169529   4.942   2.821  14.796 -0.9704 -0.6414  0.7651
16038TIP3    H269530   4.910   2.943  14.879  0.3174  0.0487  0.2716
16039TIP3   OH269531   1.131   6.626   3.475 -0.5238 -0.0989  0.3037
16039TIP3    H169532   1.091   6.595   3.393  0.5706  1.3919 -0.8308
16039TIP3    H269533   1.057   6.655   3.528 -1.0752  1.7214 -1.3771
16040TIP3   OH269534   5.742   0.320  15.366  0.2533 -0.2893  0.1016
16040TIP3    H169535   5.660   0.369  15.358 -0.1560 -0.9128  0.3668
16040TIP3    H269536   5.788   0.336  15.283  0.1936  0.6417  0.2385
16041TIP3   OH269537   6.722   5.099   2.102 -0.1101 -0.4140  0.0756
16041TIP3    H169538   6.732   5.186   2.064 -1.0981 -0.5423 -0.5253
16041TIP3    H269539   6.646   5.062   2.057 -1.7267 -0.3521  2.5648
16042TIP3   OH269540   5.338   2.806  15.973 -0.2139 -0.0893 -0.3716
16042TIP3    H169541   5.336   2.900  15.993  1.0591 -0.0946 -0.1713
16042TIP3    H269542   5.294   2.765  16.047 -1.8106  0.4166 -0.9982
16043TIP3   OH269543   1.649   3.428  12.961 -0.0428 -0.4929  0.5106
16043TIP3    H169544   1.741   3.450  12.978  0.0279 -1.3408  1.2842
16043TIP3    H269545   1.653   3.352  12.902 -0.2796  0.9559 -1.4672
16044TIP3   OH269546   4.349   5.521   3.341  0.0489 -0.5799 -0.2789
16044TIP3    H169547   4.256   5.528   3.318 -0.0464 -1.4475 -0.1782
16044TIP3    H269548   4.373   5.432   3.316  1.0329 -0.1520 -0.9217
16045TIP3   OH269549   2.092   0.433   3.908  0.2694  0.0400 -0.1630
16045TIP3    H169550   2.141   0.356   3.935 -0.3859 -0.7146 -1.0765
16045TIP3    H269551   2.020   0.440   3.972  0.4379  0.0093  0.0303
16046TIP3   OH269552   6.155   5.667   6.637 -0.7818  0.0886  0.3061
16046TIP3    H169553   6.229   5.729   6.635 -0.8632  0.2196  1.0984
16046TIP3    H269554   6.186   5.595   6.691 -0.9989 -0.1638  0.0920
16047TIP3   OH269555   1.771   6.078  14.982 -0.4666  0.1625 -0.3211
16047TIP3    H169556   1.781   6.087  15.077 -0.6924  0.8465 -0.3612
16047TIP3    H269557   1.740   6.163  14.952  2.2877  0.8930 -1.3955
16048TIP3   OH269558   5.706   2.965  12.621 -0.4131 -0.2947  0.7226
16048TIP3    H169559   5.673   2.999  12.704 -1.2297  1.7355 -0.3363
16048TIP3    H269560   5.797   2.942  12.639 -0.1270  1.4811  1.8819
16049TIP3   OH269561   5.480   1.394  13.803  0.1031  0.0980 -0.1164
16049TIP3    H169562   5.519   1.442  13.730 -1.1955 -1.5125 -1.9881
16049TIP3    H269563   5.393   1.433  13.813 -0.7026 -1.2865 -1.2109
16050TIP3   OH269564   4.954   5.303   0.561  0.0525 -0.7754  0.1755
16050TIP3    H169565   4.870   5.258   0.569  1.6919 -3.8325  2.2503
16050TIP3    H269566   4.977   5.327   0.651  0.6212  1.8226 -0.5526
16051TIP3   OH269567   1.283   5.278  12.162  0.1363 -0.8317 -0.6878
16051TIP3    H169568   1.335   5.230  12.097 -0.5600 -1.1398 -1.0347
16051TIP3    H269569   1.217   5.215  12.191 -1.8204  0.3227 -2.3190
16052TIP3   OH269570   3.881   5.003   1.757 -0.0348 -0.0152  0.1646
16052TIP3    H169571   3.809   5.038   1.809  0.7822  0.6413  0.8695
16052TIP3    H269572   3.890   5.065   1.684 -0.9337 -0.7337 -0.5832
16053TIP3   OH269573   4.644   0.319   1.271  0.6583  0.4706  0.2770
16053TIP3    H169574   4.559   0.327   1.314  0.9600  0.1121  0.9475
16053TIP3    H269575   4.631   0.361   1.185 -0.1035  0.6874  0.4882
16054TIP3   OH269576   5.887   4.260  13.984 -0.1963  0.4364 -0.3376
16054TIP3    H169577   5.959   4.258  13.920  1.4202  2.2911  1.2923
16054TIP3    H269578   5.908   4.188  14.045 -0.4268  0.1738 -0.5676
16055TIP3   OH269579   3.411   0.035  12.311 -0.2983 -0.5032 -0.0602
16055TIP3    H169580   3.361   0.115  12.326  0.6066 -0.0313  0.5006
16055TIP3    H269581   3.346  -0.035  12.318 -1.4953  0.2438 -2.4959
16056TIP3   OH269582   4.985   3.621   2.950  0.3440 -0.7250  0.2019
16056TIP3    H169583   4.981   3.695   3.011  0.6698 -0.5691  0.0389
16056TIP3    H269584   5.003   3.662   2.865 -0.1709 -0.9354 -0.0077
16057TIP3   OH269585   1.947   1.890  16.752 -0.3348 -0.0331 -0.2044
16057TIP3    H169586   1.917   1.855  16.836 -0.1326 -0.9555 -0.5055
16057TIP3    H269587   2.014   1.954  16.775 -0.3613 -0.2001  0.3502
16058TIP3   OH269588   5.665   5.599  12.239  0.2770  0.0743 -0.0521
16058TIP3    H169589   5.652   5.540  12.313  0.1294  0.7506  0.4729
16058TIP3    H269590   5.754   5.633  12.251 -0.0226  0.7745  0.2562
16059TIP3   OH269591   1.955   2.636   3.144 -0.2502 -0.0491  0.4375
16059TIP3    H169592   1.933   2.726   3.167  1.5729  0.3705  0.6595
16059TIP3    H269593   1.959   2.637   3.048 -0.4119  0.0528  0.4302
16060TIP3   OH269594   2.486   1.008  13.475 -0.2782 -0.3716  0.1658
16060TIP3    H169595   2.560   1.036  13.527 -1.3831  1.0253  1.0474
16060TIP3    H269596   2.503   0.916  13.456  1.7054 -0.0559  0.2483
16061TIP3   OH269597   1.236   5.508  14.689  0.1080 -0.3219  0.0176
16061TIP3    H169598   1.282   5.592  14.697  0.5750 -0.4946 -0.7201
16061TIP3    H269599   1.245   5.468  14.776 -1.7541  1.1745  0.9798
16062TIP3   OH269600   6.744   0.894   3.020 -0.2794  0.8223 -0.0852
16062TIP3    H169601   6.764   0.985   2.996 -0.0733  0.0723 -3.1799
16062TIP3    H269602   6.813   0.843   2.978 -1.3091 -0.8964  0.2403
16063TIP3   OH269603   6.366   3.939   5.316 -0.2369  0.5474 -0.2675
16063TIP3    H169604   6.351   3.849   5.287  1.4844  0.6513 -1.6514
16063TIP3    H269605   6.338   3.940   5.407 -0.0717 -1.4456 -0.1599
16064TIP3   OH269606   5.588   6.313   2.137  0.4103  0.2988  0.2333
16064TIP3    H169607   5.585   6.255   2.062 -1.1326  0.5651  0.0674
16064TIP3    H269608   5.673   6.295   2.178  0.7092 -0.7742 -0.8190
16065TIP3   OH269609   4.735   1.416  15.140  0.1890  0.8851 -0.3175
16065TIP3    H169610   4.758   1.375  15.223  1.1109 -0.0046 -0.9890
16065TIP3    H269611   4.817   1.416  15.090 -0.5058  0.7587 -1.4938
16066TIP3   OH269612   0.023   5.678   1.380  0.2161 -0.1619  0.2347
16066TIP3    H169613   0.082   5.753   1.375  2.6185 -1.8704  1.1611
16066TIP3    H269614  -0.011   5.680   1.470  1.8827 -1.2531  0.9277
16067TIP3   OH269615   2.743   0.320   0.499 -0.4336 -0.8370  0.1899
16067TIP3    H169616   2.787   0.352   0.420 -1.1712  0.3321  0.2240
16067TIP3    H269617   2.814   0.286   0.554  0.0949 -1.5990 -0.9271
16068TIP3   OH269618   5.163   2.207  10.867 -0.3787 -0.3243 -0.8650
16068TIP3    H169619   5.088   2.204  10.927 -1.0650 -1.3415 -1.7389
16068TIP3    H269620   5.224   2.142  10.902 -0.2194 -0.0268 -0.5783
16069TIP3   OH269621   4.538   2.895   0.843  0.6862  0.0624  0.5582
16069TIP3    H169622   4.529   2.846   0.924  0.6291  0.6608  0.9185
16069TIP3    H269623   4.560   2.984   0.870 -0.9502  0.6727  0.0062
16070TIP3   OH269624   3.630   5.031  12.438 -0.1627  0.1549  0.2969
16070TIP3    H169625   3.613   4.938  12.454 -0.1837  0.2371  0.7892
16070TIP3    H269626   3.543   5.071  12.431 -0.1520  0.0766 -0.3021
16071TIP3   OH269627   5.373   1.520   6.709  0.0734 -0.3776 -0.2627
16071TIP3    H169628   5.325   1.596   6.678  0.3501  0.0337  0.3021
16071TIP3    H269629   5.463   1.534   6.679  0.2114 -0.2772  0.1916
16072TIP3   OH269630   4.514   0.526   4.812 -0.0749  0.2175  0.3164
16072TIP3    H169631   4.571   0.452   4.790 -0.7579 -0.5041  0.9433
16072TIP3    H269632   4.449   0.527   4.742  0.5463  0.8960 -0.2705
16073TIP3   OH269633   1.202   6.096   4.338  0.4159 -0.0870  0.3418
16073TIP3    H169634   1.115   6.094   4.378  0.2187  2.0205  0.1224
16073TIP3    H269635   1.262   6.090   4.412  0.0540  1.1710  0.7683
16074TIP3   OH269636   0.567   3.779  15.418 -0.1236  0.4400  0.4175
16074TIP3    H169637   0.569   3.875  15.419  1.3009  0.4643 -0.7232
16074TIP3    H269638   0.488   3.756  15.466 -1.7610  2.2441 -1.2301
16075TIP3   OH269639   4.353   4.554   0.825  0.0286  0.3278 -0.4857
16075TIP3    H169640   4.274   4.593   0.788  0.2736 -1.6814 -3.4039
16075TIP3    H269641   4.323   4.475   0.868  0.2407  0.5879  0.1500
16076TIP3   OH269642   1.828   0.153   0.484  0.6757 -0.0178 -0.0774
16076TIP3    H169643   1.853   0.133   0.575  0.6131  1.2190  0.2251
16076TIP3    H269644   1.827   0.067   0.441 -2.7363 -1.1831  1.9065
16077TIP3   OH269645   1.904   0.410   2.357 -0.0764  0.9369 -0.4889
16077TIP3    H169646   1.962   0.467   2.407 -0.4571  1.3775 -0.5409
16077TIP3    H269647   1.959   0.372   2.289  0.6306 -0.2354  0.6920
16078TIP3   OH269648   5.216   3.797   2.087 -0.3167 -0.2057  0.2835
16078TIP3    H169649   5.181   3.717   2.126  0.0572 -0.4765  0.0789
16078TIP3    H269650   5.173   3.868   2.135  2.1207 -0.4625  3.1900
16079TIP3   OH269651   6.580   1.568  10.063  0.3182 -0.0594 -0.3724
16079TIP3    H169652   6.493   1.601  10.042  1.0247  2.1747  0.0031
16079TIP3    H269653   6.563   1.491  10.117 -1.4194  0.2799 -0.3631
16080TIP3   OH269654   3.132   5.755   5.590 -0.1431  0.3845 -0.1655
16080TIP3    H169655   3.144   5.847   5.617 -0.2465  0.0421  1.1466
16080TIP3    H269656   3.139   5.757   5.495  0.5785  1.6477 -0.1156
16081TIP3   OH269657   3.801   5.008  15.947  0.7497  0.4791 -0.1807
16081TIP3    H169658   3.733   4.986  15.883  1.7143  0.2872 -1.1600
16081TIP3    H269659   3.807   4.930  16.003  0.6899  0.2064 -0.5516
16082TIP3   OH269660   4.373   0.038   1.604  0.0789  0.0461 -0.0447
16082TIP3    H169661   4.411   0.118   1.641  0.5000  0.4913 -1.3865
16082TIP3    H269662   4.348   0.062   1.515 -0.6106 -1.0801 -0.1742
16083TIP3   OH269663   0.630   0.768   4.562 -0.5093 -0.1743  0.5033
16083TIP3    H169664   0.546   0.763   4.607 -0.6904 -0.3196  0.1623
16083TIP3    H269665   0.661   0.677   4.560 -0.8725 -0.2907 -0.3343
16084TIP3   OH269666   4.793   4.968   0.758 -0.0417  0.3292 -0.4580
16084TIP3    H169667   4.787   4.875   0.739 -0.0664  0.2014  0.1479
16084TIP3    H269668   4.709   5.004   0.728 -0.3907  0.0041  0.1079
16085TIP3   OH269669   0.150   1.782   2.469 -0.5001 -0.4999  0.2576
16085TIP3    H169670   0.241   1.759   2.484 -0.8157 -2.0209  0.0685
16085TIP3    H269671   0.139   1.868   2.509  1.0340 -0.2488  0.1814
16086TIP3   OH269672   2.423   6.283   0.283 -0.0953  0.6304  0.3361
16086TIP3    H169673   2.457   6.195   0.272 -0.9983  0.2917  0.1198
16086TIP3    H269674   2.328   6.272   0.282 -0.2179  1.5681  0.6208
16087TIP3   OH269675   0.932   4.498   0.621 -0.1728 -0.0503 -0.0660
16087TIP3    H169676   0.966   4.429   0.564 -1.6534 -0.5848 -0.3648
16087TIP3    H269677   0.993   4.571   0.610  1.8817 -1.5331  0.8577
16088TIP3   OH269678   2.092   6.156   2.944 -0.1605 -0.4304 -0.1737
16088TIP3    H169679   2.094   6.243   2.905 -0.4605  0.0282  0.8161
16088TIP3    H269680   2.183   6.136   2.963 -0.1795  0.0530  0.4344
16089TIP3   OH269681   4.831   3.335   2.128 -0.3315  0.6003  0.0398
16089TIP3    H169682   4.905   3.278   2.104 -1.2828 -0.6585 -0.0240
16089TIP3    H269683   4.822   3.395   2.054  1.4720  1.7160  0.6513
16090TIP3   OH269684   0.659   0.349   4.730 -0.0401  0.5691  0.3646
16090TIP3    H169685   0.726   0.379   4.669 -1.3591 -1.9377 -2.5826
16090TIP3    H269686   0.577   0.381   4.693 -0.7932  0.2413  1.6986
16091TIP3   OH269687   0.836   0.700   3.003  0.1547 -0.0768 -0.2685
16091TIP3    H169688   0.758   0.663   3.044 -0.2353 -0.3152 -1.2090
16091TIP3    H269689   0.805   0.778   2.958  0.1787 -0.8808 -1.7553
16092TIP3   OH269690   2.916   3.515   1.179 -0.7713  0.1667  0.2330
16092TIP3    H169691   2.865   3.596   1.175 -1.1415 -0.0901 -0.4400
16092TIP3    H269692   2.872   3.456   1.118 -1.5238 -1.1230  1.9408
16093TIP3   OH269693   6.143   3.426  13.718 -0.4088  0.5092  0.3505
16093TIP3    H169694   6.129   3.517  13.746 -2.3474  0.3566  0.0281
16093TIP3    H269695   6.196   3.434  13.639 -1.2675  1.4446 -0.1647
16094TIP3   OH269696   0.617   1.282  11.922  0.0527 -0.4002  0.3600
16094TIP3    H169697   0.659   1.331  11.852  0.5160  0.8436  1.4577
16094TIP3    H269698   0.690   1.252  11.977 -0.3743  0.6818  1.5803
16095TIP3   OH269699   4.699   0.349  15.217  0.6999  0.0979  0.0419
16095TIP3    H169700   4.764   0.376  15.281  0.4674  0.5806  0.0806
16095TIP3    H269701   4.656   0.273  15.257  0.8216  0.1549  0.2801
16096TIP3   OH269702   5.382   6.719   2.569 -0.0842 -0.3951  0.0479
16096TIP3    H169703   5.317   6.772   2.616 -1.9290 -0.5058 -2.1958
16096TIP3    H269704   5.341   6.633   2.560  0.8072 -0.7727 -0.5552
16097TIP3   OH269705   6.620   4.385   3.995 -0.2812  0.2813 -0.1099
16097TIP3    H169706   6.528   4.392   3.972 -0.3275  0.1799  0.0435
16097TIP3    H269707   6.640   4.291   3.990 -0.5668  0.1204  1.2960
16098TIP3   OH269708   6.608   3.732  14.027  0.7216  0.4912 -0.3880
16098TIP3    H169709   6.563   3.807  14.065 -0.0090 -0.3260  0.4332
16098TIP3    H269710   6.700   3.744  14.050  0.3331  0.1290  1.5448
16099TIP3   OH269711   0.018   1.971  10.372  0.0562 -0.1676  0.4286
16099TIP3    H169712  -0.057   1.931  10.327  0.5488  0.7101 -1.2451
16099TIP3    H269713   0.034   2.053  10.325  1.4034  0.1813  1.4315
16100TIP3   OH269714   3.076   2.204  12.629  0.3556 -0.3552 -0.2377
16100TIP3    H169715   3.080   2.284  12.577 -1.6367 -1.2196 -1.8606
16100TIP3    H269716   3.134   2.142  12.585  1.3722 -0.0385  0.6255
16101TIP3   OH269717   1.029   6.122   0.689 -0.1680 -0.1409  0.2119
16101TIP3    H169718   0.978   6.177   0.749  1.7892  1.2511  0.6792
16101TIP3    H269719   1.032   6.171   0.607 -0.0512 -0.4931  0.0007
16102TIP3   OH269720   3.044   4.151   0.102 -0.5063 -0.7222  0.6309
16102TIP3    H169721   3.038   4.183   0.191 -0.2968 -0.2852  0.4893
16102TIP3    H269722   3.045   4.055   0.110  0.5880 -0.6704  1.1562
16103TIP3   OH269723   2.833   2.623  15.661  0.1864 -0.3904  0.0414
16103TIP3    H169724   2.790   2.644  15.578 -0.0541 -1.2767 -0.0671
16103TIP3    H269725   2.761   2.615  15.724  0.4831  2.8961  0.9964
16104TIP3   OH269726   3.447   4.608   4.057 -0.0503 -0.0307 -0.3952
16104TIP3    H169727   3.475   4.699   4.052 -0.7626  0.1892 -0.5562
16104TIP3    H269728   3.384   4.598   3.985  0.1009 -0.6758 -0.4446
16105TIP3   OH269729   5.481   4.863   2.246 -0.1155  0.7338 -0.1720
16105TIP3    H169730   5.511   4.909   2.324  2.3484  2.1492 -1.8128
16105TIP3    H269731   5.544   4.791   2.236  0.8682  1.7667 -1.8730
16106TIP3   OH269732   6.199   5.375   1.572  0.1207  0.0356  0.3128
16106TIP3    H169733   6.170   5.318   1.501  1.5577  1.7636 -1.7693
16106TIP3    H269734   6.145   5.453   1.565  0.8191  0.5554  0.5793
16107TIP3   OH269735   1.449   0.311   3.138 -0.3332  0.1075 -0.5813
16107TIP3    H169736   1.524   0.342   3.088 -0.8030 -1.4419 -2.3682
16107TIP3    H269737   1.381   0.376   3.121 -0.5813 -0.5471 -2.2938
16108TIP3   OH269738   2.503   6.498   1.711 -0.2382 -0.1893 -0.3677
16108TIP3    H169739   2.507   6.412   1.668 -0.0756  0.2566 -1.2804
16108TIP3    H269740   2.418   6.499   1.756 -0.0604 -0.9805 -0.0053
16109TIP3   OH269741   1.570   6.417   1.136  0.0583 -0.2049 -0.1706
16109TIP3    H169742   1.533   6.368   1.210 -1.2145  0.3607 -0.3998
16109TIP3    H269743   1.567   6.508   1.165 -0.3916  0.0131 -0.8844
16110TIP3   OH269744   4.951   5.066  12.329  0.0575  0.0565 -0.1186
16110TIP3    H169745   4.929   5.072  12.422 -0.2916 -1.4010 -0.0814
16110TIP3    H269746   4.950   4.972  12.310 -0.7731  0.3641 -1.8154
16111TIP3   OH269747   1.627   2.732   1.799  0.2450 -0.9452  0.3963
16111TIP3    H169748   1.683   2.701   1.728 -1.1081 -0.5275 -0.9133
16111TIP3    H269749   1.657   2.684   1.876  1.5190 -1.6890 -0.5267
16112TIP3   OH269750   2.840   4.530   0.468  0.3785  0.0511 -0.1740
16112TIP3    H169751   2.835   4.609   0.522 -0.2644 -0.4609  0.5337
16112TIP3    H269752   2.920   4.486   0.498 -0.1558 -0.4000  0.6082
16113TIP3   OH269753   1.073   5.440   4.108 -0.6183  0.5264 -0.2461
16113TIP3    H169754   1.093   5.516   4.052 -0.1497  0.9120  0.4276
16113TIP3    H269755   1.109   5.464   4.193 -1.2730 -0.0800  0.2074
16114TIP3   OH269756   0.808   4.979   1.013  0.1695 -0.0519  0.3746
16114TIP3    H169757   0.833   4.916   1.081  1.3298 -0.0979 -0.0870
16114TIP3    H269758   0.826   4.934   0.930 -0.1299  0.4457  0.0319
16115TIP3   OH269759   3.010   3.371   3.067 -0.9194 -0.0132 -0.3039
16115TIP3    H169760   2.981   3.450   3.113  0.8199  0.1836  0.5636
16115TIP3    H269761   3.025   3.307   3.136 -0.9724 -0.6390 -0.8664
16116TIP3   OH269762   3.583   3.327  13.283 -0.0470 -0.5458  0.1928
16116TIP3    H169763   3.524   3.390  13.241 -1.3534 -1.0954  1.1432
16116TIP3    H269764   3.603   3.366  13.368  0.5042 -0.6438  0.1116
16117TIP3   OH269765   3.697   4.756   4.972 -0.0689 -0.6569  0.3575
16117TIP3    H169766   3.755   4.681   4.987 -0.0444 -1.1170 -1.6876
16117TIP3    H269767   3.746   4.811   4.910 -0.7026  0.3205  0.7087
16118TIP3   OH269768   1.335   2.893  13.964 -0.0445  0.1499 -0.4136
16118TIP3    H169769   1.313   2.850  14.047  0.5342  0.4557 -0.0964
16118TIP3    H269770   1.297   2.836  13.897 -0.6429 -0.0282  0.0612
16119TIP3   OH269771   2.784   3.241   5.458  0.2985  0.6412 -0.4668
16119TIP3    H169772   2.757   3.216   5.370 -1.5201  3.0450 -0.6932
16119TIP3    H269773   2.827   3.326   5.447  0.8597  0.5627  0.8839
16120TIP3   OH269774   0.729   1.209  14.713 -0.3098  0.0923  0.1087
16120TIP3    H169775   0.793   1.237  14.778 -0.2973  0.2699  0.0224
16120TIP3    H269776   0.661   1.165  14.763 -1.3013  1.9562  0.5049
16121TIP3   OH269777   6.361   6.369  11.979 -0.3108 -0.7780 -0.1006
16121TIP3    H169778   6.285   6.311  11.978 -0.0337 -1.1433 -0.3632
16121TIP3    H269779   6.400   6.359  11.892 -1.4912  1.4531 -0.9637
16122TIP3   OH269780   0.913   0.750  14.299  0.2376  0.2968  0.2041
16122TIP3    H169781   0.913   0.777  14.207  1.1968  0.4995  0.2547
16122TIP3    H269782   0.999   0.711  14.312 -0.1583 -0.3923  0.8329
16123TIP3   OH269783   5.798   2.492  15.040  0.1572  0.0407 -0.1384
16123TIP3    H169784   5.729   2.495  15.106  0.4336 -1.3284  0.2540
16123TIP3    H269785   5.878   2.514  15.087  0.0112  1.7327 -0.6153
16124TIP3   OH269786   3.306   3.248   0.357 -0.2063  0.4620 -0.0916
16124TIP3    H169787   3.344   3.169   0.395 -0.9628  0.9774  1.8517
16124TIP3    H269788   3.238   3.274   0.419 -0.9924  1.8067 -1.4519
16125TIP3   OH269789   2.146   4.493  13.999 -0.4646 -0.0540 -0.1458
16125TIP3    H169790   2.214   4.428  14.017 -1.0843 -1.0647 -1.2776
16125TIP3    H269791   2.107   4.512  14.084  1.7229  1.1686  0.6668
16126TIP3   OH269792   2.134   5.916   0.759  0.1010  0.0764  0.6527
16126TIP3    H169793   2.099   5.831   0.730 -0.9474  0.0327  1.9736
16126TIP3    H269794   2.228   5.909   0.743 -0.1149 -0.8602 -0.4032
16127TIP3   OH269795   1.765   2.686  13.278 -0.3065 -0.1573 -0.0341
16127TIP3    H169796   1.842   2.638  13.248 -0.4495 -0.2830 -0.2111
16127TIP3    H269797   1.733   2.636  13.353  0.1253  0.2290  0.4060
16128TIP3   OH269798   2.173   4.599  17.141 -0.4962 -0.2242  0.2759
16128TIP3    H169799   2.245   4.647  17.100 -1.0313 -0.2501 -0.7077
16128TIP3    H269800   2.194   4.507  17.128 -0.7011 -0.2317 -0.0031
16129TIP3   OH269801   5.021   1.244  16.951  0.2274  0.7135  0.4387
16129TIP3    H169802   4.984   1.156  16.945  1.4644  0.2148 -0.3699
16129TIP3    H269803   4.988   1.290  16.874 -0.4517  0.9919  0.8832
16130TIP3   OH269804   6.733   0.340   3.122 -0.3414  0.2956 -0.3472
16130TIP3    H169805   6.800   0.349   3.189 -1.8876  1.2133  1.1471
16130TIP3    H269806   6.672   0.275   3.157 -1.2047  0.8249 -0.8303
16131TIP3   OH269807   3.276   3.776  12.727  0.5882  1.1912 -0.0706
16131TIP3    H169808   3.183   3.776  12.704  0.3934  1.9886  0.6809
16131TIP3    H269809   3.285   3.705  12.790  0.5866  0.8169 -0.4849
16132TIP3   OH269810   6.185   0.971  13.475  0.1919  0.0593 -0.1537
16132TIP3    H169811   6.280   0.964  13.479  0.1084 -1.1044  0.0868
16132TIP3    H269812   6.153   0.884  13.498 -0.9062  0.1178 -1.3051
16133TIP3   OH269813   4.870   4.216   2.615  0.1921  0.7216 -0.3226
16133TIP3    H169814   4.895   4.258   2.532  0.7807  0.2689 -0.3779
16133TIP3    H269815   4.953   4.199   2.659 -0.0892  0.3414  0.0571
16134TIP3   OH269816   0.706   4.307   0.628 -0.4098 -0.1268 -0.5038
16134TIP3    H169817   0.698   4.249   0.704  3.0314 -1.3617 -0.8791
16134TIP3    H269818   0.787   4.356   0.645 -2.0214  3.0455 -1.2709
16135TIP3   OH269819   5.604   3.319   1.057 -0.5556 -0.0327 -0.4529
16135TIP3    H169820   5.637   3.395   1.104  2.7079 -0.0352 -2.4151
16135TIP3    H269821   5.645   3.244   1.100  0.5371 -0.1960 -1.6840
16136TIP3   OH269822   4.861   2.632   3.235  0.3372 -0.2780  0.7947
16136TIP3    H169823   4.904   2.712   3.265  1.5766 -0.4128 -0.5535
16136TIP3    H269824   4.911   2.561   3.275 -1.5344 -0.4716  3.0663
16137TIP3   OH269825   1.227   1.577   1.128  0.1374  0.6365 -0.8332
16137TIP3    H169826   1.317   1.602   1.150 -0.4148  0.8841  1.4158
16137TIP3    H269827   1.233   1.484   1.108  0.5562 -0.0366  2.0143
16138TIP3   OH269828   3.061   5.091   1.848 -0.0679 -0.0071  0.5676
16138TIP3    H169829   3.117   5.157   1.888 -1.0626  0.5006  1.1583
16138TIP3    H269830   2.972   5.127   1.853 -0.3129 -0.1262 -1.6861
16139TIP3   OH269831   0.533   1.969   4.070  0.0801 -0.3890 -0.8096
16139TIP3    H169832   0.461   1.932   4.120  1.1570 -1.1958  0.2233
16139TIP3    H269833   0.519   2.063   4.073 -0.3475 -0.4687  0.3088
16140TIP3   OH269834   5.994   0.603   5.527  0.4172  0.4061 -0.2446
16140TIP3    H169835   6.022   0.589   5.436  1.5702  1.8060 -0.1408
16140TIP3    H269836   5.905   0.567   5.531  1.1036 -1.5273 -1.3823
16141TIP3   OH269837   4.708   3.875   3.364 -0.2158  0.1284 -0.1296
16141TIP3    H169838   4.658   3.795   3.383  1.7279 -1.2846 -0.7147
16141TIP3    H269839   4.750   3.857   3.280  2.8428  0.4052  1.2230
16142TIP3   OH269840   3.305   2.564   2.864 -0.7794  0.0575  0.2385
16142TIP3    H169841   3.231   2.539   2.918  0.5098 -0.7895  1.6708
16142TIP3    H269842   3.283   2.652   2.832 -2.2034 -0.0227  0.9516
16143TIP3   OH269843   3.236   4.457   0.178 -0.6397 -0.1205 -0.5698
16143TIP3    H169844   3.282   4.374   0.183 -1.6978 -0.6865  0.4585
16143TIP3    H269845   3.291   4.519   0.226  0.6036  0.0264 -2.1240
16144TIP3   OH269846   3.090   1.994  12.268 -0.0322 -0.3384  0.2503
16144TIP3    H169847   3.162   1.996  12.330  0.1420  2.4294  0.0653
16144TIP3    H269848   3.049   1.909  12.281  1.8773 -1.0583  1.9432
16145TIP3   OH269849   5.439   4.067   2.555 -0.5188  0.3258  0.0631
16145TIP3    H169850   5.398   4.062   2.468  1.1832  0.4621 -0.7761
16145TIP3    H269851   5.476   4.155   2.559 -0.2951  0.2053  0.8021
16146TIP3   OH269852   3.481   6.028  14.844  0.0536 -0.2442 -0.3681
16146TIP3    H169853   3.395   5.992  14.821  0.9669 -1.5034 -1.9968
16146TIP3    H269854   3.521   5.962  14.899  0.4799 -0.2675 -0.6998
16147TIP3   OH269855   5.055   5.642   2.519  0.0504  0.2106  0.1943
16147TIP3    H169856   5.092   5.707   2.578 -0.9420  1.9987 -1.0482
16147TIP3    H269857   5.044   5.563   2.573  1.4391  1.0032  1.7026
16148TIP3   OH269858   5.361   4.660   1.614  0.1204  0.2537 -0.3107
16148TIP3    H169859   5.409   4.616   1.543  1.1344  0.4565  0.2291
16148TIP3    H269860   5.271   4.629   1.604  0.2975  0.0474 -1.5072
16149TIP3   OH269861   3.012   6.352  10.479 -0.3224  0.3526 -0.6654
16149TIP3    H169862   2.965   6.419  10.430  0.5591 -0.2316 -2.4211
16149TIP3    H269863   2.976   6.269  10.447 -1.9822 -0.1048  2.0682
16150TIP3   OH269864   5.504   1.150  10.889  0.1309 -0.2147 -0.0310
16150TIP3    H169865   5.571   1.090  10.856  0.6930  0.2871  0.1631
16150TIP3    H269866   5.441   1.095  10.934  0.8359 -0.6210  0.4659
16151TIP3   OH269867   2.017   3.761   2.811  0.0460  0.0700 -0.3725
16151TIP3    H169868   1.941   3.745   2.755 -2.5540  2.1772  2.2652
16151TIP3    H269869   2.064   3.832   2.767 -1.8069  1.5083 -0.1505
16152TIP3   OH269870   3.673   3.090   1.778  0.6277 -0.2760 -0.1843
16152TIP3    H169871   3.693   3.044   1.860  2.0106  1.1904  0.3430
16152TIP3    H269872   3.735   3.054   1.715 -0.9995 -2.0331 -0.8904
16153TIP3   OH269873   0.011   4.510   3.168 -0.2116  0.1343 -0.0373
16153TIP3    H169874   0.088   4.490   3.117 -0.4049 -0.2070 -0.1973
16153TIP3    H269875   0.037   4.494   3.259 -0.3763 -0.8807 -0.1654
16154TIP3   OH269876   0.348   3.458   4.600  0.3961 -0.4207 -0.7468
16154TIP3    H169877   0.338   3.485   4.509  0.4889 -0.6537 -0.8280
16154TIP3    H269878   0.432   3.412   4.603 -0.1238 -1.4225 -0.7935
16155TIP3   OH269879   4.374   6.142   4.936 -0.3603  0.2163 -0.3331
16155TIP3    H169880   4.432   6.124   5.010  0.4873  1.3553 -0.6912
16155TIP3    H269881   4.387   6.235   4.918 -0.7640  0.0191 -1.7466
16156TIP3   OH269882   1.669   3.436  15.511 -0.3688  0.1974  0.4349
16156TIP3    H169883   1.694   3.445  15.602 -0.0180 -0.0788  0.3685
16156TIP3    H269884   1.693   3.520  15.471 -0.0422  0.1295  0.4861
16157TIP3   OH269885   4.593   5.052  15.626 -0.2346 -0.7603  0.1712
16157TIP3    H169886   4.672   5.001  15.606 -0.1371 -0.2715 -0.7454
16157TIP3    H269887   4.560   5.013  15.707  1.4042 -0.4435  1.0501
16158TIP3   OH269888   3.851   0.184  16.990  0.1391 -0.2830 -0.0063
16158TIP3    H169889   3.911   0.137  17.048 -0.7646 -0.2537  0.9876
16158TIP3    H269890   3.851   0.133  16.909  3.0545  0.8445 -0.8392
16159TIP3   OH269891   6.201   6.735   1.278  0.4787  0.2741  0.0066
16159TIP3    H169892   6.237   6.823   1.276 -0.9438  0.8654 -0.9138
16159TIP3    H269893   6.242   6.690   1.204 -1.0143  1.1165 -1.3859
16160TIP3   OH269894   1.695   5.083   5.351 -0.0882 -0.4415  0.4005
16160TIP3    H169895   1.632   5.087   5.422  0.1844  0.7199  0.6022
16160TIP3    H269896   1.717   5.174   5.333  0.0654 -0.7304 -0.9852
16161TIP3   OH269897   6.463   5.152  12.667 -0.0428  0.2187  0.0788
16161TIP3    H169898   6.473   5.122  12.758 -4.0262  0.0600  0.6228
16161TIP3    H269899   6.461   5.247  12.673 -0.6006  0.2009  0.2201
16162TIP3   OH269900   3.241   3.403   0.635  0.1115 -0.1961  0.2688
16162TIP3    H169901   3.289   3.446   0.565 -1.0290  0.0626 -0.3766
16162TIP3    H269902   3.240   3.467   0.706  2.8610 -1.1423  1.2794
16163TIP3   OH269903   3.566   6.045  15.297  0.3700 -0.3147 -0.5622
16163TIP3    H169904   3.547   6.092  15.217 -2.5833 -1.5680 -0.7106
16163TIP3    H269905   3.520   5.961  15.288  2.8253 -1.9786  0.9909
16164TIP3   OH269906   6.658   2.551  15.694 -0.1225 -0.1486  0.4244
16164TIP3    H169907   6.611   2.633  15.707 -0.4815 -0.0584 -1.2405
16164TIP3    H269908   6.750   2.574  15.704 -0.2964  0.0762  1.7135
16165TIP3   OH269909   2.372   5.758   5.489  0.2916  0.0366  0.4316
16165TIP3    H169910   2.300   5.775   5.550 -0.2460  0.1635 -0.2202
16165TIP3    H269911   2.451   5.770   5.541 -0.1502 -1.7552  1.6254
16166TIP3   OH269912   3.482   2.345   2.769  0.2177 -0.2295  0.3858
16166TIP3    H169913   3.434   2.408   2.823  0.5022 -0.0351  0.4091
16166TIP3    H269914   3.470   2.375   2.679 -0.5323 -0.7365  0.3042
16167TIP3   OH269915   4.897   6.418  13.862  0.6864 -0.1536 -1.2796
16167TIP3    H169916   4.983   6.455  13.878  1.2455 -1.6296 -0.6422
16167TIP3    H269917   4.873   6.449  13.775  1.5472  0.8357 -1.1819
16168TIP3   OH269918   5.768   5.997  16.095  0.3671  0.4291  0.3454
16168TIP3    H169919   5.813   5.923  16.053 -2.3895 -0.6645 -0.9110
16168TIP3    H269920   5.723   6.042  16.024 -0.0114  1.8534  1.4465
16169TIP3   OH269921   4.777   4.559  17.213 -0.3832 -0.1169 -0.6837
16169TIP3    H169922   4.737   4.491  17.160 -0.9582  0.3648 -0.8813
16169TIP3    H269923   4.707   4.622  17.230 -0.2404 -0.3009  0.7358
16170TIP3   OH269924   4.565   1.250  15.375  0.4103 -0.2484 -0.0323
16170TIP3    H169925   4.594   1.303  15.450  0.9513 -1.5393  0.7054
16170TIP3    H269926   4.470   1.259  15.375  0.4104 -0.1816  0.7655
16171TIP3   OH269927   3.264   0.512   4.027  0.1571 -0.3056 -0.1611
16171TIP3    H169928   3.188   0.519   4.084 -0.5262 -0.5495 -1.0309
16171TIP3    H269929   3.339   0.519   4.086 -0.5343  0.1518  0.6747
16172TIP3   OH269930   2.819   4.109  11.715  0.3055 -0.1122  0.6989
16172TIP3    H169931   2.785   4.130  11.802 -0.0408  1.1449  0.2860
16172TIP3    H269932   2.762   4.039  11.683 -1.2062  1.1562  0.4940
16173TIP3   OH269933   2.769   6.163   5.254  0.4762 -0.0687 -0.3736
16173TIP3    H169934   2.709   6.111   5.308  0.8487 -0.1072  0.0140
16173TIP3    H269935   2.842   6.184   5.313  1.8011 -1.6533 -1.3241
16174TIP3   OH269936   1.272   1.777   2.835  0.1892  0.6629 -0.4988
16174TIP3    H169937   1.257   1.776   2.929 -0.4972 -0.7158 -0.5923
16174TIP3    H269938   1.184   1.766   2.797  0.6785 -0.9136 -1.2377
16175TIP3   OH269939   4.108   5.161   2.589  0.4129 -0.4915  0.1167
16175TIP3    H169940   4.072   5.084   2.545  0.1275 -1.5390  2.0879
16175TIP3    H269941   4.048   5.179   2.661  0.3448  1.7520 -0.4118
16176TIP3   OH269942   1.925   2.197  16.729 -0.5516  0.5401 -0.3658
16176TIP3    H169943   2.011   2.159  16.749 -0.8151  1.0913  2.0720
16176TIP3    H269944   1.889   2.140  16.661  1.4690 -0.0608 -1.0105
16177TIP3   OH269945   0.376   2.070   0.150 -0.0261 -0.0787  0.4998
16177TIP3    H169946   0.357   2.072   0.057  1.6930 -2.0333  0.0187
16177TIP3    H269947   0.458   2.119   0.159 -0.8273  1.1680  1.1973
16178TIP3   OH269948   0.562   4.968  13.763  0.6304  0.1585  0.2895
16178TIP3    H169949   0.641   4.997  13.809  2.7218 -3.9433 -0.2774
16178TIP3    H269950   0.574   4.998  13.673  1.4815 -0.2835  0.2497
16179TIP3   OH269951   4.780   5.455   4.790  0.1954 -0.3827 -0.2207
16179TIP3    H169952   4.688   5.430   4.780  0.8266 -2.8467 -0.6386
16179TIP3    H269953   4.809   5.476   4.701  0.1885 -0.2400 -0.1889
16180TIP3   OH269954   2.983   4.535  13.765  0.0208  0.0809 -0.2379
16180TIP3    H169955   2.971   4.490  13.681  0.1489  1.5281 -1.0710
16180TIP3    H269956   2.894   4.556  13.793  0.0328  0.6886 -0.6429
16181TIP3   OH269957   3.058   4.615  14.756  0.1457  0.4359 -0.1601
16181TIP3    H169958   3.045   4.571  14.672  0.7605 -1.4219  0.6651
16181TIP3    H269959   3.095   4.700  14.733 -1.3797  0.7000 -1.8328
16182TIP3   OH269960   1.632   2.043  14.114  0.5228 -0.2383 -0.5008
16182TIP3    H169961   1.724   2.040  14.138  0.9097 -1.4563 -1.9575
16182TIP3    H269962   1.594   1.965  14.153  0.2701 -0.1376 -0.5423
16183TIP3   OH269963   2.453   0.191   3.591  0.0738 -0.3341  0.1895
16183TIP3    H169964   2.479   0.099   3.589  1.3564 -0.0353  1.5098
16183TIP3    H269965   2.526   0.238   3.551 -0.4227  0.1598 -0.1714
16184TIP3   OH269966   3.654   1.557  11.387 -0.7951 -0.6769  0.7717
16184TIP3    H169967   3.688   1.643  11.360 -1.3251 -0.5764  0.4299
16184TIP3    H269968   3.596   1.530  11.317 -0.0418 -1.6808  0.5085
16185TIP3   OH269969   3.097   4.639   3.367  0.4149  0.2787 -0.0612
16185TIP3    H169970   3.119   4.548   3.386  0.0507  0.3657  0.8394
16185TIP3    H269971   3.028   4.633   3.300 -0.9283 -0.1999  1.2963
16186TIP3   OH269972   1.935   4.329   3.297 -0.4295 -0.2711  0.2303
16186TIP3    H169973   2.012   4.274   3.278 -1.1368 -1.4790  0.7177
16186TIP3    H269974   1.895   4.288   3.374 -1.8732 -0.0021 -0.3507
16187TIP3   OH269975   4.605   0.269   4.057  0.6894 -0.0179  0.0962
16187TIP3    H169976   4.581   0.318   4.135 -1.6544  1.0087 -1.1640
16187TIP3    H269977   4.526   0.223   4.031  0.7750  1.1514 -2.6654
16188TIP3   OH269978   5.511   2.717  15.047 -0.1647 -0.8832  0.3127
16188TIP3    H169979   5.530   2.808  15.070 -1.3581  0.0103 -1.8785
16188TIP3    H269980   5.511   2.670  15.131 -0.0823  1.2369  1.5671
16189TIP3   OH269981   5.944   1.412   5.482  0.0688 -0.4230  0.1653
16189TIP3    H169982   5.893   1.423   5.563  1.4540 -0.2966  1.0550
16189TIP3    H269983   6.007   1.484   5.485  0.3627 -0.6349 -0.8586
16190TIP3   OH269984   4.044   3.535  11.109 -0.2165 -0.2273 -0.4259
16190TIP3    H169985   4.004   3.622  11.100  1.2812  0.5085 -0.2408
16190TIP3    H269986   4.111   3.532  11.042  0.6760 -0.6992  0.4687
16191TIP3   OH269987   5.187   3.277  13.067 -0.1533  0.3341  0.0160
16191TIP3    H169988   5.131   3.206  13.037 -1.1042  1.5382 -1.1758
16191TIP3    H269989   5.165   3.288  13.160 -0.9171 -0.0807 -0.1158
16192TIP3   OH269990   0.999   4.152   5.167 -0.1673 -0.3537  0.6358
16192TIP3    H169991   1.068   4.194   5.115 -0.3966  1.6402  1.8217
16192TIP3    H269992   0.958   4.090   5.107  0.9734  0.3000 -0.8877
16193TIP3   OH269993   5.857   2.666   5.482  0.3098 -0.4089 -0.7360
16193TIP3    H169994   5.845   2.753   5.520 -1.8705  0.1313 -2.4074
16193TIP3    H269995   5.813   2.607   5.543 -0.6259  0.0572 -0.9385
16194TIP3   OH269996   1.465   0.148   6.470  0.1760 -0.2460 -0.2254
16194TIP3    H169997   1.501   0.208   6.405  1.7435 -1.4421 -0.5250
16194TIP3    H269998   1.374   0.177   6.483  0.5704  1.5035 -1.1213
16195TIP3   OH269999   2.358   0.863   0.152  0.1990 -0.8972  0.2330
16195TIP3    H170000   2.376   0.790   0.093 -1.9744 -1.5319  0.2657
16195TIP3    H270001   2.266   0.883   0.139  1.1363  3.4953 -1.5184
16196TIP3   OH270002   4.453   5.780   3.286  0.2901 -0.4941  0.5699
16196TIP3    H170003   4.491   5.806   3.370  0.2233 -0.7833  0.6891
16196TIP3    H270004   4.419   5.692   3.301  1.2813 -0.9988 -0.0698
16197TIP3   OH270005   3.886   1.588  13.139 -0.3175 -0.2778  0.2958
16197TIP3    H170006   3.840   1.584  13.055 -0.9863 -0.0348  0.6487
16197TIP3    H270007   3.843   1.522  13.193  1.5503 -2.0363 -0.2351
16198TIP3   OH270008   6.243   4.578  13.265  0.2347  0.1104 -0.3879
16198TIP3    H170009   6.206   4.500  13.306 -1.1465  1.0015  0.1700
16198TIP3    H270010   6.272   4.549  13.179 -2.4059 -0.5989 -1.1541
16199TIP3   OH270011   4.856   4.535  15.641  0.2192 -0.1592  0.1623
16199TIP3    H170012   4.828   4.532  15.732  0.7398  0.2334  0.3417
16199TIP3    H270013   4.932   4.593  15.641 -0.0758  0.2510 -0.6030
16200TIP3   OH270014   5.147   4.251   0.474  0.5703  0.6115  0.4968
16200TIP3    H170015   5.134   4.157   0.477  2.0049  0.3260 -0.8629
16200TIP3    H270016   5.063   4.286   0.444  0.3599 -0.3370 -0.0427
16201TIP3   OH270017   4.982   4.039   3.084  0.2208 -0.4932 -0.4935
16201TIP3    H170018   4.948   4.121   3.120  0.8274  0.2011 -1.4432
16201TIP3    H270019   4.959   3.973   3.149 -0.6821  0.3549  0.0772
16202TIP3   OH270020   4.973   2.142  16.112 -0.1534 -0.1974  0.8591
16202TIP3    H170021   4.951   2.230  16.082 -1.1438 -0.3306  1.1594
16202TIP3    H270022   4.993   2.151  16.205  1.4904 -0.0199  0.5179
16203TIP3   OH270023   5.433   6.434  13.800  0.0117  0.1145  0.4468
16203TIP3    H170024   5.454   6.400  13.713  0.5065 -0.0164  0.6156
16203TIP3    H270025   5.451   6.528  13.794  3.7497 -0.3718  1.4479
16204TIP3   OH270026   5.984   6.258   5.548  0.3508  0.0477  0.0831
16204TIP3    H170027   5.989   6.234   5.456 -1.9580  0.7761 -0.2839
16204TIP3    H270028   6.051   6.326   5.558  0.5938 -0.0077 -1.0525
16205TIP3   OH270029   5.635   3.576   1.219 -0.0546  0.2317  0.2318
16205TIP3    H170030   5.677   3.635   1.157  0.4993 -0.9537 -0.5541
16205TIP3    H270031   5.688   3.584   1.298  0.8624 -0.2476 -0.3188
16206TIP3   OH270032   0.488   3.271  14.412  0.2262  0.1170  0.4244
16206TIP3    H170033   0.440   3.211  14.469  0.6246 -0.3742  0.2505
16206TIP3    H270034   0.550   3.215  14.365 -0.6012  0.3887 -1.0570
16207TIP3   OH270035   2.675   2.578  13.218 -0.4541  0.0499  0.5057
16207TIP3    H170036   2.587   2.552  13.244 -0.6325  0.1623  0.0249
16207TIP3    H270037   2.700   2.646  13.281  0.5057 -2.0724  2.5457
16208TIP3   OH270038   3.451   5.757  11.906 -0.0073  0.2915 -0.0836
16208TIP3    H170039   3.471   5.697  11.834  0.3388 -2.2749  1.9842
16208TIP3    H270040   3.356   5.768  11.902  0.0668  0.6062 -1.2211
16209TIP3   OH270041   2.580   5.733   1.283  0.7578  0.2809  0.0416
16209TIP3    H170042   2.676   5.730   1.280  0.7260 -0.4753 -1.4129
16209TIP3    H270043   2.557   5.812   1.235  0.6497  0.5160  0.4783
16210TIP3   OH270044   1.583   4.987   4.617  0.0814 -0.4438 -0.5873
16210TIP3    H170045   1.590   5.065   4.672  0.4192 -0.2452 -0.9047
16210TIP3    H270046   1.506   4.941   4.650  0.8107 -0.8126  0.6792
16211TIP3   OH270047   1.465   3.111   4.003  0.0025  0.2224 -0.3322
16211TIP3    H170048   1.499   3.157   3.926  0.1264 -0.7411 -0.8681
16211TIP3    H270049   1.543   3.073   4.044 -0.1974 -0.2304 -0.3735
16212TIP3   OH270050   6.243   2.325  17.097  0.2059  0.1550 -0.0753
16212TIP3    H170051   6.166   2.351  17.149 -0.3706 -1.2212 -0.2018
16212TIP3    H270052   6.317   2.337  17.157 -0.0681  1.5886  0.0235
16213TIP3   OH270053   4.595   2.948   5.798 -0.7815 -0.1411 -0.3518
16213TIP3    H170054   4.516   2.899   5.775 -0.8768  0.3775 -1.1736
16213TIP3    H270055   4.570   3.002   5.872 -0.9023 -0.7373  0.0475
16214TIP3   OH270056   6.149   0.626  14.070  0.0494  0.0759  0.7456
16214TIP3    H170057   6.216   0.565  14.041 -1.0861 -0.3258 -1.1993
16214TIP3    H270058   6.091   0.573  14.125 -0.1027 -0.2283  0.2964
16215TIP3   OH270059   5.750   0.018  15.342  0.1067  0.4463 -0.0802
16215TIP3    H170060   5.706   0.098  15.315 -0.6164 -0.6103 -2.2456
16215TIP3    H270061   5.699  -0.014  15.417 -0.1625  1.4979  0.1938
16216TIP3   OH270062   5.798   2.652  11.811 -0.2447 -0.1745 -0.6351
16216TIP3    H170063   5.853   2.629  11.886  0.5394 -1.0107 -1.4561
16216TIP3    H270064   5.851   2.631  11.734 -1.0249  0.6958 -1.4381
16217TIP3   OH270065   0.577   6.505  11.330 -0.2487 -0.0794 -0.6307
16217TIP3    H170066   0.586   6.594  11.364 -1.4928  1.1061 -3.1305
16217TIP3    H270067   0.635   6.501  11.254 -1.6610 -0.6966 -1.7343
16218TIP3   OH270068   1.334   0.899  14.673  0.7450 -0.2525  0.0182
16218TIP3    H170069   1.286   0.822  14.641 -0.5229  0.1033  0.9753
16218TIP3    H270070   1.352   0.880  14.765  1.4495  0.1152 -0.0344
16219TIP3   OH270071   5.453   0.929  16.370  0.1652  0.2822 -0.3015
16219TIP3    H170072   5.358   0.941  16.362 -0.1459 -1.8168 -0.4296
16219TIP3    H270073   5.477   0.978  16.448 -1.2517 -0.0579  0.3900
16220TIP3   OH270074   1.893   2.300  13.066 -0.1120  0.0788 -0.1916
16220TIP3    H170075   1.941   2.246  13.129 -0.7678  0.7129  0.8757
16220TIP3    H270076   1.841   2.238  13.016 -1.6297 -0.2358  1.6886
16221TIP3   OH270077   6.585   6.389  15.618  0.2415 -0.1922 -0.6739
16221TIP3    H170078   6.664   6.436  15.592  0.8173 -0.1733  0.9502
16221TIP3    H270079   6.527   6.457  15.652 -0.6350 -0.1634 -2.1705
16222TIP3   OH270080   3.574   0.150   0.284 -0.4787 -0.2897 -0.2142
16222TIP3    H170081   3.511   0.148   0.212 -0.8212 -0.7247  0.0958
16222TIP3    H270082   3.569   0.063   0.323 -0.9416  0.2170  0.8823
16223TIP3   OH270083   6.320   1.078  11.300  0.2594 -0.1233  0.0568
16223TIP3    H170084   6.346   1.054  11.211 -1.4359  1.6107 -0.9957
16223TIP3    H270085   6.400   1.112  11.340  0.8971 -0.2616 -1.0693
16224TIP3   OH270086   1.569   2.856  16.777 -0.6173  0.4327  0.2309
16224TIP3    H170087   1.497   2.898  16.825 -0.3952  1.1755 -0.0653
16224TIP3    H270088   1.613   2.929  16.732 -0.5705 -0.1941 -0.7635
16225TIP3   OH270089   3.361   0.356  13.961  0.4770  0.6684 -0.2813
16225TIP3    H170090   3.419   0.410  13.908  0.4898  1.1021  0.1711
16225TIP3    H270091   3.358   0.399  14.047 -0.0070  0.2999 -0.1028
16226TIP3   OH270092   2.138   1.270   2.744  0.8680  1.0948  0.3863
16226TIP3    H170093   2.189   1.202   2.701  1.1849  0.1876  2.0923
16226TIP3    H270094   2.190   1.293   2.821 -0.1823  1.8404  0.8968
16227TIP3   OH270095   1.191   3.758   1.660 -0.4590 -0.1040 -0.5335
16227TIP3    H170096   1.165   3.798   1.577  1.3644 -1.1646 -1.6882
16227TIP3    H270097   1.260   3.815   1.693  0.0945 -0.6688 -0.6983
16228TIP3   OH270098   1.793   3.466   4.228  0.2268  0.1417 -0.5320
16228TIP3    H170099   1.705   3.442   4.199  0.9754 -2.4514 -0.8962
16228TIP3    H270100   1.783   3.483   4.322 -0.5652 -0.7528 -0.4395
16229TIP3   OH270101   0.605   1.118   5.494  0.1052 -0.1537 -0.5340
16229TIP3    H170102   0.644   1.179   5.557  0.2808  1.3959 -2.0609
16229TIP3    H270103   0.518   1.100   5.528  0.8954 -0.9806  1.1716
16230TIP3   OH270104   5.355   3.880   6.562 -0.4738 -0.4794  0.1950
16230TIP3    H170105   5.413   3.866   6.487  0.0214 -1.7656  0.7925
16230TIP3    H270106   5.413   3.875   6.638 -0.9009  1.2168  0.6764
16231TIP3   OH270107   6.105   1.688   4.793 -0.1259 -0.3549  0.5097
16231TIP3    H170108   6.098   1.603   4.751  1.0720 -0.1283 -0.2061
16231TIP3    H270109   6.054   1.747   4.738  0.2339 -0.3396  0.1906
16232TIP3   OH270110   2.454   4.522  10.991 -0.4830 -0.7893 -0.2149
16232TIP3    H170111   2.472   4.515  11.084  0.3763  1.1715 -0.1879
16232TIP3    H270112   2.435   4.615  10.977 -2.2075 -1.2966 -1.7350
16233TIP3   OH270113   0.138   4.057   3.696  0.1429 -0.0413 -0.4705
16233TIP3    H170114   0.109   4.145   3.672  1.3740  0.7175  0.6233
16233TIP3    H270115   0.079   3.998   3.650 -1.3824  1.3632 -0.4177
16234TIP3   OH270116   0.295   6.779   1.523 -0.3860  0.1878  0.1686
16234TIP3    H170117   0.356   6.758   1.452 -1.5299 -1.6484 -0.3337
16234TIP3    H270118   0.227   6.832   1.480  0.2625  1.3217  0.4989
16235TIP3   OH270119   1.442   6.166  13.153 -0.2367 -0.0833 -0.4905
16235TIP3    H170120   1.484   6.248  13.124 -1.1030  0.3594 -0.5176
16235TIP3    H270121   1.366   6.157  13.096 -0.7768 -0.3229  0.2645
16236TIP3   OH270122   4.837   0.892  15.871  0.0370 -0.4870 -0.0546
16236TIP3    H170123   4.932   0.891  15.885  0.5105  2.5806 -2.0133
16236TIP3    H270124   4.820   0.816  15.815  1.8933  0.4590 -2.0348
16237TIP3   OH270125   2.244   0.920  14.894 -0.2142 -0.5509  0.4850
16237TIP3    H170126   2.171   0.886  14.944 -0.7385 -0.5573 -0.2636
16237TIP3    H270127   2.267   0.850  14.832 -1.1115  0.2938 -0.8618
16238TIP3   OH270128   5.379   1.761   1.125 -0.0534  0.0332 -0.0019
16238TIP3    H170129   5.338   1.706   1.058  0.3703 -1.0798  0.6259
16238TIP3    H270130   5.341   1.848   1.112  0.1896 -0.0939 -1.8373
16239TIP3   OH270131   5.415   1.540   3.283 -0.0737 -0.0419 -0.0883
16239TIP3    H170132   5.390   1.456   3.320  0.6143 -0.2017  0.0279
16239TIP3    H270133   5.405   1.602   3.356 -0.4777 -0.0393 -0.1447
16240TIP3   OH270134   1.622   4.551  11.733 -0.1030 -0.2087 -0.4393
16240TIP3    H170135   1.695   4.549  11.671 -1.1449  2.3587 -1.9122
16240TIP3    H270136   1.550   4.508  11.686 -0.2556 -0.3357 -0.0891
16241TIP3   OH270137   2.076   0.175   0.233 -0.0517  0.2396 -0.2870
16241TIP3    H170138   2.122   0.232   0.171  0.6846 -1.4499 -1.3861
16241TIP3    H270139   2.146   0.134   0.284 -0.5795  0.4845  0.6598
16242TIP3   OH270140   3.027   2.816  13.997 -0.4381  0.0996  0.0479
16242TIP3    H170141   2.954   2.866  13.961 -0.6939 -0.8573 -0.7998
16242TIP3    H270142   3.090   2.809  13.925  0.7924  1.4289  0.9379
16243TIP3   OH270143   1.937   1.312  12.392 -0.0959 -0.1655 -0.3822
16243TIP3    H170144   1.891   1.395  12.402 -2.4089 -1.6701  4.6218
16243TIP3    H270145   2.024   1.328  12.428 -1.2698 -0.2069  2.8011
16244TIP3   OH270146   2.942   0.976   1.110 -1.0840  0.4368  0.0721
16244TIP3    H170147   2.914   1.048   1.166 -0.7336  0.8512 -0.2737
16244TIP3    H270148   2.985   0.914   1.169  1.2296  1.8543  0.0172
16245TIP3   OH270149   5.253   0.253   1.978 -0.0515 -0.6397  0.2180
16245TIP3    H170150   5.321   0.257   2.046  1.1323  0.7635 -0.9815
16245TIP3    H270151   5.209   0.337   1.984  1.3229  0.3105 -1.9395
16246TIP3   OH270152   0.149   4.262   1.521 -0.3047  0.1399  0.2808
16246TIP3    H170153   0.136   4.354   1.543  0.8815  0.7525 -1.3622
16246TIP3    H270154   0.170   4.219   1.604 -1.4240  1.2188  1.1535
16247TIP3   OH270155   0.603   1.742  16.567  0.1251  0.4647 -0.2033
16247TIP3    H170156   0.555   1.758  16.486 -1.0419  1.8818  0.7071
16247TIP3    H270157   0.589   1.649  16.586  0.5092  0.0840 -1.6420
16248TIP3   OH270158   6.309   4.856  11.483 -0.2488  0.2444 -0.5986
16248TIP3    H170159   6.255   4.820  11.553 -0.6606  1.1115 -0.4565
16248TIP3    H270160   6.276   4.945  11.471 -0.3592  0.0381 -2.0647
16249TIP3   OH270161   4.643   0.265   4.533  0.1629 -0.3448  0.1299
16249TIP3    H170162   4.666   0.175   4.554  2.1180  0.2984  1.0506
16249TIP3    H270163   4.688   0.317   4.601 -1.5576  1.2751  0.1046
16250TIP3   OH270164   2.888   5.475  11.790 -0.0991 -0.2833  1.1081
16250TIP3    H170165   2.818   5.510  11.844 -0.3715  0.6978  0.1619
16250TIP3    H270166   2.873   5.381  11.789 -1.7486 -0.0481  0.4752
16251TIP3   OH270167   2.018   3.507   6.080  0.0818 -0.2041  0.2229
16251TIP3    H170168   2.015   3.420   6.040 -0.6787 -0.2142  0.2958
16251TIP3    H270169   1.964   3.500   6.159 -1.9757  0.9268 -0.9772
16252TIP3   OH270170   3.129   3.195  11.452 -0.6158 -0.3066 -0.2291
16252TIP3    H170171   3.220   3.196  11.421  0.0992 -1.1745  1.6920
16252TIP3    H270172   3.124   3.268  11.514 -0.9023 -0.9837  0.5503
16253TIP3   OH270173   0.994   0.112   5.235 -0.7115 -0.5855  0.1854
16253TIP3    H170174   0.911   0.135   5.277 -0.3068 -0.2045  0.7870
16253TIP3    H270175   1.050   0.189   5.247 -1.1126  0.2680 -2.5784
16254TIP3   OH270176   4.634   4.820  11.198 -0.2210  0.7116 -0.0839
16254TIP3    H170177   4.658   4.908  11.171  4.0264  0.5196  2.2688
16254TIP3    H270178   4.580   4.832  11.276 -1.0450  1.1612 -0.7028
16255TIP3   OH270179   5.737   5.246   6.659 -0.6782  0.1240  0.1574
16255TIP3    H170180   5.770   5.331   6.686 -0.3421 -0.7462  2.7474
16255TIP3    H270181   5.646   5.245   6.689 -1.0758  0.0161 -1.0008
16256TIP3   OH270182   6.157   0.438   5.287 -0.3593 -0.4494 -0.4869
16256TIP3    H170183   6.241   0.404   5.254 -0.8479 -0.5004 -1.7596
16256TIP3    H270184   6.157   0.530   5.261 -0.0249 -0.0222  0.9420
16257TIP3   OH270185   4.409   0.602   4.214  0.3592  0.1868  0.3081
16257TIP3    H170186   4.468   0.637   4.148 -1.2721 -0.8400 -1.8130
16257TIP3    H270187   4.386   0.677   4.268  0.5072  1.4192 -1.2751
16258TIP3   OH270188   0.957   0.270   2.851  0.4456 -0.8344  0.1234
16258TIP3    H170189   1.038   0.287   2.900  2.3685 -2.2481 -2.3331
16258TIP3    H270190   0.931   0.355   2.816  1.9693 -0.6440 -0.6060
16259TIP3   OH270191   2.579   6.083  14.755  0.4926 -0.3268 -0.4947
16259TIP3    H170192   2.582   6.177  14.737 -1.4506  0.3553  2.1247
16259TIP3    H270193   2.652   6.069  14.815  0.6997 -0.4915 -0.7809
16260TIP3   OH270194   5.856   2.881   3.845 -0.2535  0.2363  0.3085
16260TIP3    H170195   5.805   2.921   3.775 -1.6395 -0.5342  0.8373
16260TIP3    H270196   5.796   2.818   3.885  0.7480  0.1271  1.7035
16261TIP3   OH270197   4.075   2.962   1.388  0.1340  0.5723 -0.1387
16261TIP3    H170198   3.999   2.917   1.351 -1.5977  3.5938 -0.5952
16261TIP3    H270199   4.145   2.896   1.386 -2.5473 -2.6166  0.9395
16262TIP3   OH270200   1.676   0.852  14.229  0.2250 -0.2168 -0.5685
16262TIP3    H170201   1.593   0.862  14.183 -1.3013 -1.5179  1.6749
16262TIP3    H270202   1.652   0.811  14.312  2.9980  0.3906  0.6476
16263TIP3   OH270203   1.362   0.254   0.879  0.6834 -0.0799 -0.0949
16263TIP3    H170204   1.395   0.339   0.850  1.1768 -0.0212  0.6220
16263TIP3    H270205   1.404   0.240   0.964 -2.3952  0.7698  1.7136
16264TIP3   OH270206   2.158   6.198   5.593 -0.0168 -0.6871 -0.0603
16264TIP3    H170207   2.153   6.269   5.528 -1.6375  1.3505  2.1201
16264TIP3    H270208   2.081   6.144   5.574 -0.6031  0.0189  0.2350
16265TIP3   OH270209   6.437   0.323   5.655  0.4931 -0.1459  0.3318
16265TIP3    H170210   6.351   0.365   5.656 -0.9839 -2.8268 -1.2788
16265TIP3    H270211   6.483   0.361   5.580  0.8707  1.4319  1.3110
16266TIP3   OH270212   2.933   2.455  12.229 -0.3781 -0.2192 -0.0950
16266TIP3    H170213   2.935   2.400  12.151  0.1404 -1.3525  0.6931
16266TIP3    H270214   2.871   2.412  12.288  1.5818 -1.2482  1.3877
16267TIP3   OH270215   4.213   6.679   5.468 -0.8320  0.4922 -0.1719
16267TIP3    H170216   4.223   6.605   5.527  0.0779 -0.2639 -1.2317
16267TIP3    H270217   4.288   6.736   5.488 -0.6924  0.3825 -0.3699
16268TIP3   OH270218   1.433   4.920   0.931  0.0500  0.1596  0.0198
16268TIP3    H170219   1.473   4.989   0.879 -0.3193  1.0614  0.8811
16268TIP3    H270220   1.501   4.894   0.993  0.3364 -0.5808 -0.5939
16269TIP3   OH270221   1.156   0.299  13.194 -0.5070 -0.1769 -0.0079
16269TIP3    H170222   1.123   0.388  13.192 -1.1616 -0.3950 -2.0833
16269TIP3    H270223   1.141   0.269  13.283 -0.9865  1.5229  0.5133
16270TIP3   OH270224   0.957   2.429   4.823  0.3722  0.2664 -0.0424
16270TIP3    H170225   0.952   2.484   4.745 -0.9443  1.8283  1.0568
16270TIP3    H270226   0.908   2.350   4.800 -2.4856  1.8786 -0.0027
16271TIP3   OH270227   4.070   4.928  10.842 -0.4314 -0.3537 -0.0260
16271TIP3    H170228   4.002   4.891  10.786  1.1433 -1.4203 -1.3133
16271TIP3    H270229   4.134   4.858  10.851  1.0551  0.9984  0.2003
16272TIP3   OH270230   3.326   0.817  13.254 -0.6662  1.3232 -0.2853
16272TIP3    H170231   3.386   0.744  13.244  0.5528  1.7399  2.8447
16272TIP3    H270232   3.242   0.785  13.219  0.0819 -1.1531  0.0482
16273TIP3   OH270233   4.268   5.790  12.000 -0.4178  0.0178 -0.0934
16273TIP3    H170234   4.176   5.778  11.976  0.0353 -0.7752 -1.5476
16273TIP3    H270235   4.315   5.722  11.951  0.8585 -0.1559  1.2906
16274TIP3   OH270236   3.957   5.586  15.005 -0.0627 -0.1116 -0.0850
16274TIP3    H170237   3.986   5.495  15.004  1.0331  0.2109 -1.1568
16274TIP3    H270238   3.883   5.587  15.065 -1.3796 -2.1064 -1.5162
16275TIP3   OH270239   3.135   6.124  12.692 -0.6482  0.1442 -0.1897
16275TIP3    H170240   3.087   6.135  12.774 -1.1597  0.8159 -0.5718
16275TIP3    H270241   3.089   6.055  12.645  0.6587 -1.4958  0.8069
16276TIP3   OH270242   6.022   0.190   0.715  0.2122  0.0486 -0.6081
16276TIP3    H170243   6.056   0.280   0.707 -0.2588  0.2526 -0.3626
16276TIP3    H270244   5.935   0.201   0.753  0.9871 -0.6586  1.5109
16277TIP3   OH270245   1.946   2.318   0.386 -0.2040 -0.4838 -0.3421
16277TIP3    H170246   1.857   2.344   0.408 -0.2827  0.1834 -1.3696
16277TIP3    H270247   1.999   2.349   0.459 -0.8758 -1.4219  0.5648
16278TIP3   OH270248   6.346   0.523  17.149  1.0200 -0.3798 -0.3422
16278TIP3    H170249   6.354   0.618  17.142 -1.0672 -0.1703 -0.6064
16278TIP3    H270250   6.374   0.490  17.063 -0.2243  0.1921 -0.9981
16279TIP3   OH270251   4.258   2.261  15.744  0.4551 -0.3191  0.0316
16279TIP3    H170252   4.288   2.219  15.664  2.2454  1.5537 -0.3672
16279TIP3    H270253   4.224   2.346  15.716 -0.0666 -0.1311  1.1455
16280TIP3   OH270254   4.489   0.836  15.316  0.4290 -0.6444 -0.2686
16280TIP3    H170255   4.497   0.883  15.399  0.7116 -1.2013  0.0302
16280TIP3    H270256   4.550   0.763  15.324  1.8750  0.3268 -1.7065
16281TIP3   OH270257   5.142   5.812  10.567 -0.1384  0.0814  0.0898
16281TIP3    H170258   5.170   5.824  10.658  0.2103  0.8162 -0.1072
16281TIP3    H270259   5.130   5.717  10.558 -0.4221  0.0268  0.9672
16282TIP3   OH270260   0.926   2.566  14.560 -0.3759  0.2968  0.1984
16282TIP3    H170261   0.999   2.578  14.620 -0.3609  0.1401  0.2117
16282TIP3    H270262   0.866   2.638  14.580  0.2363  1.0258 -0.4992
16283TIP3   OH270263   5.464   3.210  14.310 -0.0284  0.4516  0.0135
16283TIP3    H170264   5.462   3.127  14.356  0.8299  0.6926  0.5098
16283TIP3    H270265   5.526   3.196  14.238 -1.4850  0.0249 -1.2030
16284TIP3   OH270266   4.957   0.060  13.907  0.8337  0.0219  0.0412
16284TIP3    H170267   4.974   0.154  13.904  0.7086  0.0280 -1.1944
16284TIP3    H270268   4.862   0.053  13.919  0.9708  0.0339  1.2135
16285TIP3   OH270269   1.280   3.815   1.132  0.4247 -0.3254  0.2500
16285TIP3    H170270   1.246   3.850   1.050  2.9227 -0.4555 -0.9363
16285TIP3    H270271   1.254   3.722   1.131 -2.7711  0.4078  1.5117
16286TIP3   OH270272   1.988   5.501  16.837  0.4568  0.0115  0.1979
16286TIP3    H170273   1.912   5.494  16.895  0.7614  1.7613  0.8666
16286TIP3    H270274   2.018   5.411  16.826 -0.6671 -0.5351  1.3427
16287TIP3   OH270275   1.583   1.291  14.478  0.4748  0.0346  0.3975
16287TIP3    H170276   1.596   1.379  14.442  1.3500 -0.7916 -1.4038
16287TIP3    H270277   1.572   1.306  14.572 -2.4176  2.3233 -0.1495
16288TIP3   OH270278   4.726   2.664   4.218  0.8986 -0.0152  0.1254
16288TIP3    H170279   4.770   2.687   4.136 -0.5821 -4.2749 -2.1660
16288TIP3    H270280   4.633   2.674   4.200  0.5571 -0.1269  1.6517
16289TIP3   OH270281   6.173   2.403  11.168  0.2066 -0.2931 -0.3125
16289TIP3    H170282   6.259   2.363  11.156 -0.7443 -2.2768 -1.0563
16289TIP3    H270283   6.165   2.465  11.096  0.6230 -0.8595 -0.8593
16290TIP3   OH270284   2.370   0.208   4.836 -0.2072 -0.5404 -0.0467
16290TIP3    H170285   2.278   0.193   4.858 -0.2987  1.6468  1.3353
16290TIP3    H270286   2.372   0.294   4.795  1.2750 -0.3306  0.3981
16291TIP3   OH270287   3.251   1.441   3.190 -0.0671 -0.2122  0.3886
16291TIP3    H170288   3.193   1.505   3.149 -0.9780 -1.1847  0.1118
16291TIP3    H270289   3.294   1.489   3.260 -0.7320  0.6973  0.1945
16292TIP3   OH270290   3.602   4.416  13.690  0.2519  0.3378  0.5383
16292TIP3    H170291   3.633   4.470  13.616  0.4428  0.5575  0.7738
16292TIP3    H270292   3.625   4.327  13.665  1.2879  0.5187  0.8007
16293TIP3   OH270293   2.694   2.384   2.462 -0.2059  0.0916  0.2836
16293TIP3    H170294   2.695   2.434   2.544 -1.4547 -0.0824  0.4150
16293TIP3    H270295   2.622   2.323   2.472  0.9065 -1.3493 -0.1242
16294TIP3   OH270296   1.356   5.640   2.422  0.5526  0.7028 -0.1441
16294TIP3    H170297   1.406   5.670   2.346 -0.1419 -2.3676 -2.0161
16294TIP3    H270298   1.264   5.653   2.397  0.3231  1.1510  0.8818
16295TIP3   OH270299   0.968   0.056  13.315  0.2168 -0.4322  0.4510
16295TIP3    H170300   1.011   0.060  13.230 -0.2732 -0.9706  0.1688
16295TIP3    H270301   1.039   0.064  13.379  0.6216 -0.3559 -0.0082
16296TIP3   OH270302   2.331   3.838  14.286 -0.1359 -0.0158 -0.6330
16296TIP3    H170303   2.284   3.755  14.288 -0.5242  0.2235  0.1611
16296TIP3    H270304   2.420   3.814  14.259  0.2892 -0.9497  1.4539
16297TIP3   OH270305   0.184   0.857   1.202 -0.0262 -0.9823  0.8000
16297TIP3    H170306   0.199   0.825   1.291 -0.4733 -2.6238  0.3239
16297TIP3    H270307   0.170   0.778   1.150 -0.8755 -0.0013 -0.5321
16298TIP3   OH270308   3.000   4.292  13.938  0.2023 -0.6388 -0.7836
16298TIP3    H170309   2.958   4.368  13.897 -0.5990  0.0639  1.2122
16298TIP3    H270310   3.067   4.329  13.995 -0.9277 -1.3038  1.0591
16299TIP3   OH270311   5.609   5.928  16.753 -0.2180 -0.9109  0.2963
16299TIP3    H170312   5.653   5.865  16.809  0.1717 -1.8959 -1.0723
16299TIP3    H270313   5.545   5.877  16.704 -0.0552 -0.2287 -0.6649
16300TIP3   OH270314   0.777   5.211  11.894 -0.6700 -0.0840  1.0316
16300TIP3    H170315   0.763   5.162  11.813  2.0449  1.3779 -0.4999
16300TIP3    H270316   0.834   5.155  11.947  0.9007  0.5192  0.0793
16301TIP3   OH270317   1.375   6.308  13.481 -0.1856 -0.3594 -0.0810
16301TIP3    H170318   1.356   6.392  13.440 -0.6051 -0.2975  0.2290
16301TIP3    H270319   1.289   6.274  13.505 -0.0905 -1.2855 -0.9923
16302TIP3   OH270320   3.297   4.822   1.339 -0.3543  0.6622 -0.5310
16302TIP3    H170321   3.212   4.866   1.330 -1.8122 -1.5410  1.2606
16302TIP3    H270322   3.324   4.842   1.429  0.8174  0.9201 -0.9234
16303TIP3   OH270323   5.961   4.631  17.187 -0.3578 -0.2082  0.4910
16303TIP3    H170324   5.968   4.689  17.263  0.8694  0.1704  0.1154
16303TIP3    H270325   5.962   4.690  17.112 -1.2243 -0.6004  0.1548
16304TIP3   OH270326   0.583   0.745   1.662  0.1487  0.0345 -0.4315
16304TIP3    H170327   0.583   0.817   1.726  1.6298 -0.1972 -0.1282
16304TIP3    H270328   0.549   0.670   1.711 -1.2632  0.4605 -0.7072
16305TIP3   OH270329   1.334   6.401   0.251  0.5075 -0.1488  0.8165
16305TIP3    H170330   1.336   6.358   0.337 -0.4184 -0.1801  0.8319
16305TIP3    H270331   1.404   6.467   0.256  0.4814 -0.1658  1.5836
16306TIP3   OH270332   1.661   1.028  16.059  0.5345 -0.0571  0.0023
16306TIP3    H170333   1.661   1.070  16.145  1.9428 -2.6965  1.3996
16306TIP3    H270334   1.697   1.095  16.000  1.0728  1.2692  1.7478
16307TIP3   OH270335   0.510   0.116  10.342  0.1159  0.1035 -0.5507
16307TIP3    H170336   0.534   0.205  10.318  0.7309  0.7872  2.2310
16307TIP3    H270337   0.588   0.080  10.383 -0.1245 -1.7760 -1.5836
16308TIP3   OH270338   3.798   6.194   0.868  0.2963  0.2345  0.0681
16308TIP3    H170339   3.888   6.176   0.840  0.1057 -0.6083 -0.0224
16308TIP3    H270340   3.802   6.191   0.964  0.0342 -1.6479  0.0688
16309TIP3   OH270341   2.831   1.928  13.914  0.5916 -0.0702  0.1395
16309TIP3    H170342   2.905   1.956  13.968  0.3123 -2.2025  1.7601
16309TIP3    H270343   2.815   2.002  13.855  2.3310  1.4912  1.4966
16310TIP3   OH270344   5.067   6.021   4.823 -0.3163 -0.0531  0.2885
16310TIP3    H170345   5.120   5.967   4.882  1.0904 -0.0573 -0.9241
16310TIP3    H270346   5.126   6.090   4.794 -0.9618 -0.0465 -1.0933
16311TIP3   OH270347   1.254   3.870   0.403  0.4576  0.3827  0.6520
16311TIP3    H170348   1.217   3.957   0.419 -1.7228 -0.4152  0.3471
16311TIP3    H270349   1.225   3.847   0.315 -0.9417 -1.5114  1.5359
16312TIP3   OH270350   0.307   3.848  16.729  0.3543 -0.1808  0.2038
16312TIP3    H170351   0.337   3.937  16.709  0.4476  0.0220  1.1766
16312TIP3    H270352   0.365   3.791  16.678 -1.0029  0.3411 -2.0528
16313TIP3   OH270353   3.645   4.936  17.021  0.5163 -0.2570 -0.0578
16313TIP3    H170354   3.559   4.978  17.029  0.5283 -0.0328 -0.9258
16313TIP3    H270355   3.630   4.846  17.049  0.3178  0.1150  1.0937
16314TIP3   OH270356   0.873   3.700   2.499 -0.3732  0.0725  0.2024
16314TIP3    H170357   0.906   3.778   2.453  0.3115  0.1693  0.8431
16314TIP3    H270358   0.780   3.699   2.478 -0.3164  0.8288 -0.1587
16315TIP3   OH270359   1.535   2.317  14.041  0.4561  0.1186 -0.0032
16315TIP3    H170360   1.551   2.403  14.002  0.0261 -0.4502 -1.4870
16315TIP3    H270361   1.592   2.257  13.992 -0.8205 -0.7688 -0.4470
16316TIP3   OH270362   6.546   3.947   3.954 -0.0452  0.6745 -0.2915
16316TIP3    H170363   6.548   4.008   3.880  2.8784  0.5424 -0.4397
16316TIP3    H270364   6.475   3.887   3.934 -0.9985  2.1924 -1.6782
16317TIP3   OH270365   1.089   6.177  12.984  0.2570  0.8294 -0.0665
16317TIP3    H170366   1.099   6.272  12.977  0.3999  0.7405 -1.3184
16317TIP3    H270367   1.046   6.151  12.902  0.6793 -0.2392  0.0345
16318TIP3   OH270368   3.455   3.837   2.216  0.4004 -0.1780  0.8763
16318TIP3    H170369   3.361   3.843   2.197  0.3398 -1.9545  0.4407
16318TIP3    H270370   3.465   3.885   2.298 -1.2535 -1.5161  1.9529
16319TIP3   OH270371   0.217   1.674  12.982 -0.1922  0.0573  0.0125
16319TIP3    H170372   0.154   1.659  13.053  1.0903 -2.2198  0.7737
16319TIP3    H270373   0.172   1.646  12.903 -0.4829 -0.6406  0.4162
16320TIP3   OH270374   3.255   4.639   1.119 -0.2934 -0.2031  0.7363
16320TIP3    H170375   3.197   4.569   1.149  0.4794 -1.5620 -0.7601
16320TIP3    H270376   3.285   4.682   1.199 -0.6874 -1.6892  1.7254
16321TIP3   OH270377   1.493   4.329  15.420  0.0176  0.0022 -0.8794
16321TIP3    H170378   1.494   4.275  15.341  0.5900 -2.2385  0.5443
16321TIP3    H270379   1.578   4.374  15.419 -0.3333  0.6681 -1.9417
16322TIP3   OH270380   3.064   2.132  16.250  0.5300 -0.2008 -0.2378
16322TIP3    H170381   3.015   2.207  16.283 -0.0112 -0.3758 -0.6268
16322TIP3    H270382   3.148   2.168  16.221  0.1895  0.2868 -0.6160
16323TIP3   OH270383   1.509   5.685  17.056 -0.1514 -0.0176  0.2448
16323TIP3    H170384   1.482   5.775  17.037 -1.7971 -0.3235  0.9035
16323TIP3    H270385   1.516   5.643  16.970 -0.4319  0.4653 -0.0175
16324TIP3   OH270386   2.385   5.940   2.090  0.4900 -0.4741  0.4888
16324TIP3    H170387   2.348   5.857   2.060 -0.2921  0.7527 -2.3394
16324TIP3    H270388   2.315   5.979   2.143  0.4360 -1.1426  0.9225
16325TIP3   OH270389   2.106   1.772   1.892  0.2340 -0.3501 -0.1168
16325TIP3    H170390   2.159   1.765   1.971  2.1647  0.7509 -1.2106
16325TIP3    H270391   2.017   1.784   1.923  1.2742  3.4948  2.0630
16326TIP3   OH270392   5.519   3.334   1.781  0.0188 -0.5901 -0.0054
16326TIP3    H170393   5.449   3.397   1.796 -0.3372 -0.8406 -0.5817
16326TIP3    H270394   5.583   3.352   1.850  1.2633  2.2305 -1.7066
16327TIP3   OH270395   4.938   1.883   0.749 -0.0545 -0.0952 -0.1082
16327TIP3    H170396   4.966   1.936   0.674 -0.0721 -0.3961 -0.3308
16327TIP3    H270397   4.966   1.794   0.726 -0.4946 -0.2682  0.0217
16328TIP3   OH270398   3.982   6.204   0.027  0.3676 -0.1934  0.6864
16328TIP3    H170399   4.013   6.157   0.105  0.3053  0.0515  0.8590
16328TIP3    H270400   3.894   6.232   0.050  0.6524  0.5874  0.8341
16329TIP3   OH270401   2.842   2.364  13.590 -0.1423  0.3485  0.0399
16329TIP3    H170402   2.825   2.353  13.497 -0.0734  0.1272  0.0522
16329TIP3    H270403   2.897   2.441  13.596  1.1535 -0.5305 -0.2409
16330TIP3   OH270404   0.610   0.867  12.135 -0.1622 -0.2000  0.5737
16330TIP3    H170405   0.600   0.801  12.066 -0.4024  1.1226 -0.6975
16330TIP3    H270406   0.543   0.845  12.200 -2.3456  0.5447 -1.2930
16331TIP3   OH270407   0.525   3.332  11.583 -0.2140 -0.4368  0.1287
16331TIP3    H170408   0.520   3.254  11.528 -2.1214  0.5905 -1.2814
16331TIP3    H270409   0.607   3.374  11.557 -1.0055 -0.0395 -1.9489
16332TIP3   OH270410   1.787   5.040  15.417 -0.0284 -0.0933 -0.6182
16332TIP3    H170411   1.865   4.989  15.437 -0.7010 -0.4405  1.3107
16332TIP3    H270412   1.819   5.130  15.408  0.6036 -0.2447  0.0626
16333TIP3   OH270413   1.396   2.376  16.357  0.1558  0.2668 -0.8749
16333TIP3    H170414   1.313   2.395  16.314 -1.7061  0.1196  2.3103
16333TIP3    H270415   1.391   2.283  16.378 -1.0254  1.0178  3.0776
16334TIP3   OH270416   0.076   0.015  13.826 -0.2655  0.5160 -0.2152
16334TIP3    H170417  -0.005  -0.023  13.858 -1.9310  1.9601 -2.4366
16334TIP3    H270418   0.103  -0.042  13.753  0.9742 -0.1497  0.7128
16335TIP3   OH270419   0.450   1.106   5.015  0.1926 -1.0648 -0.2499
16335TIP3    H170420   0.482   1.143   5.097 -1.0985 -1.8879  0.6773
16335TIP3    H270421   0.480   1.015   5.016 -1.2066 -1.5590  0.1471
16336TIP3   OH270422   1.604   4.721   5.596  0.3831  0.6656  0.4269
16336TIP3    H170423   1.647   4.639   5.573 -0.7066  0.3555 -0.5956
16336TIP3    H270424   1.511   4.699   5.599 -0.0557  2.1095 -1.0800
16337TIP3   OH270425   0.694   3.869  11.925 -0.6901  0.4724 -0.2560
16337TIP3    H170426   0.635   3.798  11.950  0.7442 -0.1905  1.4764
16337TIP3    H270427   0.727   3.843  11.839 -0.3330 -0.9101  0.2654
16338TIP3   OH270428   5.500   1.245   2.758 -0.4993  0.1051  1.0336
16338TIP3    H170429   5.559   1.185   2.804 -0.8898  0.6286  2.2676
16338TIP3    H270430   5.484   1.203   2.674  2.3490  0.3800  0.2551
16339TIP3   OH270431   4.760   5.070  16.589  0.3931  0.0933 -0.0946
16339TIP3    H170432   4.775   5.092  16.681  1.7210  1.5470 -0.6196
16339TIP3    H270433   4.840   5.096  16.545 -0.1197 -0.8306 -1.6472
16340TIP3   OH270434   4.378   5.006  16.177  0.3475  0.1409  0.4403
16340TIP3    H170435   4.415   5.091  16.154 -0.2141  1.0984  2.8007
16340TIP3    H270436   4.287   5.024  16.198  0.4052 -0.8953  1.7190
16341TIP3   OH270437   4.029   5.281   4.032  0.0921 -0.2494  0.0914
16341TIP3    H170438   3.944   5.236   4.040 -0.3751  0.4827 -0.6441
16341TIP3    H270439   4.075   5.259   4.113 -1.3018  0.3623  1.0941
16342TIP3   OH270440   3.883   0.811  12.469 -0.6857  0.5283  0.2468
16342TIP3    H170441   3.833   0.738  12.432 -1.3709  1.0370  0.1722
16342TIP3    H270442   3.923   0.853  12.393 -1.0581  0.8036  0.2046
16343TIP3   OH270443   6.620   1.646   0.410  0.0057 -0.1752 -0.4865
16343TIP3    H170444   6.592   1.586   0.341  1.4147 -0.2021 -1.0785
16343TIP3    H270445   6.631   1.592   0.487  1.1238 -0.6766 -0.9773
16344TIP3   OH270446   2.924   3.411  16.749  0.2217 -0.2818  0.1367
16344TIP3    H170447   3.014   3.382  16.761 -0.0100 -0.9558  0.2901
16344TIP3    H270448   2.926   3.465  16.670  0.4539 -1.6883 -0.8525
16345TIP3   OH270449   6.642   5.163   3.946  0.2948  0.7254  0.8575
16345TIP3    H170450   6.648   5.070   3.928  0.8362  0.4465  2.3175
16345TIP3    H270451   6.580   5.169   4.019 -0.8443  1.6587 -0.1275
16346TIP3   OH270452   4.097   3.187   3.849 -0.0738 -0.1191 -0.3112
16346TIP3    H170453   4.073   3.237   3.771  0.2552  0.9737  0.2685
16346TIP3    H270454   4.024   3.127   3.862  0.4681 -1.2622 -2.2185
16347TIP3   OH270455   3.387   4.703  16.647 -0.6932  0.2858 -0.0543
16347TIP3    H170456   3.423   4.792  16.642  0.1021 -0.1030 -3.4738
16347TIP3    H270457   3.309   4.712  16.701  0.0597  2.8074  0.7427
16348TIP3   OH270458   3.765   2.748   0.216 -0.1725 -0.5382  0.1963
16348TIP3    H170459   3.836   2.685   0.212 -0.6447 -1.0342 -0.4743
16348TIP3    H270460   3.738   2.747   0.308  0.6907 -0.3263  0.4611
16349TIP3   OH270461   5.359   6.484  10.907  0.1382  0.3263 -0.0485
16349TIP3    H170462   5.402   6.458  10.825  0.9410  1.4049  0.0126
16349TIP3    H270463   5.266   6.481  10.888  0.3031  3.6371 -2.0403
16350TIP3   OH270464   3.061   0.862   2.244 -0.3488  0.3420  0.1012
16350TIP3    H170465   3.089   0.911   2.166  1.2750  0.3068  0.6452
16350TIP3    H270466   2.997   0.919   2.286 -1.0331  0.4919 -1.0841
16351TIP3   OH270467   0.441   2.787   5.587  0.2642  0.1955  0.4086
16351TIP3    H170468   0.433   2.805   5.493  0.0245  1.1452  0.5940
16351TIP3    H270469   0.533   2.801   5.606  0.1812  0.7424  0.4431
16352TIP3   OH270470   2.362   6.273  10.332  0.7344  0.6804 -0.1086
16352TIP3    H170471   2.359   6.180  10.355  0.4787  0.8091  0.3759
16352TIP3    H270472   2.277   6.307  10.358 -0.6016  0.3413 -3.4381
16353TIP3   OH270473   2.145   6.161   0.304 -0.0731  0.4250  0.3292
16353TIP3    H170474   2.163   6.136   0.394  0.1828 -0.6092  0.0085
16353TIP3    H270475   2.201   6.104   0.251 -1.4056 -0.1402 -0.5459
16354TIP3   OH270476   5.398   0.924   5.529 -0.0232  0.0003 -0.0365
16354TIP3    H170477   5.351   0.894   5.606  0.4818 -0.8257 -0.0424
16354TIP3    H270478   5.407   1.019   5.542  1.1407 -0.2882  1.5203
16355TIP3   OH270479   1.650   4.970  13.790  0.2437  0.2501  0.0799
16355TIP3    H170480   1.682   5.051  13.751  1.3113 -0.1641  0.0459
16355TIP3    H270481   1.560   4.989  13.817 -0.5049  0.5981 -2.4334
16356TIP3   OH270482   2.732   2.974   0.125 -0.5614  0.3628  0.0095
16356TIP3    H170483   2.810   3.027   0.115 -0.7046  0.5927  0.1060
16356TIP3    H270484   2.764   2.887   0.148 -0.4027  0.9183  2.0560
16357TIP3   OH270485   2.831   3.637   4.572 -0.1029  0.6953 -0.4179
16357TIP3    H170486   2.895   3.566   4.582  0.4413  1.2745  0.2171
16357TIP3    H270487   2.882   3.712   4.541 -1.0565  0.1435 -3.8108
16358TIP3   OH270488   4.535   0.779   6.558 -0.2528 -0.5421 -0.1967
16358TIP3    H170489   4.503   0.857   6.512 -0.7429 -1.2484 -1.0896
16358TIP3    H270490   4.558   0.810   6.645  1.2665  0.9792 -1.0744
16359TIP3   OH270491   3.035   5.646   0.811  0.6676 -0.0257 -0.4555
16359TIP3    H170492   3.101   5.715   0.817 -0.9081  1.5356 -0.5305
16359TIP3    H270493   3.000   5.640   0.900  0.0633  0.0229 -0.6894
16360TIP3   OH270494   4.865   3.625  16.854  0.1986 -0.2708  0.8501
16360TIP3    H170495   4.939   3.611  16.796  0.7276 -1.2430  1.7452
16360TIP3    H270496   4.818   3.700  16.815  0.7682 -0.6302 -0.5703
16361TIP3   OH270497   4.845   5.577  16.305  0.4625 -0.7897  0.1754
16361TIP3    H170498   4.794   5.647  16.346  0.3147 -0.8286  0.0591
16361TIP3    H270499   4.873   5.614  16.221  0.2661 -0.9205  0.0529
16362TIP3   OH270500   0.565   5.364  14.597 -0.3303  0.3756  0.4372
16362TIP3    H170501   0.580   5.397  14.509  1.5932 -1.0221  0.1749
16362TIP3    H270502   0.636   5.401  14.649 -1.8719  1.7858  1.6125
16363TIP3   OH270503   2.658   4.955  17.042 -0.0215 -0.4764  0.6218
16363TIP3    H170504   2.607   5.035  17.034  0.8990  0.0538 -0.1110
16363TIP3    H270505   2.648   4.930  17.134  0.9627  1.3707  1.2915
16364TIP3   OH270506   6.187   3.160  16.780 -0.4665 -0.3970  0.0252
16364TIP3    H170507   6.211   3.211  16.858  0.5698  0.1013 -0.5911
16364TIP3    H270508   6.203   3.069  16.805  2.0396 -0.1238 -0.2611
16365TIP3   OH270509   5.463   1.705   0.269 -0.6909  0.0727  0.2475
16365TIP3    H170510   5.538   1.648   0.288 -0.0173  0.3433 -1.4293
16365TIP3    H270511   5.467   1.718   0.174 -3.6373 -0.9738 -0.1244
16366TIP3   OH270512   5.293   2.313  12.921  0.1064 -0.5347 -0.1549
16366TIP3    H170513   5.214   2.358  12.888 -0.1803  0.1102  1.3212
16366TIP3    H270514   5.366   2.361  12.881 -0.2232  0.1932  0.1045
16367TIP3   OH270515   4.483   1.516   2.715 -1.2966  0.2084  0.4456
16367TIP3    H170516   4.395   1.547   2.737 -1.9710 -1.0428 -0.3812
16367TIP3    H270517   4.502   1.450   2.782 -1.5027 -0.3824 -0.0660
16368TIP3   OH270518   0.518   0.587   2.928  0.1452  0.7117 -0.2390
16368TIP3    H170519   0.478   0.500   2.942 -1.1548  1.4618  1.0453
16368TIP3    H270520   0.575   0.599   3.004  1.5455  0.3695 -1.2031
16369TIP3   OH270521   2.012   6.196  12.380  0.2090 -0.7676 -0.0488
16369TIP3    H170522   2.092   6.151  12.407  0.3239  0.5135  2.0283
16369TIP3    H270523   1.952   6.183  12.453 -0.1768  1.3050  0.0606
16370TIP3   OH270524   5.698   1.721  12.352 -0.0581 -0.3451 -0.0260
16370TIP3    H170525   5.682   1.659  12.424  3.2376 -0.6573  0.5718
16370TIP3    H270526   5.690   1.807  12.392  1.4614 -0.5160  0.7074
16371TIP3   OH270527   3.144   0.646   3.803 -0.2777 -0.3774  0.1377
16371TIP3    H170528   3.184   0.596   3.874 -0.4658 -0.4068  0.2246
16371TIP3    H270529   3.176   0.605   3.723 -0.7449 -0.8949  0.2094
16372TIP3   OH270530   4.802   2.039  15.033  0.0455 -0.0722  0.0749
16372TIP3    H170531   4.896   2.056  15.046 -0.0650  0.5198  0.0963
16372TIP3    H270532   4.775   2.102  14.967 -0.3809 -0.1270  0.1961
16373TIP3   OH270533   5.688   5.662  13.722 -0.0135 -0.7121  0.0892
16373TIP3    H170534   5.633   5.592  13.685  0.2190 -0.5876 -0.4948
16373TIP3    H270535   5.706   5.632  13.811 -0.0125 -1.3487 -0.1154
16374TIP3   OH270536   4.687   6.582  14.735  0.2965 -0.1848  0.2648
16374TIP3    H170537   4.641   6.579  14.650 -0.5495 -0.6506  0.7189
16374TIP3    H270538   4.682   6.673  14.762  0.8028  0.0180 -0.3073
16375TIP3   OH270539   1.721   0.467   1.234 -0.1136  0.1095  0.6923
16375TIP3    H170540   1.750   0.549   1.272 -0.0405  0.7398 -0.6885
16375TIP3    H270541   1.632   0.484   1.204  0.3853  0.1467 -0.8676
16376TIP3   OH270542   2.547   3.593   1.756  0.4823  0.5156 -0.1836
16376TIP3    H170543   2.577   3.682   1.775  1.1023  0.2425  0.1204
16376TIP3    H270544   2.554   3.585   1.661  0.1505  0.8869 -0.2427
16377TIP3   OH270545   2.539   6.461   3.126  0.5347 -0.2682  0.4775
16377TIP3    H170546   2.459   6.510   3.109  1.1012  0.8722  0.9973
16377TIP3    H270547   2.517   6.404   3.200 -0.5978 -2.0145 -1.1023
16378TIP3   OH270548   4.324   2.819  15.241  0.5769 -0.2621 -0.0701
16378TIP3    H170549   4.269   2.843  15.316 -0.7152  1.0421 -1.3513
16378TIP3    H270550   4.278   2.745  15.201 -0.6854  1.1904 -1.4755
16379TIP3   OH270551   4.701   5.421   0.689  0.0770 -0.2719 -0.6811
16379TIP3    H170552   4.729   5.405   0.779  0.6742  0.3424 -0.7437
16379TIP3    H270553   4.659   5.507   0.693  0.2779 -0.1573 -1.0216
16380TIP3   OH270554   3.461   3.152  15.153  0.0586  0.7608 -0.8149
16380TIP3    H170555   3.471   3.241  15.187  0.2211  0.9617 -1.3711
16380TIP3    H270556   3.424   3.102  15.225  3.4188  0.3798  0.8417
16381TIP3   OH270557   1.437   6.168   5.893 -0.2583  0.0366 -0.6596
16381TIP3    H170558   1.528   6.167   5.923 -1.0045  0.5119  1.8332
16381TIP3    H270559   1.438   6.118   5.811  2.1936 -0.1202 -0.6013
16382TIP3   OH270560   0.808   2.128  13.095 -0.0758  0.3678  0.0937
16382TIP3    H170561   0.742   2.067  13.127 -0.8956  0.3872 -1.4601
16382TIP3    H270562   0.870   2.073  13.047  0.4454  0.4948  0.6061
16383TIP3   OH270563   0.077   3.612   6.309  0.3200  0.1621 -0.6162
16383TIP3    H170564   0.066   3.705   6.328  0.3558 -0.0455  0.5082
16383TIP3    H270565  -0.004   3.586   6.265  0.3682  0.7507 -1.0533
16384TIP3   OH270566   6.349   2.203  16.146  0.1993  0.3436  0.3417
16384TIP3    H170567   6.289   2.148  16.197 -0.0577  0.0802 -0.2329
16384TIP3    H270568   6.434   2.161  16.155 -0.1542 -0.6878 -0.8239
16385TIP3   OH270569   0.670   0.277   2.350 -0.7199  0.6383 -0.0646
16385TIP3    H170570   0.650   0.201   2.404  0.1473 -0.1246 -0.7780
16385TIP3    H270571   0.682   0.241   2.262  2.1019  1.2005  0.0070
16386TIP3   OH270572   5.376   3.282  11.114 -0.2442  0.1658  0.2623
16386TIP3    H170573   5.325   3.225  11.057 -1.5886  0.8084  0.7781
16386TIP3    H270574   5.420   3.223  11.175  2.1079 -0.6393 -2.0138
16387TIP3   OH270575   5.749   4.424  13.832 -0.5978 -0.5340  0.2255
16387TIP3    H170576   5.713   4.482  13.898 -1.2534  1.1351 -1.5013
16387TIP3    H270577   5.788   4.352  13.881 -0.6802  0.8392  2.4077
16388TIP3   OH270578   1.208   0.248   6.426 -0.1654 -0.0965 -0.8197
16388TIP3    H170579   1.120   0.261   6.391 -0.5274  0.4557  0.2180
16388TIP3    H270580   1.194   0.227   6.519  0.7972  0.3487 -0.5543
16389TIP3   OH270581   1.646   3.972  14.001  0.2627  0.0211  0.4173
16389TIP3    H170582   1.731   4.016  13.995 -0.1793  0.7972 -0.4259
16389TIP3    H270583   1.621   3.983  14.093 -0.1499  2.1986  0.1076
16390TIP3   OH270584   3.988   3.669   3.544 -0.2679 -0.4471 -0.0265
16390TIP3    H170585   4.043   3.665   3.466 -0.6027 -1.3799 -0.2318
16390TIP3    H270586   3.898   3.666   3.511 -0.4375  0.3836  0.3397
16391TIP3   OH270587   4.560   6.678  15.742  0.2475  0.2388 -0.1924
16391TIP3    H170588   4.478   6.630  15.726  0.4225  0.2793 -1.2874
16391TIP3    H270589   4.625   6.632  15.689  0.9148  0.2984  0.5552
16392TIP3   OH270590   2.487   2.269   4.073 -0.0067  0.0626 -0.4367
16392TIP3    H170591   2.545   2.265   3.997  0.8973  0.5096  0.2052
16392TIP3    H270592   2.488   2.181   4.109 -0.4747 -0.1632 -0.9571
16393TIP3   OH270593   2.027   1.340  16.126 -0.4990 -0.2846  0.3362
16393TIP3    H170594   1.935   1.315  16.135 -0.6744  0.0039 -0.5852
16393TIP3    H270595   2.034   1.423  16.173 -1.0977  0.5236 -0.9306
16394TIP3   OH270596   2.760   5.641  14.954 -0.0716 -0.0179  0.7842
16394TIP3    H170597   2.672   5.674  14.940 -0.4308 -1.4753 -0.7104
16394TIP3    H270598   2.805   5.655  14.871  0.6341 -0.6337  1.0478
16395TIP3   OH270599   2.176   1.775  13.989  0.3709  0.1615  0.0094
16395TIP3    H170600   2.149   1.764  13.898 -2.8585  2.7919  0.4802
16395TIP3    H270601   2.190   1.869  14.000  1.4666 -0.1691  2.0828
16396TIP3   OH270602   6.076   3.090  15.462  0.4263  0.1936  0.1518
16396TIP3    H170603   6.161   3.093  15.419  0.2473 -0.0801 -0.2261
16396TIP3    H270604   6.013   3.088  15.389  0.1279 -0.5545  0.4239
16397TIP3   OH270605   4.515   2.433   6.601  0.2678  0.0941  0.2217
16397TIP3    H170606   4.486   2.342   6.604  1.6531 -0.4184 -0.5153
16397TIP3    H270607   4.435   2.484   6.587 -0.4937 -1.0385  0.3246
16398TIP3   OH270608   2.561   6.421  11.570  0.1720 -0.5352  0.1680
16398TIP3    H170609   2.485   6.478  11.570 -0.3988 -1.2437  1.2465
16398TIP3    H270610   2.602   6.435  11.485 -1.7621 -0.9216 -0.8913
16399TIP3   OH270611   4.457   5.677  16.786  0.1477 -0.0989  0.9265
16399TIP3    H170612   4.362   5.684  16.777  0.0574 -2.2998 -0.5023
16399TIP3    H270613   4.488   5.768  16.785 -1.8704  0.6402  0.7897
16400TIP3   OH270614   2.131   3.108   4.764  0.4388  0.0391  0.1758
16400TIP3    H170615   2.173   3.064   4.690  0.3101 -0.8395  0.6146
16400TIP3    H270616   2.138   3.202   4.743  1.1455 -0.1606 -0.5427
16401TIP3   OH270617   2.836   5.624  15.422 -0.1779 -0.5441  0.3252
16401TIP3    H170618   2.923   5.666  15.427 -0.0219 -0.8694  0.3367
16401TIP3    H270619   2.826   5.601  15.330 -0.8172  0.6874  0.0676
16402TIP3   OH270620   3.401   3.069  15.946  0.1577  0.4786  0.0520
16402TIP3    H170621   3.333   3.125  15.982 -1.3297 -0.5288 -1.0889
16402TIP3    H270622   3.355   2.994  15.909  1.8599 -0.1493 -0.9514
16403TIP3   OH270623   0.568   3.511   0.246 -0.3594  0.1657 -0.0762
16403TIP3    H170624   0.561   3.443   0.313 -2.5394 -0.6162 -1.0086
16403TIP3    H270625   0.520   3.475   0.171  0.3797  1.8163 -1.4015
16404TIP3   OH270626   4.757   1.558   2.618 -1.0193 -0.1741 -0.0424
16404TIP3    H170627   4.663   1.547   2.629 -1.2893 -0.9390 -2.5169
16404TIP3    H270628   4.785   1.480   2.571  0.7531  0.3212  0.1148
16405TIP3   OH270629   5.487   2.613  14.592  0.1963  0.7440 -0.3397
16405TIP3    H170630   5.441   2.542  14.547 -2.0648  1.5074  0.5894
16405TIP3    H270631   5.447   2.616  14.679  2.7218  0.9006  0.9065
16406TIP3   OH270632   3.427   0.221   4.205  0.3691 -0.2685 -0.8886
16406TIP3    H170633   3.498   0.208   4.269  0.1524 -1.8213 -0.9173
16406TIP3    H270634   3.401   0.313   4.216  0.2038 -0.5180  1.4283
16407TIP3   OH270635   4.771   0.735   4.775  0.1448  0.4076  0.2412
16407TIP3    H170636   4.718   0.767   4.848  2.1642  2.0764  1.0441
16407TIP3    H270637   4.707   0.693   4.717 -2.3454  3.5897  0.3916
16408TIP3   OH270638   1.997   1.248   0.467  0.2952  0.2141  0.5790
16408TIP3    H170639   2.062   1.317   0.453  1.2760 -0.7252  0.4212
16408TIP3    H270640   1.953   1.239   0.383  0.3196  0.4854  0.5362
16409TIP3   OH270641   0.711   4.518  15.213  0.3966 -0.3252 -0.2764
16409TIP3    H170642   0.646   4.509  15.283  0.8793  0.9682  0.3596
16409TIP3    H270643   0.774   4.448  15.229 -0.5927 -1.3521 -0.6723
16410TIP3   OH270644   1.305   5.859  12.241 -0.3340  0.2378  0.3279
16410TIP3    H170645   1.262   5.922  12.184  0.9206  1.0590  0.2475
16410TIP3    H270646   1.317   5.781  12.187 -0.9481  0.2954  0.1007
16411TIP3   OH270647   6.723   1.425   1.370  0.6089 -0.1643 -0.1902
16411TIP3    H170648   6.760   1.441   1.457  0.0391 -1.1332  0.2357
16411TIP3    H270649   6.727   1.330   1.358 -1.1324 -0.2426 -0.3912
16412TIP3   OH270650   3.103   6.591   4.990 -0.0917 -0.0711  0.2056
16412TIP3    H170651   3.140   6.521   4.937 -1.2263 -1.0507  0.6815
16412TIP3    H270652   3.111   6.670   4.935  3.8801  0.1013  0.7517
16413TIP3   OH270653   0.111   6.788   4.838 -0.5530 -0.5742  0.3030
16413TIP3    H170654   0.206   6.784   4.847 -0.5461  1.5429  2.1458
16413TIP3    H270655   0.098   6.837   4.757  0.0119  0.6462  0.9160
16414TIP3   OH270656   3.487   3.822   1.082 -0.1835 -0.2643 -0.2882
16414TIP3    H170657   3.518   3.885   1.018 -0.7182  0.6556  0.3435
16414TIP3    H270658   3.434   3.873   1.143  0.2684 -1.1164  0.8603
16415TIP3   OH270659   3.679   1.871   1.308  0.2452  0.3326 -0.0146
16415TIP3    H170660   3.619   1.841   1.376  0.2331  0.9504  0.2533
16415TIP3    H270661   3.623   1.893   1.234  0.0695  1.4335  0.4221
16416TIP3   OH270662   3.871   1.013  11.871  0.5021 -0.3505  0.4720
16416TIP3    H170663   3.848   0.965  11.791  0.7162  1.1770 -0.5654
16416TIP3    H270664   3.941   0.962  11.911  0.5013 -1.0692 -0.4073
16417TIP3   OH270665   4.233   3.350  16.861 -0.4216 -0.6335 -0.1096
16417TIP3    H170666   4.217   3.333  16.954  1.6319  0.1821  0.4434
16417TIP3    H270667   4.259   3.266  16.825  0.5627 -0.5944  0.4828
16418TIP3   OH270668   3.325   2.587   5.144  0.0294  0.1794  0.1457
16418TIP3    H170669   3.420   2.580   5.144 -0.0671 -1.8084 -0.0352
16418TIP3    H270670   3.302   2.602   5.236  0.4649 -0.4372  0.3597
16419TIP3   OH270671   3.653   1.724   3.777 -0.5097 -0.7246 -0.1281
16419TIP3    H170672   3.745   1.703   3.763 -0.1192 -0.5659  1.8719
16419TIP3    H270673   3.645   1.815   3.751  0.3375 -0.2088  1.3355
16420TIP3   OH270674   5.274   4.192   1.278 -0.0848  0.2955  0.4351
16420TIP3    H170675   5.276   4.146   1.362  2.2571 -0.1610  0.1964
16420TIP3    H270676   5.221   4.135   1.222 -1.7790  0.6668  1.5766
16421TIP3   OH270677   2.094   5.785   4.317 -0.2832 -0.0119 -0.2528
16421TIP3    H170678   2.161   5.732   4.273  1.6618  1.4738  0.7334
16421TIP3    H270679   2.054   5.836   4.247 -1.9876 -2.4231 -1.1818
16422TIP3   OH270680   3.001   3.396   0.872 -0.0562  0.2194 -0.2105
16422TIP3    H170681   3.092   3.381   0.900 -0.2818  0.0625  0.4681
16422TIP3    H270682   2.977   3.316   0.827 -0.5392 -0.6429  1.4846
16423TIP3   OH270683   0.835   4.750  15.139  0.0220  0.1693 -0.3704
16423TIP3    H170684   0.782   4.671  15.152 -1.3419  1.3031  1.6131
16423TIP3    H270685   0.924   4.725  15.165 -0.6152 -0.4820  1.3375
16424TIP3   OH270686   2.763   5.138   1.064 -0.0064 -0.4910 -0.3900
16424TIP3    H170687   2.807   5.119   1.147  0.8463 -2.4704 -1.2348
16424TIP3    H270688   2.672   5.111   1.078  0.6103 -2.9393 -0.7218
16425TIP3   OH270689   5.371   5.973   4.618 -0.1929 -0.3432 -0.3061
16425TIP3    H170690   5.348   5.890   4.577  0.2904  0.7633 -3.0363
16425TIP3    H270691   5.442   5.951   4.679 -1.8289 -2.2642  1.0359
16426TIP3   OH270692   3.283   3.596  11.277  0.2185  0.4696  0.3376
16426TIP3    H170693   3.313   3.623  11.364 -2.4946  0.7865  1.2853
16426TIP3    H270694   3.188   3.614  11.278  0.2449  1.5605 -3.0973
16427TIP3   OH270695   1.829   2.597  16.464 -0.0482  1.2651 -0.1020
16427TIP3    H170696   1.831   2.635  16.551 -0.4968  1.8299 -0.3308
16427TIP3    H270697   1.771   2.522  16.471  0.5149  0.8582  0.2575
16428TIP3   OH270698   2.437   6.161   5.577 -0.2344 -0.0741 -0.1929
16428TIP3    H170699   2.465   6.253   5.572  2.7957 -0.8457  0.6903
16428TIP3    H270700   2.344   6.166   5.599  0.4825  2.8787  3.1917
16429TIP3   OH270701   2.521   0.243  17.009 -0.0452 -0.0725 -0.6434
16429TIP3    H170702   2.464   0.307  16.967 -0.5798 -0.2496 -0.1852
16429TIP3    H270703   2.591   0.296  17.048  0.5050  0.0912 -1.8052
16430TIP3   OH270704   6.426   3.530   4.507 -0.2201  0.4288  0.4920
16430TIP3    H170705   6.393   3.498   4.423 -0.6256  2.0944 -0.0105
16430TIP3    H270706   6.518   3.502   4.509 -0.4472 -0.4057 -0.0739
16431TIP3   OH270707   5.037   6.108   4.152 -0.5927  0.2634 -0.7985
16431TIP3    H170708   4.979   6.038   4.119  0.5147 -1.2846  0.3735
16431TIP3    H270709   5.033   6.098   4.247 -3.1495  4.1278 -0.3054
16432TIP3   OH270710   2.184   3.943  13.790  0.1334 -0.6981  0.3934
16432TIP3    H170711   2.205   3.926  13.882  1.7102 -0.3255  0.1204
16432TIP3    H270712   2.200   4.037  13.779 -0.4846 -0.6523 -0.1623
16433TIP3   OH270713   3.391   0.580   1.588 -0.1696 -0.4916  0.2764
16433TIP3    H170714   3.424   0.491   1.575  0.3550 -0.6023  2.0961
16433TIP3    H270715   3.449   0.635   1.537 -0.1534 -1.1315 -0.4146
16434TIP3   OH270716   5.359   0.066   5.078  0.0323 -0.1789  0.1566
16434TIP3    H170717   5.427   0.132   5.085 -0.3490  0.1935  0.3857
16434TIP3    H270718   5.334   0.047   5.168  1.0058 -1.5584  0.1645
16435TIP3   OH270719   4.234   5.503   2.587 -0.6040 -0.4937 -0.1385
16435TIP3    H170720   4.302   5.438   2.601  1.4181  1.5840  0.2677
16435TIP3    H270721   4.239   5.524   2.493  1.8608  2.1352  0.4439
16436TIP3   OH270722   0.186   0.927  15.808 -0.0115  0.1058  0.2720
16436TIP3    H170723   0.186   0.881  15.892 -1.0781  1.4642  1.0574
16436TIP3    H270724   0.184   0.857  15.742 -0.8586 -0.9786  1.4076
16437TIP3   OH270725   2.695   4.653   0.233  0.3224  0.2186 -0.1937
16437TIP3    H170726   2.636   4.578   0.238  0.6260 -0.0491 -0.6042
16437TIP3    H270727   2.768   4.631   0.290 -0.6281  1.1601  1.4571
16438TIP3   OH270728   2.435   0.659   5.888  0.0492  0.4567  0.0676
16438TIP3    H170729   2.516   0.632   5.933 -0.3769 -1.5113 -0.2871
16438TIP3    H270730   2.366   0.644   5.953 -0.2660  0.1707 -0.3371
16439TIP3   OH270731   1.707   0.985  10.663 -0.1498 -0.0158 -0.3532
16439TIP3    H170732   1.722   1.079  10.656  0.7755 -0.1601 -0.3941
16439TIP3    H270733   1.622   0.978  10.708 -0.7159  0.8321 -1.2320
16440TIP3   OH270734   1.441   0.656   1.816  0.3848  0.1739  0.7919
16440TIP3    H170735   1.518   0.700   1.851  0.6423 -0.8476  1.5560
16440TIP3    H270736   1.410   0.601   1.887 -1.8152  1.4760  0.9395
16441TIP3   OH270737   3.268   5.880   5.193  0.5143 -0.6002 -0.1156
16441TIP3    H170738   3.196   5.831   5.232  0.2026 -1.1048 -1.2955
16441TIP3    H270739   3.277   5.845   5.104  2.3244 -0.6639  0.0464
16442TIP3   OH270740   1.621   0.764  11.186  0.2079  0.2944  0.2170
16442TIP3    H170741   1.706   0.798  11.214  0.4595  0.0395 -0.2128
16442TIP3    H270742   1.628   0.669  11.199 -0.4239  0.3790  1.2439
16443TIP3   OH270743   6.442   2.324  10.735  0.0955  0.0028 -0.1732
16443TIP3    H170744   6.403   2.358  10.655 -0.0671 -0.5945 -0.3514
16443TIP3    H270745   6.522   2.280  10.707 -0.0407 -0.3425 -0.0291
16444TIP3   OH270746   4.858   3.848   6.474 -0.7925  0.2474 -0.4590
16444TIP3    H170747   4.814   3.776   6.520 -1.6614  1.0290 -0.0305
16444TIP3    H270748   4.805   3.925   6.494 -0.9045  0.7061 -2.3800
16445TIP3   OH270749   2.184   2.238  11.739  0.5659  0.2631  0.0101
16445TIP3    H170750   2.228   2.241  11.654 -0.4253  0.7976 -0.5046
16445TIP3    H270751   2.174   2.330  11.764  0.7145  0.1132  0.6371
16446TIP3   OH270752   1.445   0.658   0.460 -0.2843 -0.5857  0.0275
16446TIP3    H170753   1.394   0.579   0.474 -1.4326  0.2524  0.7320
16446TIP3    H270754   1.508   0.661   0.532 -0.1625 -0.9054 -0.0659
16447TIP3   OH270755   6.006   0.225  16.528  0.4518  0.1049 -0.0433
16447TIP3    H170756   5.968   0.296  16.475  1.9148 -0.2936 -1.7010
16447TIP3    H270757   5.943   0.213  16.599 -1.5437  0.7647 -1.5868
16448TIP3   OH270758   5.240   6.783  15.148  0.1879 -0.3094 -0.3653
16448TIP3    H170759   5.289   6.783  15.066 -0.0738 -1.8759 -0.5656
16448TIP3    H270760   5.148   6.785  15.121  0.1161  0.4365 -0.0673
16449TIP3   OH270761   4.714   1.396  12.900 -0.3226 -0.0382 -0.0158
16449TIP3    H170762   4.793   1.450  12.893 -0.8694  0.7913 -0.0324
16449TIP3    H270763   4.643   1.460  12.909 -0.8262 -0.7964  1.8026
16450TIP3   OH270764   3.239   2.296  15.693  0.1281 -0.4094 -0.3076
16450TIP3    H170765   3.162   2.291  15.751  0.4833 -3.2271  0.0820
16450TIP3    H270766   3.202   2.307  15.606 -0.5054  1.8147  0.1776
16451TIP3   OH270767   1.907   0.047  12.343 -0.1223  0.0718  0.1748
16451TIP3    H170768   1.911   0.088  12.430  1.1755 -1.7064  1.0212
16451TIP3    H270769   1.966   0.099  12.289  1.1183 -0.3349  1.0900
16452TIP3   OH270770   5.805   0.984  14.558  0.2975 -0.0182  0.4897
16452TIP3    H170771   5.883   1.004  14.609  1.4191 -0.6014 -0.9304
16452TIP3    H270772   5.831   0.912  14.501 -1.7314 -1.2082  0.9812
16453TIP3   OH270773   0.949   5.924  12.465 -0.1084  0.0469 -0.5849
16453TIP3    H170774   0.998   5.982  12.407  1.1778 -0.6291 -0.2372
16453TIP3    H270775   1.017   5.869  12.506 -0.4872  2.4106  3.8107
16454TIP3   OH270776   2.534   4.626  14.466 -0.0071  0.3369 -0.1782
16454TIP3    H170777   2.602   4.676  14.511  0.4564 -0.0714 -0.4039
16454TIP3    H270778   2.494   4.689  14.406  1.2773  0.2120 -1.2232
16455TIP3   OH270779   3.577   5.338   2.507 -0.1056 -0.4903  0.3939
16455TIP3    H170780   3.658   5.299   2.475  0.9542  1.2344  0.8579
16455TIP3    H270781   3.509   5.305   2.448  1.1840 -0.6258 -1.0656
16456TIP3   OH270782   3.635   4.226   4.533  0.4154 -0.2704 -0.6304
16456TIP3    H170783   3.590   4.142   4.541  0.7968 -0.3981  0.2364
16456TIP3    H270784   3.728   4.204   4.530  0.6393  0.1930  1.4089
16457TIP3   OH270785   4.120   5.778   3.544 -0.8025 -0.2064  0.4711
16457TIP3    H170786   4.040   5.830   3.543 -1.8529 -1.7160  0.8766
16457TIP3    H270787   4.189   5.840   3.563 -1.9465  1.0749  0.6023
16458TIP3   OH270788   1.702   6.412   2.115  0.2248 -0.6471  0.5979
16458TIP3    H170789   1.721   6.501   2.147 -0.2859 -0.4392  0.3327
16458TIP3    H270790   1.656   6.371   2.188 -2.5015  0.3886 -0.4140
16459TIP3   OH270791   5.625   3.664   0.926 -0.7349 -0.2429  0.1468
16459TIP3    H170792   5.579   3.668   0.842 -1.1400  2.3701  0.3969
16459TIP3    H270793   5.577   3.725   0.982  1.8403  1.1230  1.0311
16460TIP3   OH270794   6.665   4.318   1.788 -0.3929 -0.5920 -0.7270
16460TIP3    H170795   6.708   4.234   1.801  0.8483  0.3169  1.4861
16460TIP3    H270796   6.735   4.377   1.762 -0.2546  0.7693  2.3288
16461TIP3   OH270797   4.094   6.065   2.610  0.2518  0.6807  0.0001
16461TIP3    H170798   4.166   6.003   2.600 -0.0402  0.4639 -0.8488
16461TIP3    H270799   4.029   6.019   2.662  0.1495  0.3650 -0.3995
16462TIP3   OH270800   6.272   3.435   3.626  0.0505 -0.2104  0.6512
16462TIP3    H170801   6.288   3.353   3.673  0.1873 -0.2016  0.6195
16462TIP3    H270802   6.180   3.430   3.600  0.2705 -0.7066 -0.0426
16463TIP3   OH270803   3.654   6.154  12.462  0.3177 -0.7247  0.1793
16463TIP3    H170804   3.658   6.061  12.484 -0.4445 -0.6285  0.7571
16463TIP3    H270805   3.585   6.160  12.396 -0.0272 -0.4908  0.5617
16464TIP3   OH270806   1.177   5.459   6.582  0.0435  0.5623 -0.5346
16464TIP3    H170807   1.140   5.478   6.668 -2.1487  1.8533 -1.6654
16464TIP3    H270808   1.133   5.379   6.553 -0.3276  0.9292 -1.0162
16465TIP3   OH270809   2.161   5.693   1.379 -0.0634  0.6719 -0.2904
16465TIP3    H170810   2.201   5.607   1.392 -0.6544  0.3708 -0.4394
16465TIP3    H270811   2.212   5.752   1.436  0.2223  0.1952 -0.0440
16466TIP3   OH270812   3.829   2.910  15.447 -0.0378  0.0292  0.3158
16466TIP3    H170813   3.852   2.963  15.370 -0.0875 -1.1888 -0.5644
16466TIP3    H270814   3.904   2.921  15.505  0.0972  0.8039  0.0167
16467TIP3   OH270815   5.189   1.530   6.329  0.1745 -0.1703 -0.3915
16467TIP3    H170816   5.118   1.590   6.352  0.0935 -0.1099 -0.7882
16467TIP3    H270817   5.267   1.570   6.366  0.2917  0.7591 -1.6023
16468TIP3   OH270818   0.163   6.195   0.974  0.5366  0.2905  0.0837
16468TIP3    H170819   0.092   6.141   0.941  1.4435 -0.4255 -0.7870
16468TIP3    H270820   0.133   6.226   1.059 -1.2413  0.9027 -0.7278
16469TIP3   OH270821   5.594   4.394   0.932  0.1233 -0.0816 -0.3147
16469TIP3    H170822   5.550   4.354   1.007 -0.8635 -0.9254 -1.3097
16469TIP3    H270823   5.562   4.484   0.931 -0.2902 -0.2195 -0.0409
16470TIP3   OH270824   4.127   5.700   0.567  0.0273  0.0408  0.5051
16470TIP3    H170825   4.131   5.673   0.476 -1.1279 -0.4230  0.5808
16470TIP3    H270826   4.158   5.624   0.617 -1.2098 -0.4289  0.5948
16471TIP3   OH270827   0.739   3.293  16.403  0.0129 -0.0900  0.7457
16471TIP3    H170828   0.659   3.248  16.375  0.5015 -1.0136  0.7809
16471TIP3    H270829   0.768   3.340  16.325  0.4538 -1.2964  0.1523
16472TIP3   OH270830   0.757   3.459  12.489 -0.2569 -0.1932  0.5541
16472TIP3    H170831   0.806   3.437  12.568  0.0348 -1.0311  0.1505
16472TIP3    H270832   0.669   3.425  12.505 -0.4450  0.4403  0.8804
16473TIP3   OH270833   2.340   6.083  11.622  0.0815  0.4418  0.6333
16473TIP3    H170834   2.363   6.093  11.529  0.7428 -0.2691  0.7166
16473TIP3    H270835   2.320   6.172  11.651 -0.2331  0.6611 -0.2116
16474TIP3   OH270836   5.529   0.169  11.560  0.5361  0.3454  0.4871
16474TIP3    H170837   5.544   0.082  11.525 -2.6565 -0.6808  1.3241
16474TIP3    H270838   5.587   0.174  11.637  1.8617 -0.3772 -0.4238
16475TIP3   OH270839   5.721   3.829  16.971 -0.3042  0.1845  0.0194
16475TIP3    H170840   5.726   3.896  16.903  1.8086  0.3233  0.2592
16475TIP3    H270841   5.724   3.878  17.054  0.1866 -0.1522  0.2010
16476TIP3   OH270842   0.201   4.285   0.875 -0.1696  0.1010 -0.1231
16476TIP3    H170843   0.248   4.352   0.925 -0.2577  1.4244 -1.6981
16476TIP3    H270844   0.112   4.318   0.869 -0.2817 -0.2827 -0.6900
16477TIP3   OH270845   2.550   4.368   3.406  0.2082 -0.1544  0.3791
16477TIP3    H170846   2.462   4.347   3.439  0.0283  1.0031  0.6796
16477TIP3    H270847   2.585   4.284   3.376 -0.9599 -0.6474  0.3504
16478TIP3   OH270848   2.331   3.317   2.823  0.3889  0.2924 -0.0520
16478TIP3    H170849   2.286   3.260   2.885  0.9637  0.3240  0.4029
16478TIP3    H270850   2.261   3.365   2.779 -0.0499 -0.1101  0.1980
16479TIP3   OH270851   0.888   1.497   0.087 -0.5857 -0.3318  0.4277
16479TIP3    H170852   0.895   1.556   0.012  0.5676 -0.5822  0.3275
16479TIP3    H270853   0.921   1.547   0.161 -1.3230 -0.2346  0.7053
16480TIP3   OH270854   2.624   3.252  15.310  0.2260  0.0875 -0.1656
16480TIP3    H170855   2.565   3.285  15.378 -0.0184 -0.5751 -0.0457
16480TIP3    H270856   2.574   3.263  15.228 -0.2240 -0.8054 -0.0242
16481TIP3   OH270857   4.507   2.054  14.136 -0.2771 -0.3047  0.0550
16481TIP3    H170858   4.472   2.142  14.151 -1.9985 -0.7938 -0.7975
16481TIP3    H270859   4.430   2.002  14.112  0.7838 -1.9322  0.0756
16482TIP3   OH270860   3.291   4.868  15.534 -0.3471  0.0447  0.2896
16482TIP3    H170861   3.204   4.890  15.569 -0.7442 -1.1617  0.1227
16482TIP3    H270862   3.339   4.835  15.610  0.3684  1.7165  0.6179
16483TIP3   OH270863   1.002   0.945  13.539 -0.1454 -0.5887 -0.1607
16483TIP3    H170864   0.930   0.903  13.492  0.3324 -1.7036  0.0934
16483TIP3    H270865   0.993   0.915  13.629  1.4940 -1.9594 -0.3994
16484TIP3   OH270866   1.909   6.273  16.610  0.4935  0.1822  0.3741
16484TIP3    H170867   1.916   6.213  16.536  1.5204  0.0162  0.5870
16484TIP3    H270868   1.840   6.335  16.585  0.7199  0.0353 -0.6535
16485TIP3   OH270869   2.548   5.611   5.259  0.3927 -0.8546 -0.1196
16485TIP3    H170870   2.486   5.543   5.285  0.0309 -0.3476  0.3654
16485TIP3    H270871   2.520   5.689   5.307  1.4068 -0.6111  0.0966
16486TIP3   OH270872   1.631   2.428  13.100 -0.1974 -0.4172  0.0347
16486TIP3    H170873   1.624   2.508  13.048 -0.6117 -0.7183 -0.3696
16486TIP3    H270874   1.721   2.397  13.085  0.3234  0.5418  1.0331
16487TIP3   OH270875   1.449   4.512  16.919 -0.0122 -0.0069  0.6294
16487TIP3    H170876   1.436   4.456  16.843  0.6403 -0.7115  1.0194
16487TIP3    H270877   1.361   4.527  16.953 -0.2372 -0.3706  0.2137
16488TIP3   OH270878   5.212   1.242  13.083  0.3579 -0.2299  0.1052
16488TIP3    H170879   5.123   1.225  13.115 -0.3168  1.7209 -0.5810
16488TIP3    H270880   5.255   1.289  13.155 -0.1259  1.3040 -0.5471
16489TIP3   OH270881   3.086   4.084   5.110  0.3121 -0.1536  0.3389
16489TIP3    H170882   2.995   4.068   5.135  0.0017  1.4274  0.2961
16489TIP3    H270883   3.084   4.087   5.015 -0.1512  2.6569  0.3637
16490TIP3   OH270884   4.181   2.597  12.663  0.1406 -0.0315 -0.0086
16490TIP3    H170885   4.229   2.613  12.744  2.3943 -1.5647 -0.9484
16490TIP3    H270886   4.219   2.657  12.600 -1.6762  1.2298 -0.0016
16491TIP3   OH270887   1.783   5.321  11.798  0.4457 -0.0829  0.3021
16491TIP3    H170888   1.738   5.405  11.785  2.0218  0.7009 -0.4614
16491TIP3    H270889   1.724   5.256  11.762  0.3818  1.0340 -1.7694
16492TIP3   OH270890   0.054   4.548   3.999  0.5606  0.2269 -0.0357
16492TIP3    H170891   0.044   4.643   3.994 -0.7478  0.2045  1.5099
16492TIP3    H270892  -0.036   4.514   3.994  1.1070 -1.0965 -2.6594
16493TIP3   OH270893   6.441   2.876  10.982  0.3595 -0.1800  0.2019
16493TIP3    H170894   6.477   2.964  10.975 -0.5483  0.2274  0.5334
16493TIP3    H270895   6.511   2.819  10.948  0.8276  0.6824 -0.3321
16494TIP3   OH270896   3.600   0.820   4.066 -0.3045  0.3421 -0.3367
16494TIP3    H170897   3.579   0.727   4.061 -0.8539  0.5196 -1.7167
16494TIP3    H270898   3.632   0.843   3.979 -0.6279  1.5503 -0.1607
16495TIP3   OH270899   6.216   6.418   1.533  0.1556 -0.3012 -0.2665
16495TIP3    H170900   6.149   6.356   1.503  1.9766 -2.2297 -0.6035
16495TIP3    H270901   6.269   6.368   1.595  0.0704  1.8134  1.6343
16496TIP3   OH270902   2.622   4.784  11.197  1.0429 -0.2314 -0.8012
16496TIP3    H170903   2.596   4.702  11.239 -0.1488 -0.0979 -1.2231
16496TIP3    H270904   2.714   4.796  11.221  1.1962 -1.6185 -0.6189
16497TIP3   OH270905   2.429   6.753  16.480  0.1059 -0.4006  0.3497
16497TIP3    H170906   2.461   6.839  16.509  1.1593 -0.5611 -0.2738
16497TIP3    H270907   2.377   6.721  16.554  0.6263  0.2894  1.0382
16498TIP3   OH270908   6.555   2.149  10.294  0.7239  0.3653  0.6334
16498TIP3    H170909   6.469   2.124  10.262  1.0195 -0.7448  0.6801
16498TIP3    H270910   6.569   2.237  10.258 -0.6454  0.7968  1.0796
16499TIP3   OH270911   4.659   0.104   2.026  0.0664 -0.7219  0.1700
16499TIP3    H170912   4.743   0.151   2.034 -1.3874  2.2555 -0.6822
16499TIP3    H270913   4.618   0.116   2.112  0.3878 -2.0647  0.5398
16500TIP3   OH270914   5.329   2.548   5.823  0.4787 -0.1304 -0.1945
16500TIP3    H170915   5.242   2.508   5.836  0.5546 -0.0230  0.7137
16500TIP3    H270916   5.320   2.597   5.741 -0.0521 -0.8335 -0.5756
16501TIP3   OH270917   1.331   4.627  16.516 -0.2373 -0.2800  0.0933
16501TIP3    H170918   1.287   4.704  16.481  1.5738  1.5641  1.6224
16501TIP3    H270919   1.354   4.576  16.438  0.7976  2.0372 -1.2381
16502TIP3   OH270920   2.759   3.066   4.052  0.2363  0.2131 -0.0782
16502TIP3    H170921   2.693   2.997   4.053 -0.8079  1.1647 -0.7996
16502TIP3    H270922   2.842   3.020   4.048 -0.4701 -1.0481 -2.9639
16503TIP3   OH270923   3.991   6.392  14.159  0.3298  0.2465  0.2201
16503TIP3    H170924   4.077   6.424  14.132  0.4938 -0.8584 -0.6085
16503TIP3    H270925   4.007   6.340  14.237 -0.0568  2.8504  2.1811
16504TIP3   OH270926   1.139   6.090  14.611  0.2437 -0.3007  0.5677
16504TIP3    H170927   1.175   6.129  14.691 -0.5224 -0.3294  0.9372
16504TIP3    H270928   1.189   6.131  14.540 -1.5286  2.5555  0.8169
16505TIP3   OH270929   4.643   2.208  11.671 -0.1367 -0.4929  0.2123
16505TIP3    H170930   4.561   2.176  11.634 -0.3841  0.2634  0.0919
16505TIP3    H270931   4.618   2.286  11.722  0.7785  1.2202 -1.7944
16506TIP3   OH270932   2.492   5.405  14.917  0.6008 -0.3586 -0.2148
16506TIP3    H170933   2.437   5.479  14.944  0.0004  0.0893 -2.4074
16506TIP3    H270934   2.491   5.409  14.821  1.5066 -2.5350 -0.3698
16507TIP3   OH270935   2.476   1.480   0.836  0.1411  0.2321  0.3470
16507TIP3    H170936   2.459   1.518   0.750 -0.5200 -0.6690  0.0704
16507TIP3    H270937   2.392   1.485   0.882  0.3773  0.2896  0.7793
16508TIP3   OH270938   5.155   0.705  10.576  0.7212  0.3824  0.1935
16508TIP3    H170939   5.100   0.738  10.505  2.0356 -0.0936 -1.0787
16508TIP3    H270940   5.201   0.782  10.610 -0.4843  0.7420  1.0996
16509TIP3   OH270941   4.588   5.861   3.523  0.2088 -0.0750 -0.1177
16509TIP3    H170942   4.518   5.911   3.565  0.0033 -0.1091 -0.4184
16509TIP3    H270943   4.633   5.817   3.595 -0.3112 -0.3492  0.0451
16510TIP3   OH270944   0.820   1.019  12.287 -0.1893  0.6216  0.1571
16510TIP3    H170945   0.880   0.958  12.329  0.2244  1.3699  0.6799
16510TIP3    H270946   0.742   0.967  12.267  0.3434 -0.1798  0.1526
16511TIP3   OH270947   0.329   0.838  13.943  0.0790  0.9510 -0.3000
16511TIP3    H170948   0.240   0.804  13.957  0.6839 -0.4606  0.3435
16511TIP3    H270949   0.319   0.933  13.945 -1.2464  0.8246  1.0922
16512TIP3   OH270950   4.450   0.718  14.265 -0.0325 -0.1859  0.1587
16512TIP3    H170951   4.390   0.687  14.333 -1.6578  0.1349 -1.0800
16512TIP3    H270952   4.418   0.805  14.242 -1.4115 -1.3850 -3.0439
16513TIP3   OH270953   0.883   3.669   3.630 -0.0982 -0.4630 -0.5427
16513TIP3    H170954   0.933   3.598   3.590 -0.7657 -2.1379  1.4291
16513TIP3    H270955   0.944   3.712   3.689  0.2818  0.6269 -1.6735
16514TIP3   OH270956   5.298   1.788   0.664 -0.1716 -0.5253 -0.7871
16514TIP3    H170957   5.304   1.883   0.668  0.4559 -0.5319 -1.3987
16514TIP3    H270958   5.228   1.770   0.602  0.1163 -0.4639 -1.1286
16515TIP3   OH270959   3.945   1.387   0.858 -0.1265  0.0278  0.1514
16515TIP3    H170960   3.941   1.308   0.911 -1.1182 -0.7641 -1.0479
16515TIP3    H270961   3.877   1.444   0.893  1.3020  0.8335  1.7116
16516TIP3   OH270962   3.541   3.497  14.497 -0.4258 -0.7355  0.4500
16516TIP3    H170963   3.485   3.526  14.569 -0.0105  0.2362  0.3939
16516TIP3    H270964   3.538   3.569  14.434  1.1866 -0.4870  0.6120
16517TIP3   OH270965   2.596   2.056  11.282 -0.6101  0.0511 -0.1367
16517TIP3    H170966   2.641   2.136  11.311 -1.8043  0.9245 -0.6155
16517TIP3    H270967   2.606   2.056  11.187  0.1980 -0.9014 -0.0735
16518TIP3   OH270968   1.089   0.327  12.934  0.1784 -0.0401  0.0750
16518TIP3    H170969   1.115   0.409  12.977  0.4485 -0.1153  0.0601
16518TIP3    H270970   1.097   0.260  13.002 -0.9981  0.0896  0.3620
16519TIP3   OH270971   5.530   0.902   2.058  0.7009 -0.4540 -0.6587
16519TIP3    H170972   5.502   0.928   2.146  1.7729 -0.1844 -0.3837
16519TIP3    H270973   5.451   0.909   2.005 -0.2137 -1.6083  0.4868
16520TIP3   OH270974   4.323   5.217   3.971 -0.4511  0.2066 -0.2936
16520TIP3    H170975   4.311   5.257   4.057 -2.8694 -1.4317  0.2304
16520TIP3    H270976   4.239   5.229   3.927  1.1991  2.4825 -3.2038
16521TIP3   OH270977   2.834   3.165   0.532 -0.3539 -0.0115  0.4346
16521TIP3    H170978   2.896   3.153   0.604  0.1740 -2.2186 -0.3094
16521TIP3    H270979   2.876   3.123   0.457 -1.5823  0.8397 -0.7744
16522TIP3   OH270980   3.655   3.897  13.006  0.3948  0.9375  0.5564
16522TIP3    H170981   3.569   3.936  12.990  0.7414  2.2470  1.6581
16522TIP3    H270982   3.674   3.847  12.927 -0.8291  1.6649 -0.2269
16523TIP3   OH270983   1.032   0.626   2.491  0.1594 -0.4309 -0.2828
16523TIP3    H170984   1.052   0.631   2.397 -0.7875 -1.3212 -0.5479
16523TIP3    H270985   0.942   0.596   2.494  0.0752 -0.0769  0.9255
16524TIP3   OH270986   4.596   3.965  11.528  0.2455  0.1546  0.0163
16524TIP3    H170987   4.629   3.891  11.578 -0.9810 -0.7642 -0.4867
16524TIP3    H270988   4.667   3.988  11.468  0.2835 -1.2672 -0.5126
16525TIP3   OH270989   2.386   6.605  11.658 -0.2447  0.0187  0.0090
16525TIP3    H170990   2.417   6.693  11.678 -0.9726  0.3040 -0.1147
16525TIP3    H270991   2.361   6.568  11.743 -1.5294  0.5453 -0.1198
16526TIP3   OH270992   3.917   3.365  11.937  0.7174  0.2174 -0.4470
16526TIP3    H170993   3.870   3.371  11.854 -1.6363 -2.2088  0.5600
16526TIP3    H270994   3.856   3.400  12.002  1.2327 -0.8103  0.6276
16527TIP3   OH270995   2.731   2.519   5.423  0.0670 -0.0927 -0.1051
16527TIP3    H170996   2.775   2.503   5.339 -0.0876  0.8307 -0.3685
16527TIP3    H270997   2.655   2.573   5.400 -1.8208 -2.4615  0.1900
16528TIP3   OH270998   1.485   0.438  10.590 -0.5619  0.4603  0.4507
16528TIP3    H170999   1.453   0.358  10.632 -0.1345  1.5548  3.1106
16528TIP3    H271000   1.407   0.487  10.567 -0.8080 -0.0462  0.1884
16529TIP3   OH271001   2.205   5.533   4.960  0.2727 -0.0969 -0.5434
16529TIP3    H171002   2.176   5.536   4.869 -2.4104 -2.4795  0.0582
16529TIP3    H271003   2.234   5.443   4.973 -1.0454 -0.3294  1.2942
16530TIP3   OH271004   5.053   2.455   0.118 -0.2939  0.5606 -0.6060
16530TIP3    H171005   5.085   2.544   0.130  1.0288  0.3632 -2.3240
16530TIP3    H271006   4.992   2.460   0.045 -2.8551  0.5673  1.3617
16531TIP3   OH271007   4.201   0.283   5.841  0.2854  0.1498 -0.3157
16531TIP3    H171008   4.209   0.378   5.851 -0.7150  0.2254 -0.1780
16531TIP3    H271009   4.121   0.271   5.790  1.2654 -0.5595 -1.7714
16532TIP3   OH271010   1.155   3.169   5.001 -0.2384  0.1887 -0.3052
16532TIP3    H171011   1.220   3.180   4.932  1.0635 -0.9078  0.6916
16532TIP3    H271012   1.205   3.175   5.082 -1.5836  0.4850  0.5402
16533TIP3   OH271013   4.802   3.943   4.063  0.3625  0.1340  0.0584
16533TIP3    H171014   4.781   4.027   4.021  2.2258  0.8402  0.4264
16533TIP3    H271015   4.819   3.884   3.990 -0.7908  0.1008 -0.2042
16534TIP3   OH271016   3.970   4.192  12.808 -0.1156  0.7903  0.2818
16534TIP3    H171017   3.950   4.163  12.719  1.6810 -0.7223  0.3058
16534TIP3    H271018   3.885   4.213  12.846 -1.0200  0.4146 -1.4380
16535TIP3   OH271019   6.645   0.876  11.111  0.3361  0.0615 -0.1979
16535TIP3    H171020   6.559   0.848  11.082 -0.5669  2.0056  0.3968
16535TIP3    H271021   6.627   0.941  11.179  2.2709  0.5884 -0.1289
16536TIP3   OH271022   4.188   2.865  15.516 -0.6308 -0.0497 -0.3845
16536TIP3    H171023   4.270   2.868  15.565  0.0926  0.7024 -1.6060
16536TIP3    H271024   4.125   2.911  15.572 -0.4017 -1.1349  0.8265
16537TIP3   OH271025   2.010   4.451   2.498  0.3387  0.5291 -0.2575
16537TIP3    H171026   2.070   4.524   2.513  1.9335 -0.7440 -0.1312
16537TIP3    H271027   2.061   4.373   2.521 -1.1500 -0.6636 -0.8185
16538TIP3   OH271028   3.519   3.968   4.576  0.5468  0.0286 -0.0391
16538TIP3    H171029   3.458   3.965   4.503  0.1818 -0.7800  0.2889
16538TIP3    H271030   3.469   4.006   4.648  0.5501 -0.2291  0.1037
16539TIP3   OH271031   6.164   3.861   2.880 -0.1412 -0.1358  0.0354
16539TIP3    H171032   6.188   3.908   2.799  1.8618 -0.8752  0.1357
16539TIP3    H271033   6.150   3.771   2.852  1.2783 -0.5522  0.5700
16540TIP3   OH271034   4.501   6.185   1.283 -0.1976  0.4737  0.0050
16540TIP3    H171035   4.577   6.243   1.285 -0.3229  0.6367  0.0592
16540TIP3    H271036   4.426   6.243   1.268 -0.4691  0.4893  1.2778
16541TIP3   OH271037   1.857   4.155   4.746 -0.3252  0.0228  0.6861
16541TIP3    H171038   1.855   4.060   4.743  3.1971 -0.2002  1.2862
16541TIP3    H271039   1.904   4.176   4.827  0.5470  2.1757 -0.2816
16542TIP3   OH271040   4.269   5.075   4.514  0.0957 -0.7161 -0.2618
16542TIP3    H171041   4.340   5.138   4.515 -0.7797  0.3086  0.9498
16542TIP3    H271042   4.295   5.009   4.449  1.7286  0.0740 -0.4414
16543TIP3   OH271043   3.884   1.884   5.834 -0.2016  0.0672  0.2827
16543TIP3    H171044   3.879   1.792   5.807  0.7837 -0.8906  2.9658
16543TIP3    H271045   3.811   1.926   5.790 -0.2598 -1.8283 -1.6001
16544TIP3   OH271046   6.650   4.171  11.615 -0.0060  0.6392  0.1150
16544TIP3    H171047   6.576   4.115  11.595 -0.6205  1.7073 -0.7385
16544TIP3    H271048   6.711   4.158  11.543  1.0685 -0.8685  1.2287
16545TIP3   OH271049   5.478   4.272   3.285 -0.0507 -0.0675  0.0291
16545TIP3    H171050   5.561   4.235   3.314  0.5519  0.2743 -1.1667
16545TIP3    H271051   5.468   4.241   3.194 -0.3007  1.3948 -0.4701
16546TIP3   OH271052   5.860   3.878   0.854  0.9006 -0.5615 -0.0674
16546TIP3    H171053   5.791   3.811   0.859 -1.1582  1.4278 -0.2580
16546TIP3    H271054   5.840   3.928   0.775  2.4981  0.1943 -0.0386
16547TIP3   OH271055   5.851   0.695   6.010  1.0114  0.3598  0.3956
16547TIP3    H171056   5.874   0.777   5.964 -2.0416  0.9734 -0.2729
16547TIP3    H271057   5.903   0.697   6.090  2.2968  2.0966 -0.4090
16548TIP3   OH271058   4.326   4.912   5.693  0.1488 -0.9389 -0.2167
16548TIP3    H171059   4.385   4.854   5.645  0.0090 -0.8352 -0.5126
16548TIP3    H271060   4.245   4.911   5.643  0.3761  0.0726 -0.6096
16549TIP3   OH271061   1.004   5.121  14.881 -0.6771  0.0743  0.5196
16549TIP3    H171062   0.983   5.206  14.919 -2.4675 -0.3763  0.6698
16549TIP3    H271063   0.923   5.070  14.891 -0.9605 -0.4358 -2.9412
16550TIP3   OH271064   4.346   1.118  11.819  0.1807  0.0425  0.3033
16550TIP3    H171065   4.311   1.062  11.889  0.5642 -0.6946 -0.0794
16550TIP3    H271066   4.296   1.092  11.741  1.2493 -0.7117 -0.1528
16551TIP3   OH271067   0.162   0.336   2.784 -0.4018 -0.5861  0.3862
16551TIP3    H171068   0.141   0.363   2.873 -0.8112  0.9376 -0.1467
16551TIP3    H271069   0.254   0.358   2.772 -0.0544 -1.7475  0.7448
16552TIP3   OH271070   3.543   2.641   4.148 -0.6668  0.1387 -0.2024
16552TIP3    H171071   3.498   2.647   4.233  0.9348 -0.4666  0.7394
16552TIP3    H271072   3.569   2.731   4.129  0.9768  0.0035  1.1494
16553TIP3   OH271073   6.471   2.150   1.552 -0.4271  0.3967 -0.7742
16553TIP3    H171074   6.441   2.065   1.521  0.9110 -0.2552 -0.3175
16553TIP3    H271075   6.445   2.153   1.645  0.8524 -0.1629 -0.3816
16554TIP3   OH271076   3.720   1.589   2.849 -0.2105 -0.4243  0.0886
16554TIP3    H171077   3.756   1.674   2.872  0.6947 -0.2848 -1.6651
16554TIP3    H271078   3.796   1.537   2.823 -1.0832 -0.2309 -3.4041
16555TIP3   OH271079   1.432   4.988  11.205 -0.1496 -0.0080 -0.1663
16555TIP3    H171080   1.513   4.938  11.192 -0.0930  0.0553 -0.0611
16555TIP3    H271081   1.369   4.947  11.146 -1.2461 -2.8070  2.6464
16556TIP3   OH271082   4.594   5.080   0.637  0.2878 -0.5396 -0.4734
16556TIP3    H171083   4.530   5.023   0.595  0.3177  0.4001 -1.8989
16556TIP3    H271084   4.615   5.146   0.570  0.0808  1.2720  1.1390
16557TIP3   OH271085   1.638   5.339  15.458 -0.1634 -0.3787  0.2348
16557TIP3    H171086   1.730   5.354  15.481 -0.0634 -0.9586  0.2362
16557TIP3    H271087   1.638   5.338  15.362 -0.1059 -0.7138  0.2356
16558TIP3   OH271088   2.171   2.019  16.840  0.0657  0.3364 -0.3529
16558TIP3    H171089   2.188   1.984  16.927 -0.9697  0.6545 -0.0082
16558TIP3    H271090   2.236   2.089  16.829  1.0850 -0.5858 -0.4050
16559TIP3   OH271091   1.456   3.973   4.188 -0.0148 -0.4556  0.2859
16559TIP3    H171092   1.515   4.044   4.165  0.4929 -0.9309  0.1016
16559TIP3    H271093   1.506   3.893   4.170 -0.5519 -0.8582  0.5503
16560TIP3   OH271094   1.504   1.842   3.485 -0.1049 -0.3778 -0.1419
16560TIP3    H171095   1.518   1.757   3.527 -0.7407 -0.6980 -0.5587
16560TIP3    H271096   1.583   1.858   3.434  1.3054  0.6551  2.1989
16561TIP3   OH271097   5.621   6.767  11.302  0.0002 -0.0079 -0.0757
16561TIP3    H171098   5.689   6.797  11.243  2.0792 -0.8961  1.7365
16561TIP3    H271099   5.665   6.754  11.386 -1.4950 -4.2356  0.3033
16562TIP3   OH271100   2.114   4.191  14.332 -1.0098 -0.1773  0.1931
16562TIP3    H171101   2.058   4.115  14.318 -1.2172 -0.0237  0.1847
16562TIP3    H271102   2.071   4.262  14.284 -0.0472 -0.3846 -1.0107
16563TIP3   OH271103   6.037   4.235   1.963 -0.6307  0.2845 -0.2851
16563TIP3    H171104   6.097   4.305   1.938 -0.8234  0.6400  0.2380
16563TIP3    H271105   6.092   4.172   2.011  0.3816 -1.7617 -3.7173
16564TIP3   OH271106   1.512   6.315   6.791  0.5095 -0.2009 -0.3233
16564TIP3    H171107   1.534   6.374   6.718  1.7519  1.3724  1.2218
16564TIP3    H271108   1.565   6.237   6.775 -0.0999 -0.3731 -1.6787
16565TIP3   OH271109   2.670   1.979   1.248  0.2865  0.2412 -0.6149
16565TIP3    H171110   2.726   1.944   1.179  0.9610  0.4510 -0.1776
16565TIP3    H271111   2.585   1.936   1.234  1.2525 -2.1480  0.3365
16566TIP3   OH271112   2.028   5.957   4.122  0.2099  0.6325  0.3679
16566TIP3    H171113   2.110   6.004   4.129 -0.9094  3.0306 -1.3758
16566TIP3    H271114   2.016   5.941   4.029 -1.3295  0.3976  0.5736
16567TIP3   OH271115   0.396   5.947  16.501 -0.0194  0.2604 -0.3460
16567TIP3    H171116   0.323   5.919  16.444 -0.7913  0.1254  0.6749
16567TIP3    H271117   0.467   5.886  16.480 -0.7913 -0.7500 -0.1067
16568TIP3   OH271118   2.708   4.322  11.059  0.0135 -0.4554  0.0342
16568TIP3    H171119   2.663   4.281  11.133 -0.2492  2.8387  1.8674
16568TIP3    H271120   2.793   4.277  11.055  0.5290  0.0226  3.2006
16569TIP3   OH271121   2.736   1.630   4.784  0.2142 -0.1048  0.0950
16569TIP3    H171122   2.647   1.596   4.774 -0.5571  1.8748 -0.1322
16569TIP3    H271123   2.760   1.658   4.696  0.4894  0.7007  0.4225
16570TIP3   OH271124   5.150   2.933  13.880 -0.8166  0.5338 -0.1549
16570TIP3    H171125   5.065   2.976  13.889 -1.0903  0.0039 -0.1925
16570TIP3    H271126   5.209   2.985  13.935 -0.8629  1.6909 -1.1290
16571TIP3   OH271127   1.881   6.179  14.304 -0.0309  0.2484  0.1398
16571TIP3    H171128   1.972   6.149  14.312 -0.3754 -1.2084 -0.8879
16571TIP3    H271129   1.876   6.257  14.359  1.7837  0.2327  0.3839
16572TIP3   OH271130   1.038   2.133   1.231  0.2253 -0.3003  0.2763
16572TIP3    H171131   1.109   2.198   1.230  0.2286 -0.3083 -0.2557
16572TIP3    H271132   0.984   2.156   1.155  0.1375 -0.8221  0.1766
16573TIP3   OH271133   0.664   2.339   6.234 -0.0703 -0.2262 -0.1553
16573TIP3    H171134   0.655   2.249   6.265  1.5543 -0.3991 -0.0937
16573TIP3    H271135   0.628   2.393   6.304 -1.2604 -0.8088 -0.2847
16574TIP3   OH271136   4.130   3.238  15.652 -0.0479 -0.1532 -0.4949
16574TIP3    H171137   4.088   3.322  15.634 -0.3325  0.2268  1.6848
16574TIP3    H271138   4.217   3.261  15.686 -1.1068 -0.4895  2.8152
16575TIP3   OH271139   3.742   1.418   6.432 -0.5640 -0.0793  0.7306
16575TIP3    H171140   3.821   1.379   6.470 -0.4904  0.3896  1.0774
16575TIP3    H271141   3.774   1.475   6.362 -0.5907  0.1091  0.8697
16576TIP3   OH271142   0.324   4.650   1.130  0.0118  0.4121 -0.1866
16576TIP3    H171143   0.293   4.675   1.217 -0.5266  1.4099 -0.6567
16576TIP3    H271144   0.290   4.718   1.071  2.4693  1.1734 -0.8411
16577TIP3   OH271145   5.880   2.637  10.243 -0.1697 -0.4102 -0.3381
16577TIP3    H171146   5.954   2.696  10.260  0.2158 -0.8379 -0.5101
16577TIP3    H271147   5.896   2.602  10.156 -0.9971  0.0957 -0.7048
16578TIP3   OH271148   5.415   2.309   2.209  0.2504  0.2095 -0.4676
16578TIP3    H171149   5.446   2.218   2.212  2.3444  0.8784  0.1803
16578TIP3    H271150   5.370   2.322   2.292  0.1900 -0.1639 -0.4407
16579TIP3   OH271151   2.570   5.886  16.452 -0.0755  0.8565  0.0629
16579TIP3    H171152   2.524   5.805  16.433  2.6533 -1.1306  1.2348
16579TIP3    H271153   2.556   5.901  16.545 -0.8916  2.0028 -0.2265
16580TIP3   OH271154   6.352   3.532   0.488 -0.4991 -0.4299 -0.0661
16580TIP3    H171155   6.260   3.548   0.468 -0.0670  0.6564 -1.3385
16580TIP3    H271156   6.376   3.456   0.435 -0.9228 -1.4083  1.1090
16581TIP3   OH271157   2.441   4.908   6.248 -0.2932 -0.1945  0.4182
16581TIP3    H171158   2.487   4.917   6.331 -0.8105 -2.9876  1.1318
16581TIP3    H271159   2.367   4.850   6.268 -1.3462  0.3168 -1.6753
16582TIP3   OH271160   0.542   1.036  15.370  0.3356  0.2695  0.1299
16582TIP3    H171161   0.475   1.072  15.428 -0.6664 -0.2050 -0.6871
16582TIP3    H271162   0.536   0.942  15.382  0.3439  0.1853 -0.4937
16583TIP3   OH271163   0.368   4.500  15.950  0.0378  0.4418  0.5178
16583TIP3    H171164   0.443   4.449  15.917  1.2361  1.1985  1.9608
16583TIP3    H271165   0.398   4.591  15.948 -0.7963  0.7441  1.2449
16584TIP3   OH271166   1.119   3.011  13.528  0.5003  0.4188 -0.2991
16584TIP3    H171167   1.201   2.966  13.549 -0.1474 -0.6324  0.0518
16584TIP3    H271168   1.055   2.941  13.520 -0.4882  1.2675 -0.0120
16585TIP3   OH271169   0.300   4.806  16.402  0.2465 -0.1218 -0.0038
16585TIP3    H171170   0.333   4.859  16.475 -0.8187  0.3527  0.1532
16585TIP3    H271171   0.360   4.824  16.330  2.4615 -1.9928  1.1926
16586TIP3   OH271172   6.521   1.075   2.114  0.3627  0.5915 -0.4307
16586TIP3    H171173   6.527   1.101   2.206 -0.7066  0.3810 -0.2875
16586TIP3    H271174   6.427   1.077   2.094  0.5655  0.4920 -1.4795
16587TIP3   OH271175   0.816   4.750  13.584 -0.0139 -0.4842  0.5124
16587TIP3    H171176   0.790   4.759  13.492 -0.2082 -0.0065  0.6130
16587TIP3    H271177   0.894   4.804  13.593 -1.7216  2.0152  1.3411
16588TIP3   OH271178   5.652   6.061  14.938  0.4874 -0.0716  0.2972
16588TIP3    H171179   5.623   5.970  14.936 -0.8996  0.3649 -0.7801
16588TIP3    H271180   5.640   6.088  15.030  0.8002 -0.9295  0.5964
16589TIP3   OH271181   5.177   2.302   0.495  0.3845 -0.3420  0.1462
16589TIP3    H171182   5.230   2.275   0.420 -0.2969 -1.1828 -0.0483
16589TIP3    H271183   5.240   2.312   0.566  1.1126  0.9325 -0.6226
16590TIP3   OH271184   4.685   0.796   0.675  0.0472  0.3261  0.6069
16590TIP3    H171185   4.704   0.718   0.623 -0.2738  0.0030  0.9618
16590TIP3    H271186   4.673   0.866   0.611  0.4480  0.1103  0.2898
16591TIP3   OH271187   2.334   5.088   3.377  0.7626  0.4348 -0.3677
16591TIP3    H171188   2.413   5.102   3.326  0.2711 -0.2077 -1.3383
16591TIP3    H271189   2.262   5.114   3.318  0.1967 -0.1582  0.0463
16592TIP3   OH271190   2.097   3.053  15.286 -0.2268 -0.4235  0.0214
16592TIP3    H171191   2.134   3.126  15.236 -2.3370  0.0097 -1.0377
16592TIP3    H271192   2.017   3.088  15.324 -0.0707 -1.5519  1.4815
16593TIP3   OH271193   2.901   3.571  13.529  0.5048  0.2125  0.1637
16593TIP3    H171194   2.857   3.489  13.550  1.4995 -0.6209 -0.8981
16593TIP3    H271195   2.906   3.618  13.613 -1.5705 -0.0361  0.4825
16594TIP3   OH271196   5.105   4.239   1.767 -0.5018 -0.5399  0.0846
16594TIP3    H171197   5.193   4.204   1.757 -0.6810 -0.7831 -0.6641
16594TIP3    H271198   5.092   4.245   1.862  0.2423 -0.6901  0.1972
16595TIP3   OH271199   6.602   5.141   0.438 -0.2307  0.0595 -0.1386
16595TIP3    H171200   6.671   5.081   0.468  0.2036  1.4307  1.8062
16595TIP3    H271201   6.648   5.220   0.412 -0.9637  0.5089 -0.1118
16596TIP3   OH271202   1.102   4.844  12.711  0.2941  0.2246 -0.3407
16596TIP3    H171203   1.183   4.890  12.732  0.8679 -1.0159  0.2854
16596TIP3    H271204   1.118   4.754  12.738 -1.4663  0.0382  0.2202
16597TIP3   OH271205   3.110   5.015  16.973 -0.0787  0.2152  0.3052
16597TIP3    H171206   3.066   4.960  16.908 -0.0873  1.0675 -0.4177
16597TIP3    H271207   3.108   5.103  16.936  0.7873  0.5477  1.0178
16598TIP3   OH271208   1.593   4.136  13.306  0.0423 -0.7550 -0.6950
16598TIP3    H171209   1.613   4.086  13.227 -1.6582 -1.6958 -0.5928
16598TIP3    H271210   1.562   4.070  13.368  0.7913  0.0471  0.5751
16599TIP3   OH271211   1.586   5.509   5.138  0.0665  0.6057 -0.1562
16599TIP3    H171212   1.643   5.455   5.192  0.6825  1.9290  0.5482
16599TIP3    H271213   1.569   5.587   5.190 -0.2312  1.4257 -1.4302
16600TIP3   OH271214   1.795   5.934   5.904 -0.1794 -0.2655 -0.4416
16600TIP3    H171215   1.745   6.015   5.888  1.7084  1.5136  1.8758
16600TIP3    H271216   1.813   5.936   5.998  2.6830 -1.7080 -0.8704
16601TIP3   OH271217   6.020   6.729  12.070 -0.0839 -0.1091  0.2196
16601TIP3    H171218   6.037   6.806  12.123 -0.4461 -0.8305  1.4405
16601TIP3    H271219   6.106   6.699  12.042  0.0345  0.8987 -0.5152
16602TIP3   OH271220   5.169   0.677  12.940 -0.3996 -0.0120 -0.2048
16602TIP3    H171221   5.102   0.692  12.873 -1.0057 -0.0010  0.3996
16602TIP3    H271222   5.232   0.617  12.898 -1.6992 -1.4506 -0.1929
16603TIP3   OH271223   1.489   0.406   5.728 -0.3001 -0.0613 -0.0585
16603TIP3    H171224   1.541   0.464   5.783  0.6821 -2.5926  1.8839
16603TIP3    H271225   1.401   0.411   5.766 -0.2065  0.0940  0.1431
16604TIP3   OH271226   0.616   2.853   5.135  0.1502 -0.6344 -0.3366
16604TIP3    H171227   0.704   2.858   5.174 -1.5772  1.3865  3.9394
16604TIP3    H271228   0.599   2.759   5.127  2.4195 -1.0799 -0.7414
16605TIP3   OH271229   1.122   2.818   2.953 -0.1216  0.4282 -0.1445
16605TIP3    H171230   1.127   2.912   2.937 -0.1278  0.4056 -0.2854
16605TIP3    H271231   1.051   2.808   3.016 -0.5530  0.4635 -0.6145
16606TIP3   OH271232   5.529   5.628  13.439  0.6772 -0.0260  0.0047
16606TIP3    H171233   5.602   5.647  13.380  0.1548  0.9835 -0.3401
16606TIP3    H271234   5.550   5.542  13.476  1.7923  0.0302 -0.4561
16607TIP3   OH271235   3.643   0.688  13.998 -0.2774 -0.4579 -0.4325
16607TIP3    H171236   3.719   0.720  14.047 -1.0233  0.1993  0.3102
16607TIP3    H271237   3.680   0.622  13.938  0.6448 -1.3396  1.0465
16608TIP3   OH271238   2.563   0.153   0.055  0.1356 -0.3611 -0.0590
16608TIP3    H171239   2.600   0.241   0.054 -1.2050  0.2183 -0.6700
16608TIP3    H271240   2.468   0.167   0.052 -0.1780 -1.7891  1.5665
16609TIP3   OH271241   5.441   1.908  16.583 -0.2334  0.5308 -0.2481
16609TIP3    H171242   5.347   1.890  16.578 -0.2191  0.8351 -2.4041
16609TIP3    H271243   5.454   1.940  16.672 -1.9459 -0.6796  0.5043
16610TIP3   OH271244   5.400   0.775   6.219  0.4561  0.6398 -0.4539
16610TIP3    H171245   5.324   0.752   6.272  0.7347 -0.3820 -0.4611
16610TIP3    H271246   5.381   0.862   6.185 -0.4932  0.5942 -0.0657
16611TIP3   OH271247   2.726   2.784  12.356 -0.4418  0.2767  0.7002
16611TIP3    H171248   2.718   2.717  12.287  0.5142  1.2808 -0.4375
16611TIP3    H271249   2.636   2.803  12.382 -0.7699 -0.8149  0.4187
16612TIP3   OH271250   6.553   6.589   4.751 -0.5522  0.7260 -0.0868
16612TIP3    H171251   6.463   6.617   4.735 -0.4427  0.6764 -0.8512
16612TIP3    H271252   6.597   6.602   4.667 -0.1971 -0.5873 -0.1301
16613TIP3   OH271253   3.251   1.572  15.890 -0.0773  0.2767  0.3623
16613TIP3    H171254   3.168   1.579  15.843  1.2173 -1.4292 -2.4503
16613TIP3    H271255   3.257   1.480  15.915  0.6368  0.5435  1.2377
16614TIP3   OH271256   1.253   1.040  11.821 -0.2617 -0.4960  0.1424
16614TIP3    H171257   1.340   1.073  11.845 -0.4787 -1.3317  2.3534
16614TIP3    H271258   1.270   0.961  11.769  0.4116 -1.7398  2.1221
16615TIP3   OH271259   5.044   4.514  11.055  0.0551  0.2526  0.2642
16615TIP3    H171260   4.984   4.478  10.990 -0.0738  0.2833  0.3639
16615TIP3    H271261   4.997   4.590  11.091  0.7491  1.1558 -0.6843
16616TIP3   OH271262   4.756   1.125  12.906  0.0381  0.1077 -0.0391
16616TIP3    H171263   4.723   1.209  12.875 -0.2670  0.1621  0.4279
16616TIP3    H271264   4.796   1.144  12.990  0.6109 -0.0902 -0.2604
16617TIP3   OH271265   0.285   5.450  12.856  0.0841 -0.5046  0.0775
16617TIP3    H171266   0.250   5.432  12.769  2.1374  1.1530 -1.2173
16617TIP3    H271267   0.303   5.364  12.893 -0.1108 -1.2518 -1.4639
16618TIP3   OH271268   2.507   0.331   2.027 -0.0323 -0.1415 -0.2452
16618TIP3    H171269   2.543   0.244   2.008  1.3181  0.3261  0.0439
16618TIP3    H271270   2.446   0.317   2.099  1.3031 -0.6608  0.8297
16619TIP3   OH271271   4.524   4.861  14.174 -0.0609  0.1350  0.0204
16619TIP3    H171272   4.597   4.834  14.230 -1.6675  2.1079  3.4005
16619TIP3    H271273   4.478   4.780  14.153  1.6339 -0.8631 -0.0731
16620TIP3   OH271274   1.055   2.274   5.067  0.5196 -0.7301 -0.2074
16620TIP3    H171275   1.074   2.285   4.974  0.5641 -0.8710 -0.2159
16620TIP3    H271276   1.098   2.348   5.109  0.6808 -0.7819 -0.2779
16621TIP3   OH271277   2.401   2.235   0.153  0.2612 -0.4405  0.4902
16621TIP3    H171278   2.368   2.278   0.074  1.4795  0.3454  0.3782
16621TIP3    H271279   2.393   2.141   0.135  0.3789 -0.2691 -0.5122
16622TIP3   OH271280   5.748   4.643   0.709  0.4882 -0.1982  0.0325
16622TIP3    H171281   5.786   4.713   0.656  0.9193  0.3803  1.0885
16622TIP3    H271282   5.659   4.632   0.673  1.1788 -0.7298 -1.6447
16623TIP3   OH271283   1.529   0.745   2.928  0.3302 -0.4320  0.2456
16623TIP3    H171284   1.575   0.767   2.847  0.0054 -1.7319 -0.3221
16623TIP3    H271285   1.440   0.775   2.914  0.0273 -1.5102 -0.3055
16624TIP3   OH271286   6.242   4.599   4.464 -0.8151 -0.2247  0.1801
16624TIP3    H171287   6.323   4.635   4.427 -0.6234  0.8490  1.5555
16624TIP3    H271288   6.182   4.593   4.389 -0.4247  1.7889 -0.3515
16625TIP3   OH271289   2.901   6.094  13.171  0.4108  0.2930 -0.2767
16625TIP3    H171290   2.955   6.155  13.222  0.8634 -1.0923  0.9813
16625TIP3    H271291   2.816   6.097  13.214  0.4054  0.1002 -0.2762
16626TIP3   OH271292   4.741   6.603  13.964 -0.0884  0.4496 -0.3571
16626TIP3    H171293   4.710   6.596  14.054 -0.1899  2.9156 -0.1294
16626TIP3    H271294   4.806   6.533  13.955 -0.4839 -0.1818  1.4357
16627TIP3   OH271295   3.879   6.749  14.071 -0.1426 -0.5287  0.0167
16627TIP3    H171296   3.878   6.842  14.049 -0.7464 -0.6556 -0.5179
16627TIP3    H271297   3.931   6.709  14.001 -0.6313 -0.7106 -0.2421
16628TIP3   OH271298   1.219   2.629   5.680 -0.3235 -0.1774  0.6800
16628TIP3    H171299   1.139   2.590   5.643  1.6551 -2.6568 -1.3320
16628TIP3    H271300   1.264   2.556   5.723  0.8449  1.1945  1.8937
16629TIP3   OH271301   0.598   2.684   6.690  0.4413 -0.0438  0.6994
16629TIP3    H171302   0.564   2.754   6.745  1.5725 -0.6083  2.1724
16629TIP3    H271303   0.686   2.712   6.667  0.5915 -0.6023  0.5858
16630TIP3   OH271304   2.694   4.343  13.555  0.0652 -0.0068 -0.1743
16630TIP3    H171305   2.668   4.373  13.642 -0.1088 -0.8168  0.0633
16630TIP3    H271306   2.658   4.254  13.549  1.7237 -0.6958 -0.3181
16631TIP3   OH271307   6.261   0.113  16.659 -0.0495  0.6943 -0.2472
16631TIP3    H171308   6.250   0.019  16.648 -1.0654  0.8133 -0.3033
16631TIP3    H271309   6.205   0.152  16.592 -0.3236  1.3437  0.3455
16632TIP3   OH271310   1.854   4.624   1.457 -0.0059 -1.0518  0.5361
16632TIP3    H171311   1.863   4.546   1.403 -2.1054 -0.4249 -0.8417
16632TIP3    H271312   1.944   4.657   1.466  0.7159 -2.6697 -0.2482
16633TIP3   OH271313   1.458   2.009  14.448 -0.2473  0.0485  0.1449
16633TIP3    H171314   1.427   2.008  14.358  0.7922 -0.1312 -0.2217
16633TIP3    H271315   1.502   2.094  14.457 -0.0115 -0.0968  0.3653
16634TIP3   OH271316   6.053   1.053   4.392  0.0379  0.2162  0.4972
16634TIP3    H171317   6.038   1.142   4.361  0.1655  0.2162  0.4334
16634TIP3    H271318   6.031   1.055   4.485  0.7187  0.4817  0.6514
16635TIP3   OH271319   1.647   5.213   1.918 -0.4272 -0.1456  0.3835
16635TIP3    H171320   1.626   5.181   2.006 -1.4432  0.9774  0.5613
16635TIP3    H271321   1.615   5.303   1.916  0.6798  0.2606 -0.7434
16636TIP3   OH271322   2.302   5.279  13.595 -0.5399 -0.5937  0.3655
16636TIP3    H171323   2.216   5.321  13.598 -0.5458 -0.0377 -3.2238
16636TIP3    H271324   2.363   5.351  13.577  0.0403 -1.4718 -1.3983
16637TIP3   OH271325   5.459   3.833   3.896 -0.5475 -0.7239  0.4248
16637TIP3    H171326   5.428   3.749   3.930 -3.6965 -1.2346 -3.0956
16637TIP3    H271327   5.386   3.893   3.910  0.6327  0.7562  0.4526
16638TIP3   OH271328   2.948   6.705  14.049 -0.3834 -0.1897 -0.4503
16638TIP3    H171329   2.985   6.792  14.031  0.8377 -0.8304 -1.1933
16638TIP3    H271330   2.909   6.713  14.136 -0.4309  1.1393 -0.5648
16639TIP3   OH271331   2.007   6.000   5.143 -0.4754 -0.2199 -0.6741
16639TIP3    H171332   1.925   6.024   5.186 -3.1306 -1.1945 -4.5845
16639TIP3    H271333   2.068   6.070   5.165 -3.0680  1.7896  0.6286
16640TIP3   OH271334   5.779   2.471   5.159 -0.2244 -0.2592 -0.4206
16640TIP3    H171335   5.709   2.502   5.102 -0.5006  0.1784  0.1419
16640TIP3    H271336   5.781   2.376   5.146 -1.4261 -0.3747  0.0998
16641TIP3   OH271337   3.255   1.659   0.590 -0.2933 -0.3250 -0.2042
16641TIP3    H171338   3.317   1.723   0.625  1.3457 -2.0793  0.2966
16641TIP3    H271339   3.291   1.635   0.505 -1.1044 -0.2873 -0.5593
16642TIP3   OH271340   0.417   0.568  13.540 -0.3927  0.0747  0.9642
16642TIP3    H171341   0.506   0.541  13.563  0.6582  2.3274 -0.1671
16642TIP3    H271342   0.410   0.548  13.446  0.1611  2.7263  0.2609
16643TIP3   OH271343   2.462   2.270   2.538  0.1071  0.0097 -0.0640
16643TIP3    H171344   2.406   2.269   2.460  0.3157 -2.0899 -0.2659
16643TIP3    H271345   2.410   2.224   2.605  0.6024  0.2749  0.5075
16644TIP3   OH271346   4.478   0.489   6.248  0.1154 -0.4682  0.2054
16644TIP3    H171347   4.395   0.456   6.283  0.0604 -0.9811 -0.4040
16644TIP3    H271348   4.463   0.500   6.155  0.9708 -1.3568 -0.0594
16645TIP3   OH271349   0.335   0.296  13.660  0.3459 -0.9348 -0.0266
16645TIP3    H171350   0.389   0.369  13.628  1.0194 -1.3808  0.0566
16645TIP3    H271351   0.300   0.256  13.581 -2.1805  1.0184 -0.0113
16646TIP3   OH271352   3.730   5.638   1.155 -0.0298  0.4102  0.0830
16646TIP3    H171353   3.664   5.703   1.179  0.1684 -0.0885  2.1429
16646TIP3    H271354   3.695   5.595   1.077 -0.4951  2.4763 -0.9154
16647TIP3   OH271355   6.503   3.935  12.147 -0.4644 -0.2189  0.3302
16647TIP3    H171356   6.541   3.912  12.231  0.9765  0.7634 -0.0119
16647TIP3    H271357   6.438   3.866  12.130 -1.8210  0.3170  2.8484
16648TIP3   OH271358   1.525   2.088  12.707  0.7294 -0.3475  0.1169
16648TIP3    H171359   1.615   2.069  12.681  0.5561 -0.3062 -0.5515
16648TIP3    H271360   1.490   2.139  12.633  0.3919  0.2919  0.7074
16649TIP3   OH271361   5.088   2.901   5.833 -0.4322 -0.3498  0.0226
16649TIP3    H171362   5.143   2.886   5.910 -0.1594 -1.6073 -0.3946
16649TIP3    H271363   5.058   2.992   5.842  0.5095 -0.1174  1.0215
16650TIP3   OH271364   4.009   4.762  13.402 -0.4879  0.2563 -0.2709
16650TIP3    H171365   4.067   4.836  13.384 -0.5442  0.1685 -0.8287
16650TIP3    H271366   3.924   4.801  13.419 -0.3459  0.3651  0.1952
16651TIP3   OH271367   1.093   5.086  12.978  0.2369 -0.3188  0.3088
16651TIP3    H171368   1.045   5.030  13.039 -2.1320  0.5944 -0.6101
16651TIP3    H271369   1.139   5.149  13.034  0.2894 -1.1391  1.2119
16652TIP3   OH271370   4.917   0.660   1.904 -0.3254  0.1146  0.3365
16652TIP3    H171371   4.847   0.675   1.968  0.1735  0.6919  0.7512
16652TIP3    H271372   4.981   0.607   1.950 -1.0643 -1.5239 -0.4459
16653TIP3   OH271373   4.013   3.757  11.671 -0.0927  0.3768  0.2062
16653TIP3    H171374   4.097   3.711  11.671 -0.5033 -0.6055 -3.1664
16653TIP3    H271375   3.955   3.703  11.617 -2.2627  2.1304  0.6182
16654TIP3   OH271376   4.323   5.810   0.358  0.0874  0.2425  0.1466
16654TIP3    H171377   4.317   5.777   0.448  0.9039 -0.8058 -0.1597
16654TIP3    H271378   4.404   5.862   0.357  1.1345 -1.3340 -0.4330
16655TIP3   OH271379   3.796   6.015   0.250 -0.0962  0.9526  0.2083
16655TIP3    H171380   3.798   6.093   0.306 -0.1633  0.7451  0.4996
16655TIP3    H271381   3.758   6.046   0.168 -0.9322  1.0426  0.6128
16656TIP3   OH271382   1.980   5.672  15.213 -0.0949  0.2423 -0.1984
16656TIP3    H171383   1.990   5.767  15.219  1.4556  0.0226  2.3690
16656TIP3    H271384   1.922   5.650  15.287  1.1344 -0.9511  0.4479
16657TIP3   OH271385   0.908   3.016   4.741  0.3261 -0.2466 -0.2403
16657TIP3    H171386   0.892   3.091   4.798 -1.4951 -1.3876  0.8512
16657TIP3    H271387   0.922   3.055   4.654  1.6418  1.4295  0.6716
16658TIP3   OH271388   6.515   5.742  17.213 -0.3041 -0.2784  0.5028
16658TIP3    H171389   6.490   5.651  17.194 -1.7195  0.1603  0.1655
16658TIP3    H271390   6.467   5.764  17.293  1.6262 -0.4486  1.7865
16659TIP3   OH271391   3.091   0.208  11.683 -0.6547 -0.2117  0.2438
16659TIP3    H171392   3.131   0.147  11.621 -0.0244  1.7084 -1.3417
16659TIP3    H271393   3.158   0.273  11.701 -1.6160  0.5890  1.1105
16660TIP3   OH271394   5.305   3.109  16.535 -0.5511 -0.2785  0.7428
16660TIP3    H171395   5.224   3.141  16.496 -1.4537 -2.6582  0.4678
16660TIP3    H271396   5.366   3.100  16.462  0.0584  1.6421  0.9686
16661TIP3   OH271397   4.493   3.160   0.940  0.0854 -0.0767  0.2343
16661TIP3    H171398   4.435   3.145   1.015 -0.3266  0.5663  0.0537
16661TIP3    H271399   4.565   3.211   0.975  0.5717 -0.8985  0.4651
16662TIP3   OH271400   5.879   5.930  14.069 -0.3019 -0.0412  0.8128
16662TIP3    H171401   5.815   5.860  14.057 -0.4496  0.0266  1.1796
16662TIP3    H271402   5.932   5.928  13.989 -0.7713 -0.0850  0.5001
16663TIP3   OH271403   6.685   3.765  15.426  0.3101 -0.1039 -0.1868
16663TIP3    H171404   6.670   3.802  15.339  0.3529 -0.4021 -0.3214
16663TIP3    H271405   6.735   3.685  15.410 -0.0017 -0.3579  0.0818
16664TIP3   OH271406   0.806   5.916   0.352 -0.6341  0.3140 -0.2153
16664TIP3    H171407   0.758   5.837   0.378  0.5911 -0.0196  1.1735
16664TIP3    H271408   0.787   5.979   0.423  1.5296 -0.0813  0.7759
16665TIP3   OH271409   6.717   2.816  14.106  0.2174  0.1493 -0.0446
16665TIP3    H171410   6.700   2.766  14.026 -1.6490  0.0132  0.3757
16665TIP3    H271411   6.704   2.752  14.177 -1.1644  0.9252  0.4541
16666TIP3   OH271412   6.693   5.847  16.235 -0.1609  1.2132  0.0820
16666TIP3    H171413   6.651   5.915  16.182 -0.8283  1.8356  1.3573
16666TIP3    H271414   6.775   5.828  16.190 -1.1699  0.9450 -1.7483
16667TIP3   OH271415   4.696   6.697  13.660  0.5109  0.4944  0.5712
16667TIP3    H171416   4.787   6.728  13.652  0.7348  0.2660  1.9440
16667TIP3    H271417   4.685   6.680  13.754 -0.8661  0.2327  0.3782
16668TIP3   OH271418   2.834   1.246  16.734  0.0987  0.4934 -0.5535
16668TIP3    H171419   2.749   1.263  16.695 -0.0803 -0.2887 -0.5343
16668TIP3    H271420   2.894   1.307  16.692 -0.2330  0.1717 -1.5019
16669TIP3   OH271421   2.447   4.149   0.897  0.6219 -0.3295 -0.3728
16669TIP3    H171422   2.477   4.234   0.929 -0.2915 -0.0813 -0.1514
16669TIP3    H271423   2.369   4.169   0.845 -1.9907 -1.3138  2.8487
16670TIP3   OH271424   4.582   4.018   0.961 -0.0636  0.0032 -0.0454
16670TIP3    H171425   4.599   4.077   0.888 -1.9496 -0.3089 -0.7896
16670TIP3    H271426   4.664   3.970   0.973  0.6542  0.9128 -1.1364
16671TIP3   OH271427   2.283   5.317   0.220 -0.3062  0.6144 -0.2682
16671TIP3    H171428   2.248   5.405   0.208 -2.1733  0.1091  0.9251
16671TIP3    H271429   2.353   5.327   0.285  0.1808  1.3281 -0.8840
16672TIP3   OH271430   1.465   3.480  16.554 -0.4278  0.2828  0.3857
16672TIP3    H171431   1.520   3.414  16.512 -1.5980  0.0219 -0.8169
16672TIP3    H271432   1.380   3.437  16.564 -0.8607  1.1984  0.7383
16673TIP3   OH271433   4.856   4.637  15.284  0.2763 -1.0689 -0.6133
16673TIP3    H171434   4.875   4.676  15.369 -1.0999 -1.8906  0.1183
16673TIP3    H271435   4.806   4.704  15.237 -0.4712 -1.2286 -0.0771
16674TIP3   OH271436   4.493   0.738  11.394 -0.2762 -0.2719  0.5672
16674TIP3    H171437   4.534   0.727  11.308 -3.5890 -1.5567 -1.0188
16674TIP3    H271438   4.431   0.810  11.382 -1.3374 -0.9777  1.6204
16675TIP3   OH271439   3.532   3.075  13.400  0.2539 -0.3485  0.1208
16675TIP3    H171440   3.574   3.159  13.419  1.9789 -1.6746  2.8524
16675TIP3    H271441   3.512   3.038  13.486 -1.1214 -2.4337 -1.0070
16676TIP3   OH271442   2.788   3.722  13.937 -0.2504 -0.0309  0.0172
16676TIP3    H171443   2.721   3.745  13.871 -0.8649 -2.2736 -0.2300
16676TIP3    H271444   2.864   3.696  13.885  0.2543  0.9024  0.2731
16677TIP3   OH271445   3.033   1.398  16.617 -0.1263  0.3289 -0.7186
16677TIP3    H171446   3.047   1.468  16.553  2.8318 -0.3647 -1.0011
16677TIP3    H271447   3.108   1.403  16.676 -0.2959 -1.9806 -0.1829
16678TIP3   OH271448   3.358   4.220  14.921  0.5674 -0.3862 -0.8692
16678TIP3    H171449   3.448   4.186  14.917 -0.1517 -2.3656 -1.7373
16678TIP3    H271450   3.337   4.220  15.015  1.5765  0.4324 -0.6297
16679TIP3   OH271451   5.049   6.463   6.126  0.0184  0.1619  0.2799
16679TIP3    H171452   5.105   6.424   6.059  1.0423 -0.5893  1.5232
16679TIP3    H271453   5.097   6.542   6.154 -0.3746  0.4417  0.1634
16680TIP3   OH271454   2.954   0.501   3.977 -0.1697 -0.4612 -0.3851
16680TIP3    H171455   3.018   0.544   3.920  3.0431 -0.5158  2.8353
16680TIP3    H271456   2.998   0.424   4.011 -1.7503 -0.3595  2.2708
16681TIP3   OH271457   3.211   1.825  15.603  0.2861 -0.4806  0.4073
16681TIP3    H171458   3.124   1.794  15.626 -0.1191  0.0630 -0.3425
16681TIP3    H271459   3.237   1.879  15.678  0.1779 -1.0094  0.8366
16682TIP3   OH271460   5.703   2.737   5.690 -0.2360 -0.5427 -0.2379
16682TIP3    H171461   5.623   2.721   5.639 -0.3008  1.6986 -0.9061
16682TIP3    H271462   5.683   2.699   5.776 -1.4202 -1.3927 -0.8534
16683TIP3   OH271463   0.643   5.776  11.639 -0.3632  0.2529  0.5410
16683TIP3    H171464   0.703   5.846  11.610 -0.3279  0.2387  0.5788
16683TIP3    H271465   0.646   5.781  11.734  0.8055 -0.7790  0.5818
16684TIP3   OH271466   5.991   5.904   4.491  0.1011  0.0862  0.0922
16684TIP3    H171467   5.911   5.870   4.532  1.0048 -0.0933  1.7736
16684TIP3    H271468   6.060   5.845   4.521  0.8162 -0.1133 -1.7981
16685TIP3   OH271469   3.476   1.246   1.811  0.0793  0.0817 -0.2817
16685TIP3    H171470   3.489   1.277   1.721  0.2170 -0.1030 -0.3271
16685TIP3    H271471   3.525   1.164   1.815  3.8812  2.1614  1.2033
16686TIP3   OH271472   0.759   1.760   1.356  0.0451  0.0486 -0.2814
16686TIP3    H171473   0.840   1.809   1.340  0.7279 -1.3628 -1.3649
16686TIP3    H271474   0.781   1.700   1.427  0.0034 -0.4385 -0.6765
16687TIP3   OH271475   0.694   6.479   1.527  0.0440  0.2656  0.3710
16687TIP3    H171476   0.722   6.390   1.548 -1.2612 -0.0006  1.0752
16687TIP3    H271477   0.775   6.524   1.501  0.9658 -0.6924  1.4720
16688TIP3   OH271478   1.481   1.501   0.703 -0.1523  0.4332 -0.7092
16688TIP3    H171479   1.518   1.508   0.615 -0.0545 -2.0580 -0.9573
16688TIP3    H271480   1.386   1.496   0.688 -0.0868 -0.9557 -0.8107
16689TIP3   OH271481   1.114   5.497   3.403 -0.1865  0.4619 -0.9204
16689TIP3    H171482   1.085   5.587   3.415 -2.1606 -0.1796 -0.4609
16689TIP3    H271483   1.048   5.458   3.345 -0.7297 -1.2865  0.7517
16690TIP3   OH271484   3.445   5.905   5.844  0.4140  0.5570  0.5881
16690TIP3    H171485   3.441   5.984   5.898 -1.1327 -0.4920  2.1033
16690TIP3    H271486   3.371   5.914   5.784  0.6709  0.5868  0.2744
16691TIP3   OH271487   3.482   3.645  13.504 -0.2372  0.1903  0.1618
16691TIP3    H171488   3.568   3.648  13.462  0.7645  1.8083  2.1716
16691TIP3    H271489   3.431   3.714  13.461  0.0901  0.4637  0.2103
16692TIP3   OH271490   4.020   0.382  16.574 -0.2245  0.2624 -0.3991
16692TIP3    H171491   3.999   0.475  16.569 -0.5453  0.2434  0.4458
16692TIP3    H271492   3.948   0.339  16.527  0.1612  0.4588 -1.1882
16693TIP3   OH271493   4.551   4.801  15.374  0.1201  0.2705  0.3072
16693TIP3    H171494   4.532   4.782  15.282  0.3687 -1.4657  0.5835
16693TIP3    H271495   4.619   4.867  15.371  1.1547 -0.7853 -0.8060
16694TIP3   OH271496   5.119   1.137   1.473  0.2428  0.0809 -0.8719
16694TIP3    H171497   5.124   1.109   1.564 -3.2676  0.4346 -0.4195
16694TIP3    H271498   5.183   1.208   1.466  1.4369 -0.7538  0.9536
16695TIP3   OH271499   5.487   2.036   1.190 -0.0048 -0.3842  0.2276
16695TIP3    H171500   5.561   2.024   1.248 -0.3242  1.0709  0.9851
16695TIP3    H271501   5.410   2.015   1.243 -0.4171  2.4931  0.9332
16696TIP3   OH271502   3.368   5.285   1.272  0.2057  0.8667  0.8932
16696TIP3    H171503   3.288   5.273   1.221  0.2889 -2.3619  1.2971
16696TIP3    H271504   3.347   5.250   1.358  1.9770  0.1134  1.0597
16697TIP3   OH271505   2.184   4.528   2.241  0.1440 -0.1738  0.4917
16697TIP3    H171506   2.161   4.455   2.298 -0.5455  1.2772  2.1631
16697TIP3    H271507   2.126   4.599   2.269  0.4166  0.8672 -1.4363
16698TIP3   OH271508   1.121   3.239  17.134 -0.6084  0.4816 -0.0855
16698TIP3    H171509   1.157   3.326  17.150  0.6006  0.1138 -0.6774
16698TIP3    H271510   1.138   3.190  17.215 -1.9205  0.9626  0.5194
16699TIP3   OH271511   1.988   2.735  12.914  0.1692 -0.1759 -0.1444
16699TIP3    H171512   1.936   2.800  12.961  1.4420  0.3314  0.6194
16699TIP3    H271513   2.034   2.785  12.846 -0.6202 -0.6848 -1.0803
16700TIP3   OH271514   1.982   5.828   0.300  0.0301 -0.0143 -0.2301
16700TIP3    H171515   1.890   5.819   0.277  0.2099 -1.1845 -0.5113
16700TIP3    H271516   2.025   5.750   0.265  0.9174 -0.1202  0.9890
16701TIP3   OH271517   2.993   6.607   5.544  0.4723  0.9171  0.5513
16701TIP3    H171518   3.068   6.660   5.570  0.9820  0.4393  0.0619
16701TIP3    H271519   2.981   6.626   5.451 -0.6859  1.8069  0.8561
16702TIP3   OH271520   2.332   1.833   5.632 -0.0345 -0.0205  0.1951
16702TIP3    H171521   2.342   1.850   5.539  0.7939  0.5312  0.3717
16702TIP3    H271522   2.251   1.783   5.639 -0.4371  0.4739 -0.7539
16703TIP3   OH271523   2.301   1.382  15.762 -1.1104 -0.1223 -0.1862
16703TIP3    H171524   2.337   1.431  15.689  1.9418 -1.6198  0.1572
16703TIP3    H271525   2.284   1.294  15.727 -2.4366 -0.0581  0.2301
16704TIP3   OH271526   4.866   3.311   6.572 -0.4118 -0.3246 -0.2336
16704TIP3    H171527   4.877   3.256   6.650  1.8593  0.1926 -0.1053
16704TIP3    H271528   4.849   3.250   6.501  1.2781 -1.1689  0.0493
16705TIP3   OH271529   1.853   4.140  10.832 -0.1985 -0.1565  0.0604
16705TIP3    H171530   1.858   4.047  10.814 -0.1700 -0.0911 -0.2784
16705TIP3    H271531   1.759   4.161  10.825 -0.0011  0.2662 -2.1102
16706TIP3   OH271532   4.037   4.277  13.863 -0.0899  0.0979 -0.2679
16706TIP3    H171533   4.037   4.339  13.790  2.5833  1.2621  0.5789
16706TIP3    H271534   4.021   4.192  13.823  1.9512  0.6129 -2.3888
16707TIP3   OH271535   3.118   4.164  13.033 -0.0146  0.0348 -0.4074
16707TIP3    H171536   3.103   4.070  13.037 -0.3471  0.0329 -1.4773
16707TIP3    H271537   3.100   4.188  12.942 -0.6477  1.2506  0.0139
16708TIP3   OH271538   6.518   6.566   3.958  0.8700  0.1261 -0.1842
16708TIP3    H171539   6.565   6.647   3.937  4.3279 -1.7318 -0.3482
16708TIP3    H271540   6.516   6.563   4.054 -2.4922  1.9491 -0.0415
16709TIP3   OH271541   1.759   5.679  15.958 -0.3556  0.1705 -0.1744
16709TIP3    H171542   1.755   5.740  15.884 -1.7812  0.0062 -0.2484
16709TIP3    H271543   1.798   5.730  16.029  0.6259  0.4567 -0.8909
16710TIP3   OH271544   3.209   1.669   4.748 -0.2406  0.0716 -0.1639
16710TIP3    H171545   3.261   1.589   4.755  0.1300  0.2488 -0.8406
16710TIP3    H271546   3.121   1.642   4.772 -0.1100 -0.5304 -0.3507
16711TIP3   OH271547   5.445   0.880   3.350  0.6971  0.4038 -0.2619
16711TIP3    H171548   5.375   0.927   3.305  0.2029 -0.4312 -0.3863
16711TIP3    H271549   5.515   0.872   3.284  0.6271  0.6059 -0.3619
16712TIP3   OH271550   3.496   0.212  16.377  0.6140  0.4035 -0.1277
16712TIP3    H171551   3.493   0.154  16.302  0.5934 -2.8864  2.2115
16712TIP3    H271552   3.422   0.272  16.365  1.0547  0.4839 -2.9786
16713TIP3   OH271553   6.406   5.100   3.633  0.1141  0.2231  0.3857
16713TIP3    H171554   6.359   5.172   3.591  0.5230  1.8218  2.4863
16713TIP3    H271555   6.368   5.095   3.721  1.2991 -0.9591  0.8600
16714TIP3   OH271556   0.611   1.912   2.623 -0.2470 -0.4433  0.4419
16714TIP3    H171557   0.543   1.899   2.689  1.8680 -1.4306  2.5787
16714TIP3    H271558   0.676   1.968   2.665 -0.3643  1.7789 -2.0653
16715TIP3   OH271559   1.047   6.616  15.169  0.2152 -0.1828 -0.3902
16715TIP3    H171560   1.022   6.692  15.222 -1.1185  0.0373 -1.2763
16715TIP3    H271561   1.136   6.636  15.140  0.0769  0.8153 -0.1839
16716TIP3   OH271562   0.653   3.981   0.111 -0.6143 -0.2793  0.0655
16716TIP3    H171563   0.574   3.956   0.063 -0.0288  0.1678 -1.1616
16716TIP3    H271564   0.664   4.074   0.091 -0.2579 -0.1275  0.9360
16717TIP3   OH271565   5.823   0.587   3.276  0.7648 -0.4778 -0.3477
16717TIP3    H171566   5.914   0.569   3.299  1.0343  0.3598 -0.7182
16717TIP3    H271567   5.821   0.680   3.257 -0.6979  0.0690  2.0626
16718TIP3   OH271568   2.614   1.152  14.195 -0.0510  0.0992  0.1809
16718TIP3    H171569   2.685   1.114  14.143 -0.2883  0.7749 -0.6613
16718TIP3    H271570   2.659   1.208  14.259  0.2057  0.0485  0.0491
16719TIP3   OH271571   3.251   3.126   2.961  0.0736 -0.2583  0.0972
16719TIP3    H171572   3.289   3.043   2.990  1.9101  0.0721 -1.2170
16719TIP3    H271573   3.228   3.172   3.042  2.4499 -0.5115  0.9736
16720TIP3   OH271574   5.946   6.193   6.462 -0.3379  0.3658 -0.6334
16720TIP3    H171575   6.034   6.223   6.483 -0.6433  0.0670  1.2411
16720TIP3    H271576   5.891   6.271   6.468 -0.5325  0.1561  0.3845
16721TIP3   OH271577   6.646   0.948   4.513  0.4316  0.3514 -0.4772
16721TIP3    H171578   6.564   0.996   4.502  1.0236  1.4731 -0.2104
16721TIP3    H271579   6.670   0.922   4.424 -1.8653 -2.9786 -0.2949
16722TIP3   OH271580   0.194   5.369  11.264 -0.3741 -0.3589  0.2612
16722TIP3    H171581   0.245   5.301  11.219  1.1502  0.2290  1.0267
16722TIP3    H271582   0.149   5.323  11.334 -0.5456 -0.8271 -0.1531
16723TIP3   OH271583   4.866   5.805   5.786  0.3159  0.3144 -0.0265
16723TIP3    H171584   4.784   5.831   5.743 -0.6242  0.0651  1.5157
16723TIP3    H271585   4.923   5.881   5.779 -0.4396  0.8745 -0.2023
16724TIP3   OH271586   3.485   0.084   3.112  0.1617 -0.1647  0.2874
16724TIP3    H171587   3.495   0.148   3.183  0.2475  2.6680 -2.0758
16724TIP3    H271588   3.392   0.089   3.089  0.7187  1.5555 -1.9152
16725TIP3   OH271589   4.326   6.146   3.868 -0.0508  0.6055 -0.3265
16725TIP3    H171590   4.378   6.112   3.940  1.2861 -0.3494 -1.6773
16725TIP3    H271591   4.348   6.239   3.864  0.6986  0.4425 -0.1756
16726TIP3   OH271592   2.628   3.532   2.496 -0.1437  0.5763  0.5110
16726TIP3    H171593   2.608   3.553   2.405  0.8789 -0.1755  0.1000
16726TIP3    H271594   2.564   3.582   2.546  0.9319  3.1071 -0.4928
16727TIP3   OH271595   5.432   4.776  16.261  0.0650  0.1794  0.4148
16727TIP3    H171596   5.520   4.776  16.222  0.0019 -2.3933  0.0898
16727TIP3    H271597   5.375   4.807  16.191  0.4836 -0.1167 -0.0656
16728TIP3   OH271598   4.546   0.662   1.728  0.1244  0.2051  0.4769
16728TIP3    H171599   4.591   0.744   1.708  0.2495  0.3540  1.3366
16728TIP3    H271600   4.591   0.596   1.675  0.9575  0.4515  0.8723
16729TIP3   OH271601   0.284   4.060  15.139  0.4614 -0.5405  0.0932
16729TIP3    H171602   0.314   3.971  15.156  0.5392 -0.2479  1.6835
16729TIP3    H271603   0.191   4.051  15.117  0.9117 -1.1610 -1.7015
16730TIP3   OH271604   1.769   0.296  15.842  0.2317  0.4792  0.5274
16730TIP3    H171605   1.700   0.293  15.908 -0.4614  1.2223 -0.1363
16730TIP3    H271606   1.844   0.335  15.887 -0.2798  1.1181  0.8411
16731TIP3   OH271607   1.600   2.154  15.230 -0.1774 -0.1073 -0.3152
16731TIP3    H171608   1.509   2.125  15.226 -0.9221  1.5417  2.1342
16731TIP3    H271609   1.639   2.101  15.299 -0.0475  0.9247  0.4334
16732TIP3   OH271610   5.545   0.154  12.202  0.2562  0.8134  0.3408
16732TIP3    H171611   5.588   0.190  12.124  0.2981  0.4013  0.1680
16732TIP3    H271612   5.566   0.060  12.199  0.4134  0.8255  0.9510
16733TIP3   OH271613   4.200   3.253  13.945  0.8036  0.6530  0.2205
16733TIP3    H171614   4.206   3.327  14.006 -0.0402  0.7315  0.2316
16733TIP3    H271615   4.193   3.176  14.001 -2.1427  0.8811  0.3560
16734TIP3   OH271616   2.133   2.456  12.940 -0.3270  0.0153 -0.1356
16734TIP3    H171617   2.061   2.519  12.939 -1.5924 -1.2782  1.9415
16734TIP3    H271618   2.090   2.371  12.932  1.1652 -0.7058 -0.8575
16735TIP3   OH271619   2.599   0.052   1.254  0.0647  0.1336  0.4936
16735TIP3    H171620   2.550   0.007   1.323 -0.0539 -1.0446 -0.3307
16735TIP3    H271621   2.684   0.071   1.294  0.1095 -0.8099  0.8712
16736TIP3   OH271622   0.759   5.161   1.977  0.4899 -0.2338 -0.6233
16736TIP3    H171623   0.737   5.140   2.067  1.3221  3.6178  0.6321
16736TIP3    H271624   0.674   5.176   1.935  0.1598  1.6546  0.6122
16737TIP3   OH271625   1.841   3.545   5.210  0.0500 -0.3226 -0.8389
16737TIP3    H171626   1.924   3.509   5.178 -0.2768 -0.2424 -1.7944
16737TIP3    H271627   1.819   3.490   5.286  2.5972  1.6522  1.5205
16738TIP3   OH271628   5.963   3.308  14.916 -0.0277  0.0474  0.3711
16738TIP3    H171629   5.970   3.340  14.826 -2.4826 -0.1833  0.0365
16738TIP3    H271630   6.052   3.279  14.938  1.0279  1.7515 -1.3210
16739TIP3   OH271631   2.677   1.117  14.826  0.0454 -0.0661  0.1626
16739TIP3    H171632   2.595   1.144  14.785  1.1893  0.6388 -1.8286
16739TIP3    H271633   2.695   1.031  14.790  1.7045  1.0851 -2.0103
16740TIP3   OH271634   6.226   1.951   3.916  0.0166  0.3556 -0.1409
16740TIP3    H171635   6.287   1.892   3.872  0.4910  0.9701 -0.3315
16740TIP3    H271636   6.198   2.011   3.847 -0.1153  0.6219  0.1419
16741TIP3   OH271637   3.408   2.922   1.181  0.1403 -0.5632 -0.6577
16741TIP3    H171638   3.376   2.838   1.149 -1.2214 -0.3160 -0.0439
16741TIP3    H271639   3.340   2.951   1.243  1.3789  0.2058  0.3937
16742TIP3   OH271640   4.476   1.267   5.079  0.6143  0.7143  0.2985
16742TIP3    H171641   4.460   1.265   5.173  1.4511  0.6326  0.4526
16742TIP3    H271642   4.472   1.176   5.051 -0.0394  0.7787  0.1796
16743TIP3   OH271643   0.421   2.690   3.710  0.3016  0.0231  0.0988
16743TIP3    H171644   0.506   2.733   3.725  0.4848  0.0642 -0.9754
16743TIP3    H271645   0.372   2.706   3.791  0.6394  1.6134  0.0258
16744TIP3   OH271646   5.241   0.798   1.638  0.1019  0.4950  0.2357
16744TIP3    H171647   5.250   0.734   1.567  0.0716  0.1443  0.5473
16744TIP3    H271648   5.151   0.829   1.630  0.0507  0.3430  0.2139
16745TIP3   OH271649   6.061   2.322   4.543 -0.6060  0.5481 -0.4726
16745TIP3    H171650   6.017   2.311   4.458 -0.3322 -2.8752 -0.3170
16745TIP3    H271651   6.094   2.411   4.541 -1.3036  0.8811 -3.6428
16746TIP3   OH271652   6.529   0.024   3.323  0.6031  0.0460 -0.5528
16746TIP3    H171653   6.553   0.098   3.379 -0.5170 -0.7527  1.0474
16746TIP3    H271654   6.448  -0.009   3.361  1.2658 -2.2442 -1.0225
16747TIP3   OH271655   0.672   5.006   5.254  0.2628 -0.1973 -0.2740
16747TIP3    H171656   0.735   4.940   5.226 -1.1444 -2.4361  1.5832
16747TIP3    H271657   0.599   4.998   5.192 -0.8080 -1.9296  1.1098
16748TIP3   OH271658   6.309   1.055   5.266 -0.4066 -0.0557 -0.2975
16748TIP3    H171659   6.327   1.080   5.176  0.9370  0.1887  0.0149
16748TIP3    H271660   6.258   1.128   5.301 -2.1920 -0.7938 -1.2305
16749TIP3   OH271661   4.834   0.751  14.857 -0.0438 -0.0052 -0.0344
16749TIP3    H171662   4.851   0.772  14.765 -2.7109  1.0744 -0.3750
16749TIP3    H271663   4.738   0.747  14.863  0.0862 -2.5661  2.1893
16750TIP3   OH271664   0.015   4.024   5.273  0.1675 -0.2443  0.0453
16750TIP3    H171665   0.096   4.044   5.225 -0.1562  1.3162  0.0880
16750TIP3    H271666  -0.045   3.991   5.206  1.0262 -2.0642  0.1278
16751TIP3   OH271667   3.863   2.747  12.719  0.1725  0.8654 -0.5301
16751TIP3    H171668   3.796   2.684  12.747  0.6958  0.9440  0.9450
16751TIP3    H271669   3.839   2.768  12.629 -1.3154  0.2610 -0.3028
16752TIP3   OH271670   2.405   1.107   2.963  0.0596 -0.3604 -0.7095
16752TIP3    H171671   2.470   1.052   3.006 -0.6164  0.8940  2.1822
16752TIP3    H271672   2.454   1.185   2.936  0.0202  0.0825  0.4321
16753TIP3   OH271673   4.987   6.633  15.027 -0.4699  0.2773 -0.6154
16753TIP3    H171674   5.048   6.572  14.985 -1.3338  0.1041 -1.6597
16753TIP3    H271675   4.989   6.609  15.120  0.6520 -0.0644 -0.7171
16754TIP3   OH271676   6.401   1.495   1.256  0.2954  0.0821  0.0565
16754TIP3    H171677   6.463   1.481   1.185 -0.0561  1.1859 -0.4875
16754TIP3    H271678   6.380   1.588   1.252 -0.4836 -0.0340  0.9925
16755TIP3   OH271679   3.671   5.003  12.039  0.3079 -0.0632 -0.2982
16755TIP3    H171680   3.693   5.092  12.009  0.9252 -0.2248 -0.3297
16755TIP3    H271681   3.737   4.983  12.106  0.0805 -0.4437 -0.1837
16756TIP3   OH271682   2.497   4.669  10.677  0.1771 -0.4160  0.6085
16756TIP3    H171683   2.565   4.729  10.647  0.0328 -1.0152 -1.0224
16756TIP3    H271684   2.423   4.725  10.699  0.5244  0.0977  0.4877
16757TIP3   OH271685   5.593   2.974   0.182 -0.1033 -0.7164 -0.4214
16757TIP3    H171686   5.613   2.910   0.250 -1.3703  0.1429  0.8008
16757TIP3    H271687   5.516   3.020   0.214  1.0069  1.7355 -1.0549
16758TIP3   OH271688   4.512   0.109  15.379  0.3027  0.0013  0.1604
16758TIP3    H171689   4.469   0.165  15.443 -0.8438 -0.1172 -0.4707
16758TIP3    H271690   4.470   0.131  15.296  1.7098  0.1113 -0.5575
16759TIP3   OH271691   1.533   1.422   5.043  0.7151 -0.1646  0.5149
16759TIP3    H171692   1.485   1.480   4.984  0.5333 -0.3164  0.5124
16759TIP3    H271693   1.562   1.349   4.987  1.4237  0.1971  0.3983
16760TIP3   OH271694   5.030   4.454  12.079 -0.1927  0.3452 -0.2395
16760TIP3    H171695   5.075   4.424  12.158 -0.9332 -0.9563 -0.2885
16760TIP3    H271696   4.948   4.405  12.078 -1.0552  1.7341 -0.8340
16761TIP3   OH271697   1.024   0.192  14.635 -0.2237  0.2750  0.0701
16761TIP3    H171698   0.997   0.266  14.581  0.7125 -0.5681 -1.6130
16761TIP3    H271699   1.118   0.204  14.648 -0.4648  0.6046  1.8099
16762TIP3   OH271700   0.053   3.597  12.010  0.4148 -0.2354  0.2465
16762TIP3    H171701   0.116   3.666  12.033  0.1216  0.4506 -0.9032
16762TIP3    H271702   0.021   3.565  12.094  0.1330  1.4393  0.8183
16763TIP3   OH271703   1.044   1.102   1.438 -0.6245  0.8339 -0.3715
16763TIP3    H171704   1.118   1.094   1.379 -0.5331 -1.4738 -0.0487
16763TIP3    H271705   1.077   1.154   1.512  0.5548  0.1879 -0.4242
16764TIP3   OH271706   0.055   5.737  12.619 -0.0645  0.5401 -0.3805
16764TIP3    H171707   0.065   5.654  12.572 -1.6366  0.4673 -0.6317
16764TIP3    H271708   0.047   5.803  12.551  2.3905  1.1349 -0.1999
16765TIP3   OH271709   1.970   0.437  11.399  0.2440  0.9408  0.1518
16765TIP3    H171710   1.879   0.409  11.410  0.4333  0.5719  0.8266
16765TIP3    H271711   2.008   0.430  11.486  0.7669  1.6679 -0.0063
16766TIP3   OH271712   1.851   0.402  12.261  0.1300 -0.3063 -0.3686
16766TIP3    H171713   1.946   0.396  12.266  0.4017  1.9213 -1.4544
16766TIP3    H271714   1.835   0.469  12.194 -2.1879 -0.0479  0.3607
16767TIP3   OH271715   3.730   4.030  13.242 -0.8390  0.1067  0.2142
16767TIP3    H171716   3.647   4.055  13.284  0.0960  0.4692  1.9370
16767TIP3    H271717   3.703   3.988  13.160 -2.5994  3.4080 -1.0659
16768TIP3   OH271718   4.396   1.434  13.575 -0.5726  0.1074  0.1827
16768TIP3    H171719   4.378   1.515  13.526 -0.0853  0.5139  0.6652
16768TIP3    H271720   4.390   1.460  13.667 -1.2775 -0.6121  0.3439
16769TIP3   OH271721   2.815   3.322  13.632  0.9329  0.2278  0.3900
16769TIP3    H171722   2.904   3.296  13.657  0.8145  1.3539  2.1644
16769TIP3    H271723   2.765   3.240  13.635  1.6846 -0.2400  0.4674
16770TIP3   OH271724   3.952   4.986   3.394  0.1345 -0.0952 -0.2566
16770TIP3    H171725   3.865   5.014   3.366  0.4681  0.6535 -0.5795
16770TIP3    H271726   3.938   4.943   3.478 -0.8554 -2.0574 -1.3482
16771TIP3   OH271727   3.238   2.162  10.016 -0.3502 -0.4760 -0.6735
16771TIP3    H171728   3.281   2.084  10.050  0.6587 -0.5041 -1.9179
16771TIP3    H271729   3.195   2.201  10.092  0.8253 -1.1484  0.3760
16772TIP3   OH271730   5.970   2.377  14.501 -0.4922  0.2350  0.6710
16772TIP3    H171731   6.044   2.361  14.441 -0.5637  1.5959  0.1642
16772TIP3    H271732   5.900   2.408  14.444 -2.4267 -3.4738  0.7720
16773TIP3   OH271733   1.015   1.733   4.225 -1.0225  0.7956  0.5583
16773TIP3    H171734   0.996   1.648   4.264  0.0780 -0.4660 -1.4497
16773TIP3    H271735   0.929   1.769   4.203 -1.5365 -1.6682 -2.1293
16774TIP3   OH271736   0.452   3.608  13.818  0.2937  0.4568 -0.4366
16774TIP3    H171737   0.429   3.586  13.727 -1.3866  1.3133 -0.2512
16774TIP3    H271738   0.514   3.681  13.809 -1.3183  1.8349 -0.9180
16775TIP3   OH271739   6.474   6.751   5.112  0.0391 -0.5368 -0.1890
16775TIP3    H171740   6.568   6.749   5.098  0.4084  0.1040  1.8555
16775TIP3    H271741   6.439   6.689   5.048  1.5551  0.9890 -2.6677
16776TIP3   OH271742   4.323   0.375   1.159  0.2950  0.3062  1.0676
16776TIP3    H171743   4.352   0.466   1.149 -2.4301  1.0397 -1.5958
16776TIP3    H271744   4.362   0.329   1.084 -0.4567 -0.0708  0.8965
16777TIP3   OH271745   0.828   1.640   0.939  0.4009 -0.2913  0.8170
16777TIP3    H171746   0.892   1.639   1.009  1.0962  2.3528  0.3494
16777TIP3    H271747   0.745   1.660   0.982  0.6468  0.3391  1.0071
16778TIP3   OH271748   0.877   3.904   0.219 -0.1650 -0.2897  0.1800
16778TIP3    H171749   0.941   3.882   0.151  0.4550 -1.4714  1.1060
16778TIP3    H271750   0.792   3.889   0.178  0.1593  0.2333 -0.7146
16779TIP3   OH271751   0.760   5.393  12.097  0.3208 -0.6443  0.1724
16779TIP3    H171752   0.786   5.314  12.051  3.0842  1.7428 -2.7810
16779TIP3    H271753   0.679   5.421  12.054 -0.7755 -1.8519  1.3591
16780TIP3   OH271754   4.042   6.710  11.337  0.3945 -0.6789  0.0586
16780TIP3    H171755   4.088   6.787  11.305  0.1046 -0.2650  0.6260
16780TIP3    H271756   4.099   6.674  11.404 -0.9135  0.9511  2.1847
16781TIP3   OH271757   6.122   5.771  16.805  0.4198  0.5625 -0.0048
16781TIP3    H171758   6.081   5.855  16.788  1.5913  0.7794 -2.1786
16781TIP3    H271759   6.135   5.769  16.900 -1.0645  2.1022  0.2737
16782TIP3   OH271760   3.434   4.645   0.119 -0.3179  0.3354  0.4777
16782TIP3    H171761   3.474   4.585   0.056  0.8976  0.6034  0.9573
16782TIP3    H271762   3.375   4.699   0.067 -0.0486 -0.0749 -0.2712
16783TIP3   OH271763   4.048   0.669  15.959  0.4970 -0.2922  0.0157
16783TIP3    H171764   4.138   0.699  15.962 -0.2310  2.5068 -2.0425
16783TIP3    H271765   4.036   0.638  15.869 -0.7045 -0.2020  0.1307
16784TIP3   OH271766   3.645   1.038  13.679 -0.0027  1.0022  0.0266
16784TIP3    H171767   3.583   1.065  13.611  0.7161 -0.7538 -1.4034
16784TIP3    H271768   3.723   1.090  13.661  0.1459  0.6266 -0.4557
16785TIP3   OH271769   5.498   0.120  14.595 -0.3910 -0.2344  0.1402
16785TIP3    H171770   5.546   0.052  14.643 -1.2573  1.0893  3.1781
16785TIP3    H271771   5.420   0.136  14.649 -0.7108  2.4304 -0.9753
16786TIP3   OH271772   6.686   4.008   1.074  0.4669  0.1641 -0.0624
16786TIP3    H171773   6.780   4.005   1.062  0.4364  0.3118 -0.3220
16786TIP3    H271774   6.652   4.051   0.996  0.0292 -1.4437 -0.8057
16787TIP3   OH271775   4.090   5.442   2.806  0.1745 -0.2702 -0.0032
16787TIP3    H171776   4.135   5.458   2.723  0.2430 -2.3010 -0.3992
16787TIP3    H271777   4.150   5.477   2.872  1.1162 -0.5201 -0.6949
16788TIP3   OH271778   4.427   1.363  11.318 -0.1235 -0.2662 -0.0235
16788TIP3    H171779   4.350   1.418  11.333 -0.7234 -0.9002 -0.6757
16788TIP3    H271780   4.402   1.306  11.245  0.4731 -1.3927  0.6109
16789TIP3   OH271781   3.202   4.810   0.534  0.2785 -0.7017 -0.5119
16789TIP3    H171782   3.266   4.785   0.468 -0.5541 -2.6799 -0.6460
16789TIP3    H271783   3.123   4.831   0.485 -0.5124 -2.6980 -0.2157
16790TIP3   OH271784   4.758   6.197  11.703 -0.4051 -0.1044 -0.4402
16790TIP3    H171785   4.784   6.205  11.611  1.2459 -2.9483 -0.3673
16790TIP3    H271786   4.820   6.252  11.751 -0.0228 -0.1208 -0.9106
16791TIP3   OH271787   3.269   0.695  16.086  0.4149  0.1944 -0.4387
16791TIP3    H171788   3.271   0.670  16.178  1.3279  0.4881 -0.3676
16791TIP3    H271789   3.310   0.782  16.084 -1.0170  0.8853 -0.9198
16792TIP3   OH271790   5.351   4.223  16.702  0.4721  0.2183  0.3424
16792TIP3    H171791   5.446   4.232  16.712  0.5822  0.1686 -0.5134
16792TIP3    H271792   5.328   4.290  16.637  0.2021 -0.9380 -0.7848
16793TIP3   OH271793   6.685   1.620   3.550  0.1227  0.3285 -0.4810
16793TIP3    H171794   6.644   1.591   3.631  0.1417 -0.1722 -0.6429
16793TIP3    H271795   6.761   1.670   3.577 -0.0352  0.4105 -0.1889
16794TIP3   OH271796   4.411   6.706   0.617 -0.2650 -0.4266  0.3341
16794TIP3    H171797   4.375   6.632   0.568 -1.3915 -0.0229  0.5193
16794TIP3    H271798   4.483   6.669   0.668 -1.8958 -1.7802  1.7525
16795TIP3   OH271799   0.388   2.850   0.821  0.2734  0.2229 -0.3162
16795TIP3    H171800   0.309   2.812   0.783 -0.6449  1.3427  0.4076
16795TIP3    H271801   0.389   2.940   0.789  0.2682  0.7513  1.0819
16796TIP3   OH271802   3.549   3.010  12.745 -0.0677 -0.8109 -0.0832
16796TIP3    H171803   3.494   2.933  12.755  0.3336 -1.1165 -0.2034
16796TIP3    H271804   3.516   3.072  12.810 -3.1825  0.5810 -2.7566
16797TIP3   OH271805   2.456   2.466  14.457  0.4185 -0.4477 -0.4207
16797TIP3    H171806   2.442   2.380  14.418 -0.0917 -0.0113 -1.2235
16797TIP3    H271807   2.551   2.475  14.462  0.5476 -2.1615  2.2016
16798TIP3   OH271808   4.842   2.813  14.117  0.0922  0.5745  0.3799
16798TIP3    H171809   4.755   2.782  14.090  0.0389  0.3771  0.7591
16798TIP3    H271810   4.847   2.902  14.084 -0.6155  0.9029  1.1027
16799TIP3   OH271811   2.270   1.243  13.355 -0.7933  0.3432  0.2273
16799TIP3    H171812   2.361   1.272  13.369 -0.5143  0.3719 -1.4137
16799TIP3    H271813   2.275   1.188  13.277 -2.2217  0.4546  0.0415
16800TIP3   OH271814   1.828   1.232  15.909  0.5780  0.2848  0.1709
16800TIP3    H171815   1.872   1.312  15.938  1.8826 -0.1633 -0.5228
16800TIP3    H271816   1.782   1.259  15.829  0.9019  0.3709  0.0129
16801TIP3   OH271817   4.878   4.750  11.122  0.0854  0.1371  0.2431
16801TIP3    H171818   4.906   4.738  11.213 -1.3635 -0.1987  0.6838
16801TIP3    H271819   4.782   4.753  11.128  0.0130  1.8425 -1.0806
16802TIP3   OH271820   6.559   4.169  16.948  0.0124  0.9469  1.0831
16802TIP3    H171821   6.633   4.123  16.909 -1.1567  1.1337 -1.5678
16802TIP3    H271822   6.487   4.107  16.946 -0.8680  1.9492  0.0120
16803TIP3   OH271823   6.292   6.330  16.151  0.7749  0.0006 -0.1829
16803TIP3    H171824   6.297   6.349  16.058 -0.3345  0.1467 -0.2190
16803TIP3    H271825   6.212   6.279  16.162  1.3346 -0.7647  0.5725
16804TIP3   OH271826   0.625   6.129   0.780 -0.0801  0.4960 -0.2007
16804TIP3    H171827   0.624   6.045   0.827 -0.3952  0.9213  0.5698
16804TIP3    H271828   0.701   6.176   0.816  0.3051  0.4086 -0.8835
16805TIP3   OH271829   4.012   0.835  12.704 -0.0574 -0.3649 -0.2517
16805TIP3    H171830   3.947   0.878  12.760 -1.2912 -2.6774  0.1832
16805TIP3    H271831   3.966   0.818  12.623  0.5955 -0.3761 -0.6246
16806TIP3   OH271832   5.532   5.249  11.425  0.4431 -0.1770  0.4878
16806TIP3    H171833   5.593   5.179  11.450  1.0653  0.5240  0.9837
16806TIP3    H271834   5.570   5.286  11.345  0.5401  0.0976  0.6588
16807TIP3   OH271835   4.729   3.746   2.574  0.2367 -0.3710 -0.0789
16807TIP3    H171836   4.730   3.828   2.623 -0.1136 -1.5344  1.9636
16807TIP3    H271837   4.672   3.764   2.499  0.9756  1.5347 -0.2483
16808TIP3   OH271838   0.913   4.786  11.426  0.7887  0.1136 -0.2688
16808TIP3    H171839   0.943   4.836  11.502  0.0204 -1.0202  0.8116
16808TIP3    H271840   0.979   4.718  11.415  1.4607  0.9050 -1.3020
16809TIP3   OH271841   5.307   0.890   1.890  0.1044 -0.9912 -0.6325
16809TIP3    H171842   5.281   0.854   1.805 -2.4265  1.0324 -0.8289
16809TIP3    H271843   5.226   0.897   1.940  1.5212 -2.1770  2.0601
16810TIP3   OH271844   6.774   3.639  15.014  0.0019 -0.4521  0.6395
16810TIP3    H171845   6.700   3.594  15.056  1.2162 -0.5860  2.7647
16810TIP3    H271846   6.767   3.615  14.921 -2.1122 -1.1399  0.9281
16811TIP3   OH271847   0.985   1.640  11.566 -0.5178 -0.6957 -0.6091
16811TIP3    H171848   1.078   1.635  11.584 -0.7101  0.2460  0.8002
16811TIP3    H271849   0.951   1.554  11.590 -0.3415 -0.3117  1.1446
16812TIP3   OH271850   4.216   5.884  12.619  0.0124 -0.0365  0.0178
16812TIP3    H171851   4.268   5.860  12.542  0.9096  0.2789  0.5060
16812TIP3    H271852   4.146   5.819  12.622 -0.4911  0.3939 -1.4899
16813TIP3   OH271853   1.066   4.379  13.898  0.1552 -0.2181  0.4382
16813TIP3    H171854   0.972   4.360  13.896  0.0157  0.4943 -0.7035
16813TIP3    H271855   1.108   4.293  13.901 -0.5196 -0.5402  1.5544
16814TIP3   OH271856   5.858   2.999  12.981  0.0245  0.4499 -0.1237
16814TIP3    H171857   5.949   2.990  12.953 -0.2695 -0.7180 -0.7438
16814TIP3    H271858   5.832   2.911  13.008 -1.4113  0.4078 -1.4974
16815TIP3   OH271859   5.926   4.761   2.329  0.1923 -0.1314 -0.3002
16815TIP3    H171860   5.991   4.761   2.259  1.0953 -2.2259  0.4564
16815TIP3    H271861   5.925   4.671   2.361 -0.0396  0.7608  2.5004
16816TIP3   OH271862   6.447   4.919   0.246  0.3811 -0.3680  0.2925
16816TIP3    H171863   6.378   4.855   0.230 -0.7417  0.2500  2.3067
16816TIP3    H271864   6.523   4.867   0.273 -0.3730 -0.9008  1.4570
16817TIP3   OH271865   5.841   4.223  11.525 -0.2342  0.0296  0.2289
16817TIP3    H171866   5.791   4.286  11.576  0.6095  0.6090  0.3624
16817TIP3    H271867   5.906   4.189  11.586  0.9346  0.8945 -0.4823
16818TIP3   OH271868   6.741   4.344   5.983 -0.0130  0.2436 -0.2262
16818TIP3    H171869   6.774   4.356   6.072  0.1265  0.8759 -0.3583
16818TIP3    H271870   6.785   4.412   5.931  0.1693 -0.3391 -0.8471
16819TIP3   OH271871   4.832   6.102   0.970  0.0501  0.1572 -0.7046
16819TIP3    H171872   4.853   6.010   0.954  0.4672  0.1022  0.1049
16819TIP3    H271873   4.840   6.112   1.065  1.8903  1.4799 -0.9428
16820TIP3   OH271874   3.329   1.576  13.821 -0.0137 -0.0917 -0.0485
16820TIP3    H171875   3.237   1.572  13.794 -0.3777  2.1272  0.6430
16820TIP3    H271876   3.342   1.497  13.874 -1.8643  0.1142  0.7894
16821TIP3   OH271877   2.804   3.116  13.335 -0.4989  0.0219 -0.0766
16821TIP3    H171878   2.897   3.114  13.358 -0.4143 -1.7174 -0.3725
16821TIP3    H271879   2.762   3.061  13.401 -1.1057 -0.3291 -0.7395
16822TIP3   OH271880   4.153   5.543  13.279 -0.2974 -0.3687  0.2368
16822TIP3    H171881   4.182   5.535  13.188  1.6057 -0.9924  0.8752
16822TIP3    H271882   4.174   5.633  13.303  2.2945 -1.1245  1.0422
16823TIP3   OH271883   6.715   4.068   5.880 -0.1453  0.2194 -0.6335
16823TIP3    H171884   6.715   4.021   5.963 -0.6460 -0.5938 -1.0855
16823TIP3    H271885   6.728   4.160   5.904  0.4041 -0.0971  0.2881
16824TIP3   OH271886   5.260   5.123  12.002 -0.5998  0.0245  0.3933
16824TIP3    H171887   5.323   5.069  12.051 -1.1754 -1.1175 -0.0824
16824TIP3    H271888   5.301   5.137  11.917 -1.1909 -1.1783 -0.1106
16825TIP3   OH271889   5.780   4.701  16.578  0.2991 -0.0369 -0.6268
16825TIP3    H171890   5.862   4.676  16.535  0.5414 -0.2135 -0.0643
16825TIP3    H271891   5.761   4.789  16.544 -0.1506 -0.6380 -2.0222
16826TIP3   OH271892   1.594   2.863   3.217 -0.8374 -0.4985 -0.3659
16826TIP3    H171893   1.640   2.840   3.137 -1.9819 -0.8729 -0.9354
16826TIP3    H271894   1.594   2.959   3.218  0.6519 -0.4860  0.0753
16827TIP3   OH271895   6.132   1.452  14.108  0.4223 -0.2609  0.8050
16827TIP3    H171896   6.174   1.392  14.047 -1.1373 -0.5837  0.0069
16827TIP3    H271897   6.038   1.440  14.094  0.0298  0.4062  2.5546
16828TIP3   OH271898   1.670   4.756   5.868 -0.2598 -0.0183  0.1193
16828TIP3    H171899   1.685   4.850   5.876  0.6133 -0.1528  0.1680
16828TIP3    H271900   1.650   4.742   5.775 -0.6438  0.2464  0.1621
16829TIP3   OH271901   4.278   4.664  13.783 -0.1879 -0.6504 -0.4414
16829TIP3    H171902   4.296   4.571  13.772 -0.6046 -0.8429  0.4244
16829TIP3    H271903   4.331   4.707  13.716  2.0623 -1.3231  0.8181
16830TIP3   OH271904   3.816   0.286  14.930 -0.1219 -0.3473  0.1664
16830TIP3    H171905   3.848   0.376  14.929  2.0508 -1.0673 -0.6398
16830TIP3    H271906   3.857   0.247  15.008 -0.2655 -0.8856 -0.0239
16831TIP3   OH271907   5.713   5.558   2.166  0.5368  0.2273  0.5020
16831TIP3    H171908   5.676   5.473   2.142  0.3449  0.2122  0.8432
16831TIP3    H271909   5.806   5.552   2.143  0.6257 -0.2451  0.9612
16832TIP3   OH271910   1.325   3.802  14.244 -0.2052 -0.3865 -0.8323
16832TIP3    H171911   1.239   3.762  14.253  0.1007 -1.5462 -2.5311
16832TIP3    H271912   1.387   3.729  14.249  0.7713  0.4837  0.9126
16833TIP3   OH271913   0.299   4.257   2.831  0.0612 -0.3696  0.0177
16833TIP3    H171914   0.334   4.264   2.742  1.6876 -1.4977  0.5294
16833TIP3    H271915   0.295   4.163   2.849  0.8895 -0.1439  1.5530
16834TIP3   OH271916   2.021   6.441   2.861 -0.6079 -0.0755  0.0615
16834TIP3    H171917   1.926   6.433   2.873 -0.5433  0.5848  1.2774
16834TIP3    H271918   2.044   6.522   2.907  0.5294 -0.1476 -0.3367
16835TIP3   OH271919   4.952   0.801   1.298  0.3279 -0.1479  0.0550
16835TIP3    H171920   4.945   0.885   1.344 -0.2494 -0.2043  0.0757
16835TIP3    H271921   4.983   0.740   1.364 -0.5934 -0.2499  0.4102
16836TIP3   OH271922   6.328   1.251   0.651  0.4527 -0.3945 -0.8352
16836TIP3    H171923   6.345   1.291   0.565 -1.3746  1.1371 -0.5483
16836TIP3    H271924   6.410   1.264   0.699  1.0025  0.0960 -1.8509
16837TIP3   OH271925   1.149   5.691  16.075 -0.2019  0.4545 -0.2413
16837TIP3    H171926   1.094   5.641  16.014 -1.3119  1.4488 -0.0997
16837TIP3    H271927   1.165   5.631  16.148  0.0388 -0.3021 -0.8976
16838TIP3   OH271928   2.996   4.911   6.333 -0.0713  0.0585 -0.0238
16838TIP3    H171929   2.932   4.860   6.384 -0.8927  0.4198 -0.6675
16838TIP3    H271930   3.023   4.981   6.391 -0.0663 -0.2449  0.3457
16839TIP3   OH271931   5.757   2.264  15.463  0.7017  0.0614 -0.4179
16839TIP3    H171932   5.713   2.208  15.400 -0.1171 -1.0199  1.0408
16839TIP3    H271933   5.686   2.302  15.515  1.3780  0.3421  0.3168
16840TIP3   OH271934   2.420   0.688   2.279 -0.5068 -0.5403 -0.5312
16840TIP3    H171935   2.475   0.610   2.289  0.9566  0.4914 -0.1640
16840TIP3    H271936   2.481   0.757   2.250 -1.7053  0.5291 -0.5868
16841TIP3   OH271937   1.657   1.114   5.584  0.0797 -0.1231  0.0340
16841TIP3    H171938   1.610   1.090   5.504 -0.6583  2.2327 -0.3260
16841TIP3    H271939   1.700   1.034   5.612  0.2752 -1.0625 -2.6630
16842TIP3   OH271940   2.177   5.233   4.361 -0.2049  0.5132  0.2399
16842TIP3    H171941   2.145   5.205   4.275 -0.4934  0.2396  0.4323
16842TIP3    H271942   2.097   5.250   4.411 -0.0362  1.6335  0.1501
16843TIP3   OH271943   1.011   2.082   3.240  0.2272  0.2017  0.8438
16843TIP3    H171944   0.947   2.094   3.170  1.6871  2.2340 -0.2084
16843TIP3    H271945   1.086   2.040   3.198  1.1997  1.6243  1.0789
16844TIP3   OH271946   2.245   6.260  12.208 -0.1508  0.0506 -0.0683
16844TIP3    H171947   2.305   6.295  12.273 -2.9488  0.3276  2.5601
16844TIP3    H271948   2.201   6.337  12.172 -0.5181 -0.2769 -0.3254
16845TIP3   OH271949   4.184   2.844  11.249 -0.3856  0.4664 -0.6974
16845TIP3    H171950   4.199   2.932  11.216 -0.3574  0.4828 -0.6417
16845TIP3    H271951   4.270   2.817  11.283 -0.9616  1.4340  1.7466
16846TIP3   OH271952   0.964   1.866   0.473 -0.0961 -0.0745 -0.1935
16846TIP3    H171953   1.059   1.876   0.484 -0.2390  0.2212  0.8013
16846TIP3    H271954   0.935   1.823   0.553 -0.7826 -0.3708 -0.5940
16847TIP3   OH271955   6.097   4.175  17.130 -0.1093  0.0881 -0.3015
16847TIP3    H171956   6.188   4.201  17.142 -0.4177  1.1240 -0.0929
16847TIP3    H271957   6.067   4.226  17.054 -0.9491  0.9839  0.5924
16848TIP3   OH271958   1.744   5.966  14.460  0.0828  0.3975 -0.0696
16848TIP3    H171959   1.699   5.942  14.379  0.3456 -0.6872  0.0800
16848TIP3    H271960   1.741   6.061  14.463 -0.4775  0.4185 -1.0402
16849TIP3   OH271961   0.161   2.439  17.247  0.1853 -0.2248  0.0128
16849TIP3    H171962   0.143   2.528  17.278 -0.1573 -0.6816  1.1822
16849TIP3    H271963   0.242   2.447  17.196  0.1543  0.7601  0.1044
16850TIP3   OH271964   0.903   0.622  12.881  0.4761  0.5009  0.0131
16850TIP3    H171965   0.890   0.543  12.828  0.4209  0.3876  0.1919
16850TIP3    H271966   0.927   0.690  12.818  0.2475  0.4088 -0.1775
16851TIP3   OH271967   3.821   4.487   0.123  0.1975  0.1494 -0.1307
16851TIP3    H171968   3.857   4.501   0.210  0.7014 -0.7274 -0.1897
16851TIP3    H271969   3.779   4.401   0.127  3.0936 -1.4797 -1.6231
16852TIP3   OH271970   5.581   0.205  11.025 -0.4303  0.3635  0.2492
16852TIP3    H171971   5.540   0.118  11.026 -0.5315  0.4110  0.3254
16852TIP3    H271972   5.674   0.188  11.041 -0.2083  0.1515 -1.1664
16853TIP3   OH271973   4.927   1.559   4.232 -0.2265 -0.2592  0.6958
16853TIP3    H171974   4.985   1.624   4.194 -2.0117  1.8178  1.2689
16853TIP3    H271975   4.974   1.525   4.308  0.3839  1.1492  0.9738
16854TIP3   OH271976   1.443   2.894   5.892  0.3325  0.4309  0.0937
16854TIP3    H171977   1.503   2.913   5.963 -0.5924 -0.9350  1.3040
16854TIP3    H271978   1.364   2.944   5.913 -0.2020 -0.5276  0.4586
16855TIP3   OH271979   6.084   0.636   2.816 -0.3604 -0.0609 -0.6964
16855TIP3    H171980   6.064   0.661   2.906  2.0686 -1.1511  0.2413
16855TIP3    H271981   6.133   0.554   2.824 -1.5142 -1.1125 -3.1574
16856TIP3   OH271982   3.480   2.860  13.831 -0.6479 -0.4959 -0.2296
16856TIP3    H171983   3.538   2.929  13.799  1.5359 -2.4104 -0.6829
16856TIP3    H271984   3.503   2.850  13.923 -0.5811 -0.9462 -0.2927
16857TIP3   OH271985   3.787   2.585   3.219 -0.2070 -0.4820  0.5402
16857TIP3    H171986   3.815   2.507   3.267  0.0588  0.0404  1.2564
16857TIP3    H271987   3.840   2.656   3.255 -0.2008 -0.0271 -0.3459
16858TIP3   OH271988   3.126   0.531  17.000  0.8831 -0.4573 -0.1137
16858TIP3    H171989   3.114   0.551  16.907  1.6223  0.3200 -0.0519
16858TIP3    H271990   3.221   0.534  17.013  0.8116 -0.9967  0.5795
16859TIP3   OH271991   5.366   0.516  10.861 -0.6080 -0.0379 -0.6493
16859TIP3    H171992   5.402   0.438  10.819 -3.1409 -1.0863 -1.0496
16859TIP3    H271993   5.370   0.584  10.794 -0.0566 -0.3354 -0.9214
16860TIP3   OH271994   6.250   2.028  14.730 -0.0136  0.4807  0.5085
16860TIP3    H171995   6.180   2.092  14.718 -0.9208 -0.6808 -0.7499
16860TIP3    H271996   6.233   1.961  14.664  1.5036 -0.5389  1.0874
16861TIP3   OH271997   6.082   1.043  13.240  0.3338 -0.5072 -0.0016
16861TIP3    H171998   6.109   1.021  13.329 -0.8180  1.3990  0.8843
16861TIP3    H271999   5.987   1.056  13.247  0.4174  0.9567 -1.2113
16862TIP3   OH272000   0.605   3.963   2.207  0.1777 -0.3753  0.1978
16862TIP3    H172001   0.585   3.938   2.117 -1.1891  1.3252 -0.0247
16862TIP3    H272002   0.628   3.881   2.251  0.0317 -1.3458 -1.4755
16863TIP3   OH272003   4.390   1.899   4.346  0.1604  0.0589 -0.5144
16863TIP3    H172004   4.353   1.893   4.434  2.0685 -0.2439  0.3298
16863TIP3    H272005   4.322   1.941   4.294 -2.2722 -2.5450  0.3312
16864TIP3   OH272006   2.713   5.410  14.563 -0.1917 -0.0949 -0.3497
16864TIP3    H172007   2.809   5.404  14.555 -0.0503  0.8123  0.4122
16864TIP3    H272008   2.688   5.473  14.495 -0.0148  1.0384  0.6014
16865TIP3   OH272009   5.915   4.489   0.275  0.1406 -0.0571 -0.1475
16865TIP3    H172010   5.823   4.512   0.291  0.0297 -0.5982  0.0409
16865TIP3    H272011   5.926   4.406   0.322  0.4550 -0.4977 -0.9844
16866TIP3   OH272012   3.349   3.380  11.999  0.3458  0.3829 -0.1574
16866TIP3    H172013   3.259   3.352  11.985  0.0990  0.0865  1.7823
16866TIP3    H272014   3.388   3.379  11.912 -0.9020 -1.6714 -0.7643
16867TIP3   OH272015   6.134   1.879   0.245 -0.2734  0.2180  0.5275
16867TIP3    H172016   6.046   1.843   0.248  0.4729 -1.7639  0.4731
16867TIP3    H272017   6.126   1.958   0.192 -1.8887 -0.3225 -0.0969
16868TIP3   OH272018   5.080   3.365  16.830 -0.2790 -0.2619 -0.0000
16868TIP3    H172019   5.157   3.310  16.817 -1.0620 -1.0741 -1.3534
16868TIP3    H272020   5.116   3.451  16.853  1.0396 -0.5697 -0.8263
16869TIP3   OH272021   1.621   0.578  10.759  0.3761 -0.6221 -0.3500
16869TIP3    H172022   1.542   0.607  10.804  0.2112  3.0547 -2.5652
16869TIP3    H272023   1.591   0.513  10.696  0.0597 -3.0202  2.1065
16870TIP3   OH272024   4.081   5.939   1.354  0.1862 -0.2662  0.1317
16870TIP3    H172025   4.103   6.023   1.313  0.2386  0.2222  1.1176
16870TIP3    H272026   4.123   5.873   1.299  0.3493  0.3704 -0.5195
16871TIP3   OH272027   6.583   0.792   4.040 -0.1605 -0.1635 -0.0249
16871TIP3    H172028   6.517   0.746   3.988  0.7498 -0.4094 -1.0103
16871TIP3    H272029   6.658   0.800   3.981  0.1705  1.4186  0.5699
16872TIP3   OH272030   1.802   3.907   0.312  0.4849  0.2739 -0.0538
16872TIP3    H172031   1.887   3.931   0.275 -0.3078 -0.0623 -2.2612
16872TIP3    H272032   1.756   3.864   0.240 -1.2416 -0.3432  1.3456
16873TIP3   OH272033   5.596   3.013  11.007  0.1661  0.0833 -0.3453
16873TIP3    H172034   5.522   3.022  10.947 -0.4404  1.7275  0.5968
16873TIP3    H272035   5.562   3.039  11.093  1.8183  0.9300  0.1069
16874TIP3   OH272036   6.048   6.002  11.145  0.1918  0.1729 -0.1537
16874TIP3    H172037   6.084   6.087  11.119 -1.7167  0.6354 -1.4966
16874TIP3    H272038   6.039   6.008  11.240  0.5010  1.3027 -0.1765
16875TIP3   OH272039   6.208   4.318  12.432 -0.1506  0.2140 -0.4801
16875TIP3    H172040   6.273   4.250  12.448 -0.4137  0.5888  2.6374
16875TIP3    H272041   6.255   4.384  12.381  2.0097  0.4814  1.6894
16876TIP3   OH272042   3.629   6.237  16.902  0.1652 -0.4790  0.1679
16876TIP3    H172043   3.630   6.212  16.810  1.2588  2.2739 -0.6722
16876TIP3    H272044   3.721   6.250  16.924 -0.2409  1.6886  0.7745
16877TIP3   OH272045   6.493   0.511  11.597 -0.5243 -0.0910 -0.4304
16877TIP3    H172046   6.516   0.495  11.506  0.3010 -0.2540 -0.2011
16877TIP3    H272047   6.499   0.606  11.606  1.7512 -0.2327  0.0351
16878TIP3   OH272048   6.006   4.335   1.524 -0.4412  0.6423  0.1036
16878TIP3    H172049   6.100   4.324   1.509 -0.4351  0.3218  0.3596
16878TIP3    H272050   5.965   4.261   1.478 -0.4924  0.2303  0.7964
16879TIP3   OH272051   1.734   1.052  16.797  0.3797 -0.0359  0.2096
16879TIP3    H172052   1.721   0.968  16.754 -1.5979  0.8269 -1.0454
16879TIP3    H272053   1.725   1.117  16.727 -0.7135  1.3100  1.5118
16880TIP3   OH272054   1.169   5.527   2.874 -0.2988 -0.1678 -0.7457
16880TIP3    H172055   1.083   5.569   2.876  0.7697  2.1258  0.3937
16880TIP3    H272056   1.168   5.467   2.949 -1.6144 -1.8574 -2.0208
16881TIP3   OH272057   4.966   2.754   5.261 -0.4571  0.3469 -0.1319
16881TIP3    H172058   4.974   2.844   5.294  1.1113  0.2036 -0.0522
16881TIP3    H272059   5.052   2.715   5.275 -1.3321 -1.4428  0.5659
16882TIP3   OH272060   6.408   0.349   3.601  0.6345  0.0892  0.5534
16882TIP3    H172061   6.404   0.275   3.661 -0.7376  0.5196  1.0288
16882TIP3    H272062   6.319   0.360   3.570  0.9593  1.0743 -0.0852
16883TIP3   OH272063   4.049   5.384  16.348 -0.3666 -0.4655  0.2951
16883TIP3    H172064   3.990   5.331  16.402 -1.3521  0.2502 -0.0387
16883TIP3    H272065   4.132   5.337  16.350 -1.0006 -1.6226  0.6210
16884TIP3   OH272066   4.561   1.810  15.043  0.3243  0.0798 -0.1432
16884TIP3    H172067   4.640   1.796  14.992  0.4421  2.1067 -0.5895
16884TIP3    H272068   4.579   1.769  15.128  1.0783 -1.1534 -0.8741
16885TIP3   OH272069   0.524   3.502  14.223  0.4176 -0.3610  0.0656
16885TIP3    H172070   0.487   3.444  14.289 -1.0093  0.7371  0.2678
16885TIP3    H272071   0.613   3.469  14.209  0.0232 -1.8925  0.9796
16886TIP3   OH272072   4.069   6.585   3.595  0.4109  0.0639  0.1794
16886TIP3    H172073   3.999   6.613   3.655 -0.1679  1.9936 -1.2635
16886TIP3    H272074   4.026   6.525   3.535  0.3353  0.1715  0.1256
16887TIP3   OH272075   6.773   0.777   3.856 -0.2013  0.5565 -0.2590
16887TIP3    H172076   6.782   0.864   3.816 -1.9370  0.3759 -1.1424
16887TIP3    H272077   6.813   0.717   3.793 -1.5617  0.4427 -1.0664
16888TIP3   OH272078   0.728   1.266   3.015 -0.1150 -0.2553 -0.1298
16888TIP3    H172079   0.640   1.272   2.980 -0.4945 -0.3705  0.7725
16888TIP3    H272080   0.775   1.208   2.955 -1.3949 -2.3670  0.8199
16889TIP3   OH272081   3.454   2.579   4.487  0.3629  0.2865  0.0608
16889TIP3    H172082   3.479   2.580   4.580  2.7727 -0.0019 -0.5133
16889TIP3    H272083   3.492   2.498   4.453  0.1016  0.7253 -1.3223
16890TIP3   OH272084   4.880   0.560   2.300  0.2102  0.5145 -0.3204
16890TIP3    H172085   4.871   0.577   2.394  0.6805 -0.9654  0.0250
16890TIP3    H272086   4.970   0.530   2.290 -0.7448 -2.7400 -0.6064
16891TIP3   OH272087   0.281   5.566  14.343  0.0469  0.0507 -0.6513
16891TIP3    H172088   0.334   5.503  14.294  0.4191 -0.8709  0.8945
16891TIP3    H272089   0.193   5.556  14.306  0.7527  1.2492 -2.8992
16892TIP3   OH272090   0.340   4.294  14.167  0.0261 -0.1402 -0.8772
16892TIP3    H172091   0.253   4.256  14.172 -0.4468  0.8825 -1.0367
16892TIP3    H272092   0.379   4.257  14.087 -0.3681 -0.3826 -0.9559
16893TIP3   OH272093   5.827   3.697  14.970  0.4579  0.4486 -0.1285
16893TIP3    H172094   5.821   3.668  14.879 -0.1668 -1.3883  0.4599
16893TIP3    H272095   5.740   3.682  15.006  0.4474  2.0010  0.5627
16894TIP3   OH272096   0.994   0.439   1.270  0.1616 -0.6837  0.7361
16894TIP3    H172097   1.022   0.390   1.347 -0.5137 -0.2125  1.2925
16894TIP3    H272098   1.044   0.521   1.275  0.6650 -0.9552  0.2639
16895TIP3   OH272099   0.848   4.487   4.181  0.3063 -0.3068 -0.2752
16895TIP3    H172100   0.903   4.488   4.102  0.8496 -1.7151  0.0528
16895TIP3    H272101   0.819   4.396   4.189 -0.8467  0.0953  0.4206
16896TIP3   OH272102   4.635   0.827  12.580 -0.3398  0.5219 -0.1659
16896TIP3    H172103   4.627   0.749  12.634 -3.6273  0.7319 -0.1631
16896TIP3    H272104   4.727   0.829  12.554  0.2364 -2.3286  1.2813
16897TIP3   OH272105   5.856   5.804   5.362  0.7409 -0.4319 -0.1687
16897TIP3    H172106   5.802   5.845   5.294 -1.0478 -2.3178  0.0148
16897TIP3    H272107   5.881   5.876   5.419 -1.6674  0.5621 -0.2391
16898TIP3   OH272108   1.816   2.633  14.548 -0.2040  0.5429 -0.0529
16898TIP3    H172109   1.820   2.674  14.634 -1.0439  1.1556 -0.2965
16898TIP3    H272110   1.905   2.642  14.513  0.8888 -1.9992  1.7371
16899TIP3   OH272111   3.786   6.468   5.594  0.2211  0.1777  0.5607
16899TIP3    H172112   3.881   6.457   5.587  0.3106  0.3206  1.4084
16899TIP3    H272113   3.768   6.456   5.687 -0.5389  0.5807  0.4711
16900TIP3   OH272114   5.247   3.187  14.505 -0.1727  0.0875  0.0121
16900TIP3    H172115   5.313   3.123  14.476 -0.6969  0.4409 -2.0931
16900TIP3    H272116   5.189   3.197  14.430 -0.9968  1.9139  0.8431
16901TIP3   OH272117   1.225   1.445   0.184 -0.1287  0.0387 -0.3578
16901TIP3    H172118   1.156   1.473   0.123 -0.0716  0.1612 -0.3671
16901TIP3    H272119   1.261   1.365   0.145  0.0393  0.2242 -0.5857
16902TIP3   OH272120   3.194   5.874   0.796 -0.2934 -0.1876  0.5884
16902TIP3    H172121   3.198   5.910   0.885  0.2689 -0.7223  0.7871
16902TIP3    H272122   3.280   5.894   0.758  0.9060 -3.1749  1.4625
16903TIP3   OH272123   0.549   6.593   6.132  0.7282 -0.3011 -0.0378
16903TIP3    H172124   0.574   6.573   6.222 -2.2786  1.2235  1.2989
16903TIP3    H272125   0.508   6.513   6.099 -0.7362 -0.0579  1.0638
16904TIP3   OH272126   1.669   2.606   2.037  0.1125 -0.5892  0.2883
16904TIP3    H172127   1.687   2.593   2.130  0.1107 -0.1941  0.3460
16904TIP3    H272128   1.594   2.549   2.019 -1.3572  1.0104  1.0682
16905TIP3   OH272129   3.811   3.527   3.155  0.0982 -0.0330 -0.4788
16905TIP3    H172130   3.904   3.536   3.132  0.2692  0.5993  0.4116
16905TIP3    H272131   3.775   3.615   3.144 -0.4119 -0.2836 -0.8508
16906TIP3   OH272132   1.409   0.626  15.603  0.7238  0.3258 -0.2914
16906TIP3    H172133   1.321   0.589  15.595  1.6890 -1.9120 -1.0776
16906TIP3    H272134   1.406   0.705  15.549 -0.8392  0.4197 -0.1300
16907TIP3   OH272135   2.765   1.850  10.946 -0.0789 -0.4594  0.1255
16907TIP3    H172136   2.736   1.934  10.983  0.5162 -0.3802  0.4290
16907TIP3    H272137   2.730   1.850  10.857  0.0504  0.1866  0.0678
16908TIP3   OH272138   5.117   2.645  16.797  0.4016  0.2314  0.0372
16908TIP3    H172139   5.162   2.709  16.742  0.2783 -0.0710 -0.4200
16908TIP3    H272140   5.079   2.582  16.735  0.1119 -0.0151  0.4601
16909TIP3   OH272141   3.378   0.149  15.929  0.5486  0.6547 -0.2689
16909TIP3    H172142   3.287   0.166  15.905  0.6551  1.2739 -0.2559
16909TIP3    H272143   3.428   0.217  15.884  0.8634  1.1725  0.8193
16910TIP3   OH272144   3.225   5.104  13.886  0.3088 -0.3726  0.5656
16910TIP3    H172145   3.252   5.138  13.971  1.8211 -1.2170  0.4521
16910TIP3    H272146   3.162   5.168  13.853  1.3814  1.1341  1.3357
16911TIP3   OH272147   2.111   3.229  14.269 -0.5640  0.6191  0.1717
16911TIP3    H172148   2.200   3.256  14.244 -1.4899  3.3812 -0.4432
16911TIP3    H272149   2.079   3.299  14.325 -2.2541 -0.5256  0.7246
16912TIP3   OH272150   3.767   6.101  14.902  0.2135  0.3351  0.0646
16912TIP3    H172151   3.674   6.089  14.923  0.4759 -1.3165  0.4476
16912TIP3    H272152   3.768   6.176  14.843 -1.3181  0.6644  0.3931
16913TIP3   OH272153   2.788   4.099   4.113 -1.1328  0.3194  0.0504
16913TIP3    H172154   2.737   4.032   4.158  0.8053 -0.5545  1.0347
16913TIP3    H272155   2.750   4.182   4.142 -0.9089 -0.2669  2.1158
16914TIP3   OH272156   4.623   0.918  11.760  0.2712  0.3090  0.3727
16914TIP3    H172157   4.581   0.974  11.694  0.0007  1.0877  1.1753
16914TIP3    H272158   4.580   0.833  11.751 -1.7985  1.1714  1.4096
16915TIP3   OH272159   6.047   2.173  11.994  0.0832  0.1308 -0.7063
16915TIP3    H172160   6.123   2.176  11.935 -0.2817 -0.5413 -1.2235
16915TIP3    H272161   5.974   2.148  11.938 -0.0721 -1.6400  0.2251
16916TIP3   OH272162   6.618   4.936   0.806  0.1139 -0.4136  0.2715
16916TIP3    H172163   6.701   4.971   0.775  0.3967 -0.5324  0.8847
16916TIP3    H272164   6.620   4.949   0.901 -0.4721 -0.6169  0.3180
16917TIP3   OH272165   3.123   0.103   0.551 -0.0679  0.0135  0.0937
16917TIP3    H172166   3.115   0.088   0.457  0.5489  0.4184 -0.0230
16917TIP3    H272167   3.171   0.185   0.559  1.1872 -0.7506  0.7687
16918TIP3   OH272168   3.382   4.082  17.123  0.1602  0.2293  0.0190
16918TIP3    H172169   3.469   4.120  17.136 -0.3946  1.7508 -0.5528
16918TIP3    H272170   3.328   4.121  17.191 -0.4283  0.5192 -0.5996
16919TIP3   OH272171   3.773   0.318   0.627  0.1216 -0.4180  0.1901
16919TIP3    H172172   3.699   0.261   0.647  0.0934 -0.8402 -0.9855
16919TIP3    H272173   3.777   0.380   0.700 -1.7530 -0.0172  0.0181
16920TIP3   OH272174   3.589   4.766   0.768 -0.2799 -0.3712 -0.2572
16920TIP3    H172175   3.524   4.833   0.746  0.9780  1.5960  1.5787
16920TIP3    H272176   3.540   4.698   0.814 -1.5462 -0.6328 -1.9038
16921TIP3   OH272177   3.554   0.589  15.720 -0.5972  0.5044 -0.2386
16921TIP3    H172178   3.591   0.598  15.632 -0.0996  2.9613  0.1478
16921TIP3    H272179   3.461   0.606  15.709 -0.8774 -1.1055 -0.5380
16922TIP3   OH272180   1.495   3.853  11.780  0.0010  0.7822  0.0394
16922TIP3    H172181   1.513   3.790  11.850  0.0851  1.1565  0.3575
16922TIP3    H272182   1.570   3.913  11.781 -0.5139  1.4318  0.3471
16923TIP3   OH272183   0.429   6.163   6.389 -0.4352 -0.1679  0.6640
16923TIP3    H172184   0.496   6.211   6.341 -1.0154 -0.2891 -0.2846
16923TIP3    H272185   0.387   6.229   6.445 -0.9305  0.3510 -0.2982
16924TIP3   OH272186   2.206   6.458  11.519  0.1412 -0.3642  0.2564
16924TIP3    H172187   2.122   6.473  11.562 -0.8254 -1.4953 -1.1509
16924TIP3    H272188   2.261   6.531  11.548 -0.4537 -0.9743  3.2764
16925TIP3   OH272189   5.211   1.226  12.801  0.2587 -0.4003 -0.2845
16925TIP3    H172190   5.203   1.241  12.895 -0.9836 -1.4201 -0.1956
16925TIP3    H272191   5.299   1.256  12.779 -0.2189  2.0147  0.7612
16926TIP3   OH272192   1.212   6.092  12.381  0.2421 -0.4005 -0.0536
16926TIP3    H172193   1.290   6.134  12.346 -0.0732  1.0890  0.9358
16926TIP3    H272194   1.190   6.025  12.317  1.5569  0.0520 -1.0158
16927TIP3   OH272195   5.075   2.066  15.116 -0.4231  0.0808 -0.3079
16927TIP3    H172196   5.152   2.112  15.083  0.1388 -1.0503 -0.6342
16927TIP3    H272197   5.107   2.018  15.193 -1.3054  1.2800  0.8481
16928TIP3   OH272198   6.766   3.672   4.817  0.2913  0.6602 -0.2345
16928TIP3    H172199   6.734   3.707   4.734 -0.1635  1.2126  0.1689
16928TIP3    H272200   6.854   3.640   4.797 -0.5530 -1.1092 -1.4341
16929TIP3   OH272201   6.238   5.164  15.123  0.1626  0.5354 -0.2802
16929TIP3    H172202   6.229   5.201  15.035  1.3739 -1.7826 -1.4904
16929TIP3    H272203   6.322   5.199  15.155  0.5165  0.1315 -0.7449
16930TIP3   OH272204   5.369   5.212   5.032 -0.1727  0.6485 -0.0706
16930TIP3    H172205   5.441   5.150   5.019 -1.2513 -0.3227 -1.8621
16930TIP3    H272206   5.412   5.296   5.046  1.3197  0.0880 -1.0480
16931TIP3   OH272207   3.796   2.674  14.135  0.1209 -0.2078  0.6589
16931TIP3    H172208   3.779   2.720  14.053 -0.8918  0.7572  1.3972
16931TIP3    H272209   3.871   2.720  14.173 -1.0001  1.0124  1.4828
16932TIP3   OH272210   4.144   0.420  10.893  0.6078 -0.1287 -0.4505
16932TIP3    H172211   4.109   0.505  10.918  2.9219  0.9835 -0.7356
16932TIP3    H272212   4.072   0.358  10.910  0.3222  1.1221  4.2894
16933TIP3   OH272213   4.219   2.954   2.268  0.1056  0.2093  0.1169
16933TIP3    H172214   4.253   3.025   2.323 -1.1244  1.4158 -0.6004
16933TIP3    H272215   4.246   2.874   2.312  2.1510  1.1082  0.5900
16934TIP3   OH272216   4.213   3.545  11.385 -1.0428 -0.4351  0.6610
16934TIP3    H172217   4.240   3.631  11.354  0.3419 -1.2332 -0.5127
16934TIP3    H272218   4.177   3.502  11.307 -1.7417 -0.9163  1.2353
16935TIP3   OH272219   6.286   6.081  17.155 -0.5111 -0.2729 -0.2352
16935TIP3    H172220   6.290   6.060  17.249  0.4425  2.8031  0.5655
16935TIP3    H272221   6.209   6.138  17.147 -2.4346 -2.9261 -2.0237
16936TIP3   OH272222   3.243   1.563   2.759 -0.7225  0.2324  0.3673
16936TIP3    H172223   3.277   1.641   2.716 -1.1714 -1.2299 -2.9560
16936TIP3    H272224   3.320   1.509   2.775 -0.5946  0.6362  1.1986
16937TIP3   OH272225   3.250   5.556   0.644  0.0342  0.8707 -0.6006
16937TIP3    H172226   3.192   5.581   0.715  1.0630  1.8796 -0.0712
16937TIP3    H272227   3.194   5.552   0.567 -1.0257  0.1381  0.1860
16938TIP3   OH272228   0.481   2.179  13.200  0.0660 -0.2612 -0.7377
16938TIP3    H172229   0.400   2.227  13.183 -1.0344 -2.3181 -1.7591
16938TIP3    H272230   0.515   2.157  13.114  0.8654 -0.7688 -0.3039
16939TIP3   OH272231   1.902   3.771   0.502 -0.4604 -0.2736 -0.7174
16939TIP3    H172232   1.964   3.727   0.444  0.9274  1.7467 -0.8770
16939TIP3    H272233   1.843   3.818   0.443 -0.2159  0.2627 -0.5465
16940TIP3   OH272234   4.360   0.986   3.097  0.5152 -0.4373  0.1727
16940TIP3    H172235   4.281   0.952   3.141 -1.9021  3.1079 -0.9955
16940TIP3    H272236   4.343   0.971   3.004  0.8903  0.9401 -0.1342
16941TIP3   OH272237   4.345   4.805   5.198  0.1952  0.1401 -0.3189
16941TIP3    H172238   4.432   4.784   5.233 -1.0800  0.4090  3.3679
16941TIP3    H272239   4.305   4.720   5.180  0.0987 -0.1323  1.0937
16942TIP3   OH272240   3.002   4.707  12.504  0.3078 -0.4974  0.3105
16942TIP3    H172241   3.097   4.698  12.507  0.3046 -0.6297 -0.0064
16942TIP3    H272242   2.973   4.681  12.592  0.5872 -0.1505  0.5108
16943TIP3   OH272243   1.774   3.695  15.435  0.5285  0.1805 -0.1757
16943TIP3    H172244   1.759   3.753  15.360  1.5508 -1.9902 -2.2135
16943TIP3    H272245   1.760   3.751  15.511 -2.7775  2.0085 -1.8688
16944TIP3   OH272246   1.719   1.043   4.577 -0.1896 -0.2500  0.1004
16944TIP3    H172247   1.656   1.104   4.539  0.8920  0.4066 -0.7024
16944TIP3    H272248   1.804   1.069   4.539  0.4161 -1.7532  0.3417
16945TIP3   OH272249   1.209   6.188  14.365  0.2500  0.6566  0.6968
16945TIP3    H172250   1.133   6.243  14.349  0.3478  0.5771 -0.0588
16945TIP3    H272251   1.282   6.234  14.323  0.5533  0.5521  1.1037
16946TIP3   OH272252   3.147   0.358  15.607  0.6436 -0.0860 -0.7923
16946TIP3    H172253   3.089   0.390  15.537  1.1062 -1.4242 -1.8451
16946TIP3    H272254   3.176   0.436  15.652 -1.1989  0.6921 -0.8662
16947TIP3   OH272255   3.020   0.213  13.657 -0.7768  0.0202  0.0119
16947TIP3    H172256   2.959   0.285  13.669 -1.2667 -0.4681  0.5032
16947TIP3    H272257   2.970   0.135  13.678 -0.0717 -0.4160  0.1208
16948TIP3   OH272258   0.940   3.971  11.270 -0.4924 -0.2346  0.4207
16948TIP3    H172259   0.879   3.997  11.339 -0.6446 -0.4177  0.3530
16948TIP3    H272260   0.963   3.881  11.290  0.4646  0.1211  0.9719
16949TIP3   OH272261   0.757   5.530   4.705  0.1269 -0.8844 -0.1657
16949TIP3    H172262   0.721   5.566   4.625 -0.3973  0.4594  0.6447
16949TIP3    H272263   0.754   5.435   4.692 -0.4593 -0.7023 -1.5006
16950TIP3   OH272264   5.448   2.007  15.695 -0.3182  0.1491 -0.0234
16950TIP3    H172265   5.361   1.980  15.665  0.2040  0.0669 -1.5568
16950TIP3    H272266   5.502   1.929  15.682 -0.1093  0.0216  1.4450
16951TIP3   OH272267   2.935   2.639  16.275  0.6043  0.1421 -0.9335
16951TIP3    H172268   2.914   2.695  16.200  0.8273  0.9189 -0.4320
16951TIP3    H272269   2.916   2.693  16.351 -0.5299 -0.9691 -0.3927
16952TIP3   OH272270   2.666   2.071   0.917  0.1370  0.8818 -0.1692
16952TIP3    H172271   2.588   2.015   0.912  1.4348 -0.9692 -0.8307
16952TIP3    H272272   2.680   2.101   0.827  1.2997 -0.4911 -0.4943
16953TIP3   OH272273   0.656   2.962  14.540 -0.2066 -0.2927 -0.1585
16953TIP3    H172274   0.706   3.044  14.537 -1.8492  0.7559 -0.2353
16953TIP3    H272275   0.703   2.907  14.603  1.5150  0.2947 -0.8909
16954TIP3   OH272276   0.525   4.646   4.992  0.1456 -0.4769 -0.6133
16954TIP3    H172277   0.482   4.561   4.997 -1.7577  0.4340 -0.5838
16954TIP3    H272278   0.547   4.657   4.899 -1.1125 -0.3299 -0.9123
16955TIP3   OH272279   2.885   0.105  13.343 -0.0946  0.8079  0.0787
16955TIP3    H172280   2.866   0.199  13.348 -0.8054  0.7930 -1.6756
16955TIP3    H272281   2.978   0.101  13.324 -0.2919  1.2225 -1.0521
16956TIP3   OH272282   3.169   0.390  13.025  0.1558 -0.1984  0.5089
16956TIP3    H172283   3.117   0.316  12.994 -0.5312  0.1815  0.7580
16956TIP3    H272284   3.161   0.456  12.957 -1.5263  0.7200  1.5340
16957TIP3   OH272285   2.469   0.800   1.717 -0.0559 -0.5601  0.2433
16957TIP3    H172286   2.511   0.771   1.636 -0.2678  3.1039 -1.3574
16957TIP3    H272287   2.486   0.729   1.779  1.9868 -2.5707 -2.3590
16958TIP3   OH272288   0.497   0.195   4.525  0.4421 -0.2385  0.1690
16958TIP3    H172289   0.459   0.280   4.549 -0.9352 -1.1369  1.3559
16958TIP3    H272290   0.496   0.145   4.607  1.6523 -1.2458 -0.4087
16959TIP3   OH272291   2.326   3.040  15.073 -0.0741 -0.4399 -0.6103
16959TIP3    H172292   2.291   3.127  15.056 -2.3554 -1.1783 -0.0419
16959TIP3    H272293   2.400   3.032  15.013 -1.1266  1.0838 -2.2138
16960TIP3   OH272294   3.032   1.295   5.906  0.0444 -0.5605  0.0850
16960TIP3    H172295   3.065   1.324   5.991  1.2621 -0.9073 -0.2544
16960TIP3    H272296   3.110   1.267   5.858 -0.5865 -0.0424 -1.2885
16961TIP3   OH272297   5.823   6.163   3.050  0.0441  0.2939  0.4650
16961TIP3    H172298   5.889   6.131   3.111 -1.1189 -0.9454  1.1162
16961TIP3    H272299   5.746   6.179   3.104 -0.4736  0.8693 -0.4121
16962TIP3   OH272300   5.398   2.692  12.111  0.1977 -0.3546  0.1209
16962TIP3    H172301   5.340   2.619  12.090 -0.8873 -0.1097  2.0363
16962TIP3    H272302   5.363   2.766  12.061  0.1223 -0.6737 -0.3101
16963TIP3   OH272303   1.590   4.163  15.980 -0.1245  0.3023  0.8279
16963TIP3    H172304   1.547   4.088  15.939 -0.8934  1.1116  0.1075
16963TIP3    H272305   1.519   4.224  15.997  0.8341  2.2874 -1.6639
16964TIP3   OH272306   0.126   5.422   2.248 -0.2257  0.4228 -0.0923
16964TIP3    H172307   0.145   5.456   2.160  0.5123  1.6312  0.4983
16964TIP3    H272308   0.195   5.459   2.303 -1.0869  0.2733  1.1276
16965TIP3   OH272309   6.010   0.946   2.318  0.1855 -0.5169 -0.3735
16965TIP3    H172310   6.039   1.025   2.364  0.2668 -0.5095 -0.4368
16965TIP3    H272311   5.944   0.977   2.257 -0.2682 -0.5960  0.0714
16966TIP3   OH272312   5.416   5.833  15.177 -0.3910  0.4304  0.1410
16966TIP3    H172313   5.342   5.773  15.179 -0.2164  0.1933 -0.4962
16966TIP3    H272314   5.470   5.804  15.103  0.1373  0.8386  0.3547
16967TIP3   OH272315   1.381   2.015  16.757 -0.1750  0.1026  0.6811
16967TIP3    H172316   1.443   1.952  16.794  0.1358 -0.3154 -0.4906
16967TIP3    H272317   1.434   2.090  16.732  0.0530 -0.6020 -1.1209
16968TIP3   OH272318   5.469   3.655  12.753 -0.8843 -0.6278 -0.2942
16968TIP3    H172319   5.504   3.721  12.813 -0.1925 -0.9240 -0.3579
16968TIP3    H272320   5.374   3.663  12.761 -0.9360  2.2305 -2.2598
16969TIP3   OH272321   1.771   6.322   3.600 -0.1063 -0.1313 -0.0888
16969TIP3    H172322   1.758   6.412   3.571 -0.1368 -0.5345 -1.4100
16969TIP3    H272323   1.832   6.328   3.674  0.2852  0.9291 -0.4836
16970TIP3   OH272324   2.681   1.638  13.187 -0.4913  0.3536  0.2791
16970TIP3    H172325   2.722   1.559  13.152  0.3496  0.4566  0.9772
16970TIP3    H272326   2.610   1.658  13.126  1.0307  0.6603 -1.4813
16971TIP3   OH272327   2.065   5.678   4.588  0.4309 -0.1719 -0.0136
16971TIP3    H172328   2.137   5.618   4.608 -1.0762 -1.7727  0.9124
16971TIP3    H272329   2.078   5.699   4.496  1.4101 -1.3995 -0.2012
16972TIP3   OH272330   0.385   4.976  12.315 -0.6813 -0.4044 -0.4188
16972TIP3    H172331   0.402   4.910  12.248 -1.2994 -0.2234 -0.7608
16972TIP3    H272332   0.318   5.032  12.277  0.3503  0.8720 -0.4408
16973TIP3   OH272333   5.407   0.201   4.134  0.2372 -0.1378 -0.0235
16973TIP3    H172334   5.464   0.209   4.211  0.0196 -1.9163  0.3546
16973TIP3    H272335   5.443   0.128   4.085 -1.0785 -0.5954 -0.3434
16974TIP3   OH272336   2.683   4.931  15.571 -0.2706 -0.5202  0.1779
16974TIP3    H172337   2.681   4.917  15.476 -0.1263 -0.6516  0.1921
16974TIP3    H272338   2.747   5.000  15.584  0.2671 -1.0243  0.2370
16975TIP3   OH272339   0.204   6.665   1.777 -0.1325  0.2563 -0.8262
16975TIP3    H172340   0.245   6.666   1.690 -0.1750  0.1386 -0.8476
16975TIP3    H272341   0.136   6.732   1.772  1.4198  1.9604 -0.1238
16976TIP3   OH272342   2.142   3.179  11.891  0.4895 -0.0632 -0.3553
16976TIP3    H172343   2.059   3.159  11.935  0.4865  1.3951  0.3616
16976TIP3    H272344   2.140   3.127  11.811 -0.4829 -1.1190  0.3218
16977TIP3   OH272345   1.779   6.235  17.098  0.7058 -0.5998  0.4616
16977TIP3    H172346   1.818   6.235  17.186  0.5517  0.2264  0.5428
16977TIP3    H272347   1.774   6.143  17.074 -1.1641 -1.0130  2.1658
16978TIP3   OH272348   5.779   4.799  12.179 -0.1632 -0.0085  0.1750
16978TIP3    H172349   5.870   4.785  12.151 -0.0070  0.1085  0.6110
16978TIP3    H272350   5.782   4.788  12.274 -0.3024  1.5260  0.3823
16979TIP3   OH272351   5.258   6.232   4.819 -0.6997 -0.1516  0.3637
16979TIP3    H172352   5.306   6.211   4.898  0.7573  2.0013  0.1189
16979TIP3    H272353   5.300   6.180   4.750 -1.1981 -1.1178  0.7763
16980TIP3   OH272354   2.479   2.401  13.040 -0.7048  0.5734 -0.5113
16980TIP3    H172355   2.451   2.429  13.127 -0.2933 -0.6633  0.0291
16980TIP3    H272356   2.456   2.309  13.035  1.9997 -0.1967 -0.5205
16981TIP3   OH272357   2.041   6.147  14.832  0.1028 -0.1360 -0.4400
16981TIP3    H172358   1.963   6.113  14.876  1.5758  0.7935  3.3205
16981TIP3    H272359   2.114   6.104  14.877  1.8382  2.0240 -0.9895
16982TIP3   OH272360   4.155   0.495   6.281  0.1419  0.0263  0.3423
16982TIP3    H172361   4.200   0.504   6.365 -2.0207  0.4054  1.5339
16982TIP3    H272362   4.102   0.575   6.274 -2.2481 -1.4483  0.2664
16983TIP3   OH272363   2.374   6.636  16.983 -0.8630  0.6275 -0.2319
16983TIP3    H172364   2.345   6.641  17.074  0.6717 -0.6954  0.3641
16983TIP3    H272365   2.466   6.660  16.985 -0.2562 -1.4458 -1.1023
16984TIP3   OH272366   6.747   0.572   2.946  0.0188 -0.1268  0.5781
16984TIP3    H172367   6.661   0.577   2.904  0.6180 -1.4699 -0.8801
16984TIP3    H272368   6.737   0.501   3.011  0.8567 -2.6475 -1.8570
16985TIP3   OH272369   3.073   3.004  14.702  0.3630 -0.2518 -0.3464
16985TIP3    H172370   3.020   3.084  14.705 -0.1435 -0.5943  2.4925
16985TIP3    H272371   3.163   3.035  14.694 -0.0128  0.4388 -2.3763
16986TIP3   OH272372   4.233   2.849   6.441  0.1216 -0.4450  0.2338
16986TIP3    H172373   4.213   2.793   6.517  1.7531 -0.7046  0.5011
16986TIP3    H272374   4.316   2.890   6.463 -0.6706  1.5496 -0.2913
16987TIP3   OH272375   6.694   3.158   1.169 -0.2461  0.5385  0.6321
16987TIP3    H172376   6.672   3.229   1.230 -0.0552  0.5862  0.6460
16987TIP3    H272377   6.672   3.078   1.217 -1.0197  0.6071  0.3910
16988TIP3   OH272378   1.243   4.181  15.724  0.0926  0.0005  0.5872
16988TIP3    H172379   1.233   4.093  15.760  0.0964  0.0887  0.8060
16988TIP3    H272380   1.337   4.199  15.728  0.3142 -0.6757 -1.1124
16989TIP3   OH272381   3.668   5.403   3.970  0.2827  0.1726  0.4393
16989TIP3    H172382   3.601   5.335   3.958  0.2984  0.1545  0.4532
16989TIP3    H272383   3.742   5.357   4.011  0.5315  0.0646 -0.1250
16990TIP3   OH272384   5.082   1.417  15.843 -0.6275  0.2892 -0.7484
16990TIP3    H172385   4.988   1.415  15.827 -0.6335  1.5060 -0.9583
16990TIP3    H272386   5.097   1.502  15.885  0.5424  0.6790 -1.8954
16991TIP3   OH272387   1.325   1.800   0.248 -0.4073 -0.0170  0.5577
16991TIP3    H172388   1.340   1.866   0.316  2.4098 -0.8371  0.8532
16991TIP3    H272389   1.277   1.730   0.292 -0.1994  0.2560  1.2331
16992TIP3   OH272390   5.079   3.472  12.178  0.1917 -0.3559 -0.1147
16992TIP3    H172391   5.138   3.478  12.254  0.1248  0.7052 -0.1273
16992TIP3    H272392   5.006   3.529  12.201 -0.6872 -1.3949 -0.2476
16993TIP3   OH272393   4.645   4.538  15.463  0.1995  0.3902 -0.2881
16993TIP3    H172394   4.682   4.588  15.391 -1.1123  1.9184  0.0199
16993TIP3    H272395   4.711   4.541  15.532  0.1125  1.8315 -0.2475
16994TIP3   OH272396   1.193   1.753  10.870 -0.1725  0.3794 -0.2032
16994TIP3    H172397   1.185   1.775  10.777  0.9595  0.0725 -0.3981
16994TIP3    H272398   1.260   1.684  10.872 -0.8142 -0.2320  0.7618
16995TIP3   OH272399   6.317   4.181  15.506  0.3420 -0.0027 -0.3654
16995TIP3    H172400   6.306   4.211  15.416  0.2444  0.3029 -0.2525
16995TIP3    H272401   6.394   4.124  15.503  1.5858  1.6161 -0.2626
16996TIP3   OH272402   3.747   1.039   6.569  0.1293 -0.2581  0.6965
16996TIP3    H172403   3.780   0.962   6.523 -0.1321  0.4010 -0.6466
16996TIP3    H272404   3.805   1.110   6.540 -0.1589  0.2091  1.2523
16997TIP3   OH272405   6.723   1.963   0.838 -0.2611  0.9273 -0.0594
16997TIP3    H172406   6.641   1.986   0.881 -0.2092  1.6638 -0.3395
16997TIP3    H272407   6.723   2.015   0.758  0.9442  1.6877  0.4168
16998TIP3   OH272408   3.026   0.782  13.985  0.9767  0.4279  0.0715
16998TIP3    H172409   3.074   0.701  14.005 -0.0915 -0.6179 -1.4001
16998TIP3    H272410   2.955   0.783  14.050  1.1635  0.3541  0.2814
16999TIP3   OH272411   2.460   3.431  17.215  0.1555 -0.5905  0.3678
16999TIP3    H172412   2.486   3.341  17.235 -0.3375 -0.4211  1.9081
16999TIP3    H272413   2.366   3.433  17.229  0.1936  0.2232  0.5585
17000TIP3   OH272414   0.113   0.184  16.287 -0.6027 -0.2500 -0.0863
17000TIP3    H172415   0.106   0.137  16.370  0.3484 -0.1663  0.0478
17000TIP3    H272416   0.067   0.128  16.224 -0.0701 -1.0344  0.2062
17001TIP3   OH272417   2.474   1.981   4.181 -0.3253  0.2654  0.7293
17001TIP3    H172418   2.525   1.901   4.172 -1.4977 -0.3532 -1.4379
17001TIP3    H272419   2.428   1.972   4.264 -0.6813 -1.5110  0.3772
17002TIP3   OH272420   3.604   4.294   0.964 -0.5219  0.3023  0.1582
17002TIP3    H172421   3.624   4.210   1.006  0.0452  0.2892 -0.1243
17002TIP3    H272422   3.627   4.280   0.872 -0.1964  0.8407  0.1526
17003TIP3   OH272423   0.048   0.935  10.925 -0.3312 -0.0582 -0.4783
17003TIP3    H172424   0.014   0.893  11.004 -0.2207  0.1324 -0.3267
17003TIP3    H272425  -0.024   0.991  10.895  0.3737  1.5965  0.7582
17004TIP3   OH272426   4.882   2.253  13.696  0.4427  0.8075 -0.1969
17004TIP3    H172427   4.861   2.220  13.783 -0.3930  0.3840 -0.5460
17004TIP3    H272428   4.798   2.276  13.658  0.6394 -0.3552 -1.4206
17005TIP3   OH272429   0.262   4.666   6.648  0.7723 -0.2731  0.3388
17005TIP3    H172430   0.303   4.652   6.562  0.6790  2.5181 -0.2560
17005TIP3    H272431   0.336   4.687   6.706  0.6035  0.9344  0.1573
17006TIP3   OH272432   3.987   1.650  13.893  0.1714 -0.5401  0.1484
17006TIP3    H172433   4.007   1.641  13.800  1.2181  1.1615  0.1463
17006TIP3    H272434   3.923   1.721  13.897 -1.4217 -1.9418  0.6230
17007TIP3   OH272435   6.762   1.784   0.631 -0.5501  0.4106 -0.0979
17007TIP3    H172436   6.827   1.800   0.700 -0.7284 -0.4150  0.2716
17007TIP3    H272437   6.711   1.865   0.628  1.0335  1.4236 -1.0055
17008TIP3   OH272438   2.913   1.127  11.093  0.1188 -0.4830  0.1753
17008TIP3    H172439   2.947   1.169  11.014 -1.6311 -1.0472 -0.9212
17008TIP3    H272440   2.962   1.045  11.100 -0.3709 -0.8825 -0.8891
17009TIP3   OH272441   3.749   4.713   6.407  0.4946 -0.2394  0.4767
17009TIP3    H172442   3.753   4.623   6.437  0.0292 -0.7400 -0.8681
17009TIP3    H272443   3.703   4.708   6.323  1.9539  1.0266 -0.4535
17010TIP3   OH272444   6.394   4.812   2.930 -0.4093 -0.4987  0.4070
17010TIP3    H172445   6.382   4.793   3.023 -1.2782 -0.2215  0.3623
17010TIP3    H272446   6.484   4.842   2.923 -0.7084  0.7212  1.3852
17011TIP3   OH272447   3.025   4.412  11.361  0.0919  0.3833  0.0040
17011TIP3    H172448   3.109   4.370  11.344  0.4844  1.0280  0.3047
17011TIP3    H272449   3.023   4.488  11.304 -0.0217  0.7092  0.4338
17012TIP3   OH272450   3.482   3.154   2.730 -0.2423  0.0501  0.1219
17012TIP3    H172451   3.492   3.058   2.727  0.7193  0.1456 -0.1740
17012TIP3    H272452   3.405   3.172   2.677 -0.6116 -0.5802  0.4226
17013TIP3   OH272453   1.655   0.976   0.241 -0.0566 -0.2912  0.2758
17013TIP3    H172454   1.571   1.003   0.280 -0.8496  1.9675 -2.6263
17013TIP3    H272455   1.720   1.032   0.284 -0.7430  1.2830 -0.6368
17014TIP3   OH272456   5.814   0.401  12.945 -0.0003  0.0721  0.0858
17014TIP3    H172457   5.853   0.386  13.031 -1.1427 -0.4565  0.5254
17014TIP3    H272458   5.815   0.496  12.934 -1.9255  0.3251  1.6948
17015TIP3   OH272459   0.468   5.227  15.185  0.0601  0.0680  0.4790
17015TIP3    H172460   0.414   5.280  15.244  0.2633 -0.5063  1.2030
17015TIP3    H272461   0.405   5.167  15.143 -0.0864  0.4850  0.0958
17016TIP3   OH272462   3.103   4.259   3.935  0.1029  0.7907 -0.5067
17016TIP3    H172463   3.186   4.263   3.982 -0.1771  1.4679 -0.0637
17016TIP3    H272464   3.052   4.332   3.970 -0.2324  1.1158 -1.6217
17017TIP3   OH272465   5.611   0.173  15.869  0.7299  0.4463  0.4731
17017TIP3    H172466   5.585   0.227  15.944 -0.7623 -0.0776  0.3790
17017TIP3    H272467   5.603   0.231  15.793 -0.4956  0.2256  0.4169
17018TIP3   OH272468   5.914   0.094  11.841  0.4200 -0.0162 -0.1462
17018TIP3    H172469   5.966   0.030  11.889  0.6522 -0.4474 -0.9768
17018TIP3    H272470   5.895   0.053  11.757 -0.0682  0.6997 -0.3982
17019TIP3   OH272471   3.200   6.034   0.570 -0.4691 -0.1508 -0.1605
17019TIP3    H172472   3.135   6.067   0.633 -2.2372 -0.6781 -1.6248
17019TIP3    H272473   3.270   6.099   0.571 -1.1902  0.6454  1.1981
17020TIP3   OH272474   1.608   3.695   4.481 -0.4982 -0.4005 -0.1571
17020TIP3    H172475   1.581   3.698   4.573  4.1006  0.6581  1.4153
17020TIP3    H272476   1.661   3.616   4.475  1.1850  0.7653 -1.2283
17021TIP3   OH272477   0.796   2.289  16.359  0.0465 -0.6147 -0.2417
17021TIP3    H172478   0.869   2.349  16.374 -0.8822  0.4081  0.3156
17021TIP3    H272479   0.780   2.249  16.445 -1.2257  0.5599  0.1024
17022TIP3   OH272480   3.889   5.462   0.398 -0.0604 -0.4287  0.6211
17022TIP3    H172481   3.959   5.509   0.354 -0.8493 -0.4750 -0.7582
17022TIP3    H272482   3.859   5.397   0.334 -0.8114 -0.9612  1.4764
17023TIP3   OH272483   0.496   0.454  10.884  0.4520 -0.2029  0.1544
17023TIP3    H172484   0.519   0.417  10.799 -0.7698  1.2044 -0.8521
17023TIP3    H272485   0.574   0.443  10.938  1.1625 -1.3662 -1.0663
17024TIP3   OH272486   3.430   2.002   3.618 -0.4728  0.5121 -0.3042
17024TIP3    H172487   3.444   2.055   3.697  0.4939 -1.8736  1.2369
17024TIP3    H272488   3.335   1.995   3.610 -0.7659 -2.5632  3.2295
17025TIP3   OH272489   6.396   4.516   5.643  0.4048  0.3714 -0.5496
17025TIP3    H172490   6.351   4.519   5.558 -0.7528 -0.7099 -0.0016
17025TIP3    H272491   6.357   4.587   5.693 -0.5496 -0.4157 -0.1576
17026TIP3   OH272492   4.181   4.726   2.461  0.2732 -0.5026 -0.2296
17026TIP3    H172493   4.272   4.726   2.491 -0.0633 -0.4221  0.7977
17026TIP3    H272494   4.161   4.633   2.447  1.0031 -0.4378 -2.0386
17027TIP3   OH272495   3.785   2.171   4.526 -0.2030 -0.0589  0.2364
17027TIP3    H172496   3.730   2.093   4.520 -1.3951  0.7085  0.9633
17027TIP3    H272497   3.725   2.244   4.517  0.3914  0.8585  2.8929
17028TIP3   OH272498   5.036   2.322   1.653 -0.6865 -0.2042 -0.3504
17028TIP3    H172499   4.947   2.358   1.652 -0.6865 -0.2047 -0.6305
17028TIP3    H272500   5.031   2.245   1.710 -0.4146  0.9137  1.2507
17029TIP3   OH272501   0.031   1.401  16.135 -0.7822  0.0771  0.5888
17029TIP3    H172502   0.058   1.414  16.226 -4.7149 -1.7629  2.2423
17029TIP3    H272503   0.100   1.346  16.097 -0.4978 -1.8067  3.4979
17030TIP3   OH272504   5.166   2.349  10.558  0.0718 -0.2783 -0.9376
17030TIP3    H172505   5.147   2.256  10.566  1.3495 -0.5082 -0.3807
17030TIP3    H272506   5.244   2.363  10.612 -0.6999  1.3246 -0.1651
17031TIP3   OH272507   4.828   4.607   3.823 -0.2149 -0.1328  0.3937
17031TIP3    H172508   4.823   4.633   3.915 -0.7981 -0.4288  0.4494
17031TIP3    H272509   4.772   4.671   3.778 -1.7263 -1.2878  0.5416
17032TIP3   OH272510   0.766   4.254  14.821  0.0653  0.1089 -0.5865
17032TIP3    H172511   0.832   4.283  14.757 -0.0172  1.0732 -0.2629
17032TIP3    H272512   0.742   4.166  14.793  0.0879  0.4846 -1.8416
17033TIP3   OH272513   6.215   1.530   0.048 -0.2244 -0.3917  0.0690
17033TIP3    H172514   6.189   1.602  -0.009 -0.0122 -0.0435  0.4089
17033TIP3    H272515   6.169   1.454   0.013 -1.7626  0.2181  0.7058
17034TIP3   OH272516   4.291   0.648   0.262 -0.3704 -0.2927  0.0775
17034TIP3    H172517   4.266   0.584   0.329  2.0296 -0.8245  0.5657
17034TIP3    H272518   4.293   0.597   0.181 -0.0877 -0.4367  0.1740
17035TIP3   OH272519   0.060   0.151  14.150  0.2655 -0.0768  0.2885
17035TIP3    H172520   0.134   0.121  14.098 -0.1087 -0.4954 -0.0058
17035TIP3    H272521   0.034   0.234  14.110  0.8052  0.2604  0.6228
17036TIP3   OH272522   3.549   2.924   1.470  0.6432  0.5246  0.3480
17036TIP3    H172523   3.491   2.859   1.510 -0.6462  0.5176 -1.4078
17036TIP3    H272524   3.499   3.006   1.476  1.1960  0.8627  0.3406
17037TIP3   OH272525   6.448   2.190   5.061 -0.1796  0.5979 -0.8060
17037TIP3    H172526   6.411   2.154   4.980 -0.0490  1.5593 -1.3073
17037TIP3    H272527   6.436   2.284   5.053  1.0835  0.8201 -0.3268
17038TIP3   OH272528   0.757   5.250   1.102 -0.5387 -0.2982  0.3076
17038TIP3    H172529   0.817   5.310   1.058 -0.2581  0.3708  1.5547
17038TIP3    H272530   0.780   5.164   1.066  0.6355  0.0464  0.1679
17039TIP3   OH272531   0.390   1.940   1.996 -0.0154 -0.4466  0.6254
17039TIP3    H172532   0.369   2.017   2.047  3.0564  0.5204  0.5840
17039TIP3    H272533   0.433   1.880   2.057  0.9985 -0.5283 -0.1363
17040TIP3   OH272534   5.315   1.569  12.695 -0.2256 -0.3234 -0.2809
17040TIP3    H172535   5.310   1.631  12.622  0.9519  1.1313  0.8063
17040TIP3    H272536   5.241   1.593  12.751 -0.4427 -0.6579 -0.4268
17041TIP3   OH272537   6.202   5.641   1.345 -0.3911 -0.1845  0.0344
17041TIP3    H172538   6.160   5.564   1.307 -1.2695  1.3722 -2.3681
17041TIP3    H272539   6.223   5.696   1.270  0.5689  1.7643  1.6430
17042TIP3   OH272540   3.881   2.298  16.217 -0.2923  0.7561  0.2424
17042TIP3    H172541   3.924   2.254  16.290  0.5859 -0.3830 -0.9080
17042TIP3    H272542   3.941   2.367  16.190 -0.1841  0.5724  0.0103
17043TIP3   OH272543   1.645   0.584   6.385  0.6380 -0.7643 -0.0993
17043TIP3    H172544   1.649   0.679   6.398 -0.5700 -0.3776 -2.0687
17043TIP3    H272545   1.708   0.548   6.448  0.2558  1.2331  1.5087
17044TIP3   OH272546   0.802   2.883   5.774 -0.1679  0.7522 -0.2324
17044TIP3    H172547   0.880   2.845   5.814 -1.5280 -1.0944  0.8270
17044TIP3    H272548   0.759   2.809   5.731 -1.6385  1.6017 -0.2720
17045TIP3   OH272549   6.489   0.150   6.784 -0.2624  0.2938  0.3997
17045TIP3    H172550   6.557   0.164   6.718  1.1324  2.8447  2.1738
17045TIP3    H272551   6.412   0.195   6.750 -0.7935 -1.5911 -1.0787
17046TIP3   OH272552   4.502   1.204  15.712  0.3970  0.0980 -0.1800
17046TIP3    H172553   4.411   1.225  15.735  0.7691  0.5477  0.9600
17046TIP3    H272554   4.506   1.108  15.717 -0.1964  0.0174 -1.0128
17047TIP3   OH272555   4.299   0.118   5.190 -0.2873 -0.7706 -0.0225
17047TIP3    H172556   4.290   0.043   5.132  0.9410 -0.2161 -0.9632
17047TIP3    H272557   4.369   0.094   5.250 -1.3774 -1.2372  1.1067
17048TIP3   OH272558   4.379   0.848  14.002 -0.8273 -0.7031 -0.4252
17048TIP3    H172559   4.302   0.905  14.012  0.3688  0.7911  0.6788
17048TIP3    H272560   4.448   0.906  13.972  0.4434 -1.5623  0.7406
17049TIP3   OH272561   6.504   5.415   6.426  0.4210  0.3964 -0.0207
17049TIP3    H172562   6.420   5.425   6.381 -0.7940  2.6998  2.4440
17049TIP3    H272563   6.541   5.504   6.425  2.8485 -0.5611 -0.9765
17050TIP3   OH272564   0.573   4.983  13.493 -0.4317  0.0294  0.2640
17050TIP3    H172565   0.638   4.966  13.426 -0.5254  1.3844 -0.2018
17050TIP3    H272566   0.490   4.987  13.445 -0.7407 -0.7869  0.7218
17051TIP3   OH272567   4.828   0.906   5.198  0.2609 -0.4329 -0.4108
17051TIP3    H172568   4.902   0.868   5.245  1.5664  2.8479  0.4152
17051TIP3    H272569   4.759   0.912   5.264  1.0499  1.2414  0.3302
17052TIP3   OH272570   1.809   3.801   4.335 -0.2246  0.0124 -0.0008
17052TIP3    H172571   1.756   3.766   4.407 -0.9668  0.2733 -0.4143
17052TIP3    H272572   1.836   3.888   4.365 -0.8884  0.2958 -0.1964
17053TIP3   OH272573   6.457   2.145  16.803 -0.6311  0.4390 -0.3937
17053TIP3    H172574   6.501   2.070  16.763 -1.3576  0.8457 -2.0482
17053TIP3    H272575   6.525   2.211  16.813 -0.0719 -0.2615  0.7089
17054TIP3   OH272576   1.353   0.409  10.922 -0.2355 -0.1539 -0.5872
17054TIP3    H172577   1.350   0.492  10.970  0.9848  0.5159 -1.6015
17054TIP3    H272578   1.371   0.344  10.989  1.4751  0.7689 -0.0825
17055TIP3   OH272579   3.760   5.452   0.051 -0.3403 -0.2788 -0.3590
17055TIP3    H172580   3.788   5.459  -0.040 -1.8318  1.2908 -0.7418
17055TIP3    H272581   3.829   5.401   0.093  1.2532  0.4258 -1.9889
17056TIP3   OH272582   0.301   6.508   3.262 -0.1779  0.0489  0.6366
17056TIP3    H172583   0.383   6.460   3.275  0.5146  0.8803 -0.5314
17056TIP3    H272584   0.301   6.572   3.333 -1.2901 -1.8305  2.4370
17057TIP3   OH272585   0.010   4.290   3.714  0.2718 -0.1596  0.4429
17057TIP3    H172586   0.040   4.376   3.743 -0.2113 -0.6892  2.7550
17057TIP3    H272587  -0.020   4.247   3.795 -2.3740 -1.3588 -1.0502
17058TIP3   OH272588   1.201   5.509   0.499 -0.0729  0.6538 -0.3790
17058TIP3    H172589   1.195   5.497   0.594 -2.3878 -0.2080 -0.5688
17058TIP3    H272590   1.153   5.590   0.483  0.6160  0.9841 -0.7943
17059TIP3   OH272591   0.337   2.717  11.602 -0.3242 -0.4132  0.8058
17059TIP3    H172592   0.294   2.676  11.527 -0.2159 -0.5841  0.8361
17059TIP3    H272593   0.317   2.660  11.676  1.2494 -1.3701  0.5455
17060TIP3   OH272594   4.303   1.743   5.965 -0.2916  0.6984 -0.2977
17060TIP3    H172595   4.219   1.773   6.000 -1.3940 -0.5999 -1.6704
17060TIP3    H272596   4.314   1.794   5.884  0.0809  0.6235 -0.2946
17061TIP3   OH272597   0.387   1.762   1.523 -0.0695  0.2267 -0.3859
17061TIP3    H172598   0.438   1.681   1.523 -1.7934 -0.9100 -0.2462
17061TIP3    H272599   0.371   1.780   1.616 -0.4951  0.1961 -0.4526
17062TIP3   OH272600   5.525   4.058  14.181  0.1140  0.1851 -0.0676
17062TIP3    H172601   5.474   4.121  14.233 -0.6186 -0.6728  0.2699
17062TIP3    H272602   5.557   4.109  14.107 -1.4012  0.7104 -0.3909
17063TIP3   OH272603   4.637   0.856  11.110  0.0348 -0.6766 -0.0749
17063TIP3    H172604   4.732   0.870  11.112  0.0478 -0.8196  0.4849
17063TIP3    H272605   4.627   0.769  11.070  0.0719 -0.1564 -1.2631
17064TIP3   OH272606   4.844   4.312  15.257 -0.7643 -0.1173 -0.2741
17064TIP3    H172607   4.863   4.267  15.340  1.6521 -0.8316 -1.1353
17064TIP3    H272608   4.855   4.405  15.278 -0.9327 -0.2340  0.3716
17065TIP3   OH272609   4.719   0.162   5.260  0.1131 -0.6418 -0.1338
17065TIP3    H172610   4.743   0.142   5.170 -0.5739 -2.0620 -0.0273
17065TIP3    H272611   4.785   0.225   5.289  0.3695 -0.1962 -1.5969
17066TIP3   OH272612   0.332   3.720  16.285  0.5307 -0.4975  0.1375
17066TIP3    H172613   0.408   3.704  16.230  0.4789  0.2641 -0.1730
17066TIP3    H272614   0.277   3.779  16.233  0.2445 -0.1700  0.7996
17067TIP3   OH272615   0.780   0.876  15.688  0.3137  0.3576 -0.0704
17067TIP3    H172616   0.722   0.830  15.627  0.5932  0.2039 -0.2268
17067TIP3    H272617   0.735   0.958  15.708  0.1313  0.3230 -0.3369
17068TIP3   OH272618   1.076   6.302  16.447  0.1959 -0.5931 -0.5592
17068TIP3    H172619   1.088   6.236  16.379  0.2978  0.2745 -1.3910
17068TIP3    H272620   1.138   6.371  16.425  0.7219 -0.5954  0.8099
17069TIP3   OH272621   4.087   3.109  16.680 -0.3704 -0.4606 -0.3588
17069TIP3    H172622   4.122   3.170  16.615 -0.5787 -0.7010 -0.6962
17069TIP3    H272623   4.004   3.079  16.643 -0.5402 -0.5172  0.0679
17070TIP3   OH272624   1.804   6.449  14.290 -0.5054  0.0207  0.3193
17070TIP3    H172625   1.758   6.406  14.218  1.9119 -0.7432 -0.8967
17070TIP3    H272626   1.750   6.526  14.310 -2.2078 -0.7266 -1.0492
17071TIP3   OH272627   0.583   2.712  11.974 -0.9530 -0.0784 -0.2689
17071TIP3    H172628   0.603   2.750  11.888 -0.6262  0.6453  0.1194
17071TIP3    H272629   0.535   2.782  12.019  0.4408  0.2376  0.7910
17072TIP3   OH272630   4.361   5.705   3.886  0.7124 -0.0645  0.2539
17072TIP3    H172631   4.391   5.772   3.825 -1.4340  0.5813 -0.1908
17072TIP3    H272632   4.315   5.641   3.831 -1.0241  0.3954  1.0939
17073TIP3   OH272633   5.116   5.985   3.619 -0.0732  0.0698 -0.1565
17073TIP3    H172634   5.154   5.910   3.573 -1.1628  0.1395 -1.2282
17073TIP3    H272635   5.082   5.949   3.701  1.6085 -0.1181  0.4838
17074TIP3   OH272636   6.504   2.779   4.005 -0.3284 -0.3600 -0.6828
17074TIP3    H172637   6.485   2.831   4.083  1.2205  2.1634 -1.8608
17074TIP3    H272638   6.497   2.688   4.035 -0.5924  0.4888  2.1543
17075TIP3   OH272639   0.222   1.936  11.553  0.0017  0.4128  0.3279
17075TIP3    H172640   0.271   1.856  11.538  2.1554  1.7521 -0.1568
17075TIP3    H272641   0.194   1.964  11.466 -0.1930  0.5224  0.4253
17076TIP3   OH272642   5.640   0.384  12.549 -0.1784 -0.5300  0.4838
17076TIP3    H172643   5.560   0.436  12.541 -1.2811 -2.3656 -1.2514
17076TIP3    H272644   5.621   0.323  12.620  0.8676  0.8944  2.0696
17077TIP3   OH272645   6.003   5.371  16.585 -0.0077 -0.1783 -0.0655
17077TIP3    H172646   5.974   5.421  16.661 -1.3108 -2.1413  0.8055
17077TIP3    H272647   5.935   5.388  16.519 -0.7941 -1.2671  0.4484
17078TIP3   OH272648   5.773   2.175  10.979  0.0657  0.4408  0.0981
17078TIP3    H172649   5.688   2.139  10.954  0.2260  0.3642 -0.3443
17078TIP3    H272650   5.828   2.099  10.996 -0.5710  0.4637  2.6045
17079TIP3   OH272651   4.571   1.260  11.752  0.3032  0.4320 -0.0112
17079TIP3    H172652   4.505   1.191  11.760 -0.5730  1.4320  2.1459
17079TIP3    H272653   4.537   1.318  11.685 -0.6101  0.4900  0.4941
17080TIP3   OH272654   1.100   0.133   0.363  0.1611 -0.5179  0.4218
17080TIP3    H172655   1.081   0.227   0.364 -2.4343 -0.9424 -0.4900
17080TIP3    H272656   1.124   0.115   0.272 -2.8678 -1.2093 -0.3752
17081TIP3   OH272657   4.235   5.582  13.661 -0.7377 -0.2426  0.0649
17081TIP3    H172658   4.203   5.522  13.729 -3.4082  0.7907 -0.1642
17081TIP3    H272659   4.159   5.635  13.638  0.3433  0.1580 -3.0194
17082TIP3   OH272660   6.254   1.504  10.234 -0.1882  0.1914  0.3332
17082TIP3    H172661   6.160   1.493  10.246 -0.3653  2.2653  1.1762
17082TIP3    H272662   6.264   1.523  10.141 -0.9970  2.8684  0.7146
17083TIP3   OH272663   5.610   1.976  12.482  0.0093 -0.2805 -0.2815
17083TIP3    H172664   5.656   1.955  12.563 -2.8785 -3.2055  0.8209
17083TIP3    H272665   5.550   2.047  12.505 -1.4323 -1.6870  0.5184
17084TIP3   OH272666   2.853   6.056  14.156 -0.3466 -0.1507 -0.2263
17084TIP3    H172667   2.915   6.028  14.089 -1.2205 -1.8078 -0.3861
17084TIP3    H272668   2.784   6.101  14.108  0.5727  1.5385 -0.0655
17085TIP3   OH272669   3.756   2.185   1.496  0.5629  0.0479  0.3904
17085TIP3    H172670   3.743   2.255   1.432 -2.4848 -1.0500 -0.3476
17085TIP3    H272671   3.782   2.109   1.444 -0.2075 -0.4046  0.6501
17086TIP3   OH272672   4.834   4.944   1.225  0.2330  0.3374  0.1525
17086TIP3    H172673   4.820   4.860   1.182  1.8084  0.2893 -0.3469
17086TIP3    H272674   4.751   4.991   1.216 -0.5249 -0.9915  0.0597
17087TIP3   OH272675   3.904   3.441   4.299  0.6969 -0.5266 -0.3861
17087TIP3    H172676   3.870   3.353   4.313  0.2621 -0.2406  0.3742
17087TIP3    H272677   3.870   3.493   4.372  2.2271 -0.0873  0.0640
17088TIP3   OH272678   2.281   1.498   4.970  0.3767 -0.0697  0.4195
17088TIP3    H172679   2.315   1.486   5.059  2.5621 -0.7120 -0.4211
17088TIP3    H272680   2.276   1.409   4.935  1.4630  0.3063 -0.7330
17089TIP3   OH272681   4.682   5.893   5.597  0.3442 -0.5497  0.0193
17089TIP3    H172682   4.589   5.897   5.575 -0.1261  0.1391  1.9277
17089TIP3    H272683   4.723   5.855   5.519 -1.6582 -1.9099 -0.4717
17090TIP3   OH272684   2.647   3.687  15.825  0.2191  0.1140 -0.0608
17090TIP3    H172685   2.637   3.592  15.817  0.7569  0.1609 -1.7785
17090TIP3    H272686   2.712   3.699  15.894 -1.2097 -0.6665  1.4772
17091TIP3   OH272687   4.254   4.440  11.184 -0.0053 -0.0096  0.5029
17091TIP3    H172688   4.245   4.531  11.213 -1.0005 -0.1433  0.6289
17091TIP3    H272689   4.242   4.445  11.089  0.5002  0.0574  0.4386
17092TIP3   OH272690   2.421   1.055  13.221  0.1363  0.1217  0.6746
17092TIP3    H172691   2.438   1.077  13.313 -1.6432  0.4359  0.9665
17092TIP3    H272692   2.485   1.107  13.173  1.5923 -0.6016  1.7390
17093TIP3   OH272693   2.638   1.524   2.464 -0.0912  0.1101  0.9364
17093TIP3    H172694   2.630   1.485   2.376 -1.2268 -0.8500  1.4476
17093TIP3    H272695   2.733   1.530   2.478  0.1663 -2.0538  0.6168
17094TIP3   OH272696   4.967   1.430   2.851 -0.3740  0.8829 -0.2173
17094TIP3    H172697   5.011   1.514   2.841 -1.1738  1.2595 -0.6693
17094TIP3    H272698   4.983   1.385   2.768 -1.3708  1.2845 -0.6365
17095TIP3   OH272699   1.233   4.700   4.977 -0.1945  0.4104 -0.2065
17095TIP3    H172700   1.162   4.636   4.978 -1.4055  1.7123  0.3818
17095TIP3    H272701   1.313   4.647   4.973 -1.1288 -1.1501  0.8683
17096TIP3   OH272702   1.219   5.039   4.437 -0.1647 -0.3195  0.0583
17096TIP3    H172703   1.305   5.077   4.419 -2.0622  3.6008 -1.9709
17096TIP3    H272704   1.211   5.043   4.532  1.8678 -0.8710  0.3023
17097TIP3   OH272705   6.095   2.990  17.155 -0.4398  0.3661  0.7598
17097TIP3    H172706   6.165   3.016  17.215  0.2963  3.3490 -1.1827
17097TIP3    H272707   6.084   3.065  17.097 -2.3630 -1.6341 -1.7044
17098TIP3   OH272708   1.719   0.323   0.064 -0.3019 -0.5652  0.0839
17098TIP3    H172709   1.769   0.329   0.145  0.6059 -0.4352 -0.4735
17098TIP3    H272710   1.660   0.399   0.067 -0.4809 -0.7236  0.7478
17099TIP3   OH272711   0.290   2.364  13.146 -0.3014 -0.1721 -0.3008
17099TIP3    H172712   0.213   2.411  13.180 -1.3022 -1.6863 -0.3638
17099TIP3    H272713   0.352   2.433  13.124 -1.0261  1.0462  1.2094
17100TIP3   OH272714   0.014   6.217   5.743 -0.0285  0.1504  0.1186
17100TIP3    H172715   0.074   6.286   5.713 -1.1174  0.1947 -2.2223
17100TIP3    H272716  -0.065   6.264   5.770 -0.1646 -0.0683  0.1013
17101TIP3   OH272717   6.008   4.033  12.159  0.2957  0.3877 -0.2196
17101TIP3    H172718   6.085   4.040  12.103  0.0042 -1.0184 -0.8484
17101TIP3    H272719   5.945   4.095  12.121  1.5054  2.5113  1.0693
17102TIP3   OH272720   1.685   1.791   5.463  0.2185 -0.2044 -0.1613
17102TIP3    H172721   1.702   1.874   5.418 -1.6902  0.5046  0.2769
17102TIP3    H272722   1.721   1.724   5.406 -0.6812  0.7643 -1.9530
17103TIP3   OH272723   0.026   2.400  14.465  0.3069  0.6978 -0.4355
17103TIP3    H172724   0.009   2.468  14.530 -3.0266 -0.7714  0.5013
17103TIP3    H272725  -0.060   2.360  14.450  1.6429 -1.5841 -2.8788
17104TIP3   OH272726   6.199   6.393   3.496 -0.3521  0.4764  0.3226
17104TIP3    H172727   6.217   6.374   3.588  0.1583 -0.1985  0.0885
17104TIP3    H272728   6.141   6.470   3.498 -0.6718  0.2175  1.2174
17105TIP3   OH272729   5.860   3.265  13.934  0.4867  0.2680 -0.0919
17105TIP3    H172730   5.900   3.276  14.020  0.7960 -0.7801 -0.0887
17105TIP3    H272731   5.906   3.191  13.895 -0.8507 -0.4337 -0.4221
17106TIP3   OH272732   1.775   5.227   6.419 -0.6613  0.0371  0.1060
17106TIP3    H172733   1.721   5.305   6.404  0.1363  0.1863 -2.3720
17106TIP3    H272734   1.854   5.261   6.462 -0.9783  0.3525  0.4486
17107TIP3   OH272735   5.850   6.066   1.819 -0.0155 -0.2283 -0.0644
17107TIP3    H172736   5.917   6.000   1.833 -0.1048 -0.6927 -1.6071
17107TIP3    H272737   5.900   6.146   1.801  0.0999 -0.1219  0.7020
17108TIP3   OH272738   0.050   4.510   4.464 -0.5909  0.0859 -0.5841
17108TIP3    H172739   0.046   4.420   4.433 -0.9149  0.3521 -1.3408
17108TIP3    H272740  -0.004   4.511   4.543  1.4914 -0.9616  0.9545
17109TIP3   OH272741   1.944   5.114  10.825 -0.3573 -0.7929  0.0263
17109TIP3    H172742   1.958   5.159  10.742 -0.5596  0.3162  0.5736
17109TIP3    H272743   1.918   5.183  10.886  2.5871 -1.0581  1.7790
17110TIP3   OH272744   4.766   4.138   1.866  0.2344  0.0653  0.0700
17110TIP3    H172745   4.774   4.182   1.950  0.2997 -1.0273  0.6566
17110TIP3    H272746   4.837   4.074   1.865  0.1245 -0.0602 -0.7440
17111TIP3   OH272747   0.083   1.177  15.951  0.3793  0.3437  0.3933
17111TIP3    H172748   0.014   1.165  15.886  0.2598  1.3323  0.3259
17111TIP3    H272749   0.157   1.126  15.917  0.0586  0.2083 -0.1116
17112TIP3   OH272750   1.686   6.255   5.511  0.0169  0.2758  0.3313
17112TIP3    H172751   1.657   6.345   5.523  2.4321  1.3383 -1.1729
17112TIP3    H272752   1.755   6.243   5.577  0.1860 -0.2474  0.0637
17113TIP3   OH272753   6.440   0.088   1.927 -0.1487 -0.2777 -0.5971
17113TIP3    H172754   6.464   0.171   1.884  1.5475  1.0582  2.5443
17113TIP3    H272755   6.497   0.023   1.886  1.8902  1.0592 -0.0953
17114TIP3   OH272756   3.268   5.768  12.499 -0.4681 -0.4804  0.1617
17114TIP3    H172757   3.338   5.811  12.450 -0.7647 -0.7860 -0.5356
17114TIP3    H272758   3.305   5.754  12.586  0.8791 -1.9627 -0.5883
17115TIP3   OH272759   1.837   3.444  12.139  0.2305  0.1102  0.8023
17115TIP3    H172760   1.877   3.447  12.052 -0.7229 -1.0230  0.3026
17115TIP3    H272761   1.765   3.382  12.130  1.1556 -1.3642  2.8412
17116TIP3   OH272762   3.733   4.493   2.296  0.0041  0.2676 -0.6434
17116TIP3    H172763   3.731   4.400   2.276  1.2750  0.1546 -0.2923
17116TIP3    H272764   3.658   4.529   2.248  0.0062 -0.7880 -1.4827
17117TIP3   OH272765   5.035   3.988  15.797  0.6024  0.1064 -0.6926
17117TIP3    H172766   5.009   4.003  15.888  0.3447  0.4466 -0.8189
17117TIP3    H272767   5.060   4.074  15.765  2.1140 -0.2461 -0.5114
17118TIP3   OH272768   3.958   5.989  16.284  0.3726 -0.4700 -0.2252
17118TIP3    H172769   4.016   6.066  16.283 -0.7724  0.4274 -0.0926
17118TIP3    H272770   3.918   5.991  16.371  0.3148 -1.2135 -0.2350
17119TIP3   OH272771   1.002   2.935  14.190 -0.2913 -0.0487  0.4079
17119TIP3    H172772   1.073   2.878  14.222 -0.7784 -0.4895  0.7098
17119TIP3    H272773   0.922   2.895  14.224 -0.8791 -0.7734 -1.6818
17120TIP3   OH272774   5.174   0.788  11.456  0.0012  0.1545 -0.0069
17120TIP3    H172775   5.089   0.832  11.443  0.0439  0.0453 -0.6441
17120TIP3    H272776   5.151   0.704  11.496 -0.2309 -0.0643 -0.5841
17121TIP3   OH272777   1.824   1.066  11.852 -0.6516 -0.5872  0.5628
17121TIP3    H172778   1.919   1.069  11.861 -0.6790 -1.7737  1.6804
17121TIP3    H272779   1.806   1.103  11.766  0.7988 -0.1040  0.4472
17122TIP3   OH272780   5.361   3.909  13.197  0.0214  0.3814  0.0528
17122TIP3    H172781   5.334   3.837  13.253  0.2720  1.1388  1.1688
17122TIP3    H272782   5.310   3.985  13.228 -2.5586  0.1407 -3.0358
17123TIP3   OH272783   0.275   4.545   1.883 -0.2469  0.0676 -0.6841
17123TIP3    H172784   0.324   4.623   1.909 -2.1115  0.4349  2.2190
17123TIP3    H272785   0.334   4.499   1.823  3.5902  0.5508  2.2951
17124TIP3   OH272786   1.143   6.676   2.575 -0.4312 -0.2671 -0.1247
17124TIP3    H172787   1.093   6.754   2.600 -0.2382 -0.2813  0.3170
17124TIP3    H272788   1.105   6.649   2.492 -1.1963 -0.3111  0.2284
17125TIP3   OH272789   6.750   1.371   4.394 -0.1094 -0.0987 -0.5135
17125TIP3    H172790   6.702   1.341   4.472 -2.3460  1.5583 -1.1508
17125TIP3    H272791   6.794   1.452   4.422 -0.2381  0.0529 -0.7430
17126TIP3   OH272792   1.756   3.358  13.909 -0.1090 -0.0412 -0.3613
17126TIP3    H172793   1.662   3.357  13.887  0.3982  0.5549 -2.7659
17126TIP3    H272794   1.783   3.449  13.898  0.4494  0.1693  2.0805
17127TIP3   OH272795   5.956   3.198   1.097 -0.3448 -0.5290  0.1459
17127TIP3    H172796   5.948   3.268   1.161 -1.4650  1.1693 -1.7075
17127TIP3    H272797   5.904   3.127   1.132 -0.1204 -0.0175  1.5641
17128TIP3   OH272798   4.258   1.309  15.396  0.0594 -0.3905  0.3992
17128TIP3    H172799   4.169   1.277  15.411 -0.2332  0.4182  0.4372
17128TIP3    H272800   4.273   1.371  15.467  0.3353  0.1149 -0.0913
17129TIP3   OH272801   6.618   4.785  13.844  0.2171 -0.2283 -0.4668
17129TIP3    H172802   6.686   4.793  13.910  0.2662  2.3174 -0.7427
17129TIP3    H272803   6.646   4.843  13.773 -0.3502 -2.0924 -2.3221
17130TIP3   OH272804   3.719   6.582   1.863  0.0704 -0.1331 -0.0414
17130TIP3    H172805   3.788   6.646   1.844  0.6186 -0.4274  0.8798
17130TIP3    H272806   3.666   6.579   1.783 -1.3238  3.1290  0.6339
17131TIP3   OH272807   1.343   3.987  11.575  0.6875 -0.8252  0.1391
17131TIP3    H172808   1.381   3.988  11.663 -0.5356  0.7957  0.6859
17131TIP3    H272809   1.319   3.896  11.560 -1.0577 -0.8074  2.3806
17132TIP3   OH272810   0.986   6.177  16.100 -0.3277  0.3869 -0.3046
17132TIP3    H172811   0.946   6.129  16.028  1.0287 -1.6636  0.2271
17132TIP3    H272812   0.925   6.168  16.172  0.1196 -0.9868 -0.0786
17133TIP3   OH272813   4.071   3.000   3.592 -0.1156 -0.6915  0.8214
17133TIP3    H172814   4.155   3.019   3.635  0.2366 -0.1890 -0.0644
17133TIP3    H272815   4.094   2.989   3.500 -1.2253  0.9580  0.3189
17134TIP3   OH272816   3.143   0.032  14.897  0.2654  0.1063 -0.1399
17134TIP3    H172817   3.073   0.071  14.950 -2.4954 -2.6129 -1.5026
17134TIP3    H272818   3.128   0.068  14.809  1.2870  0.2946 -0.2444
17135TIP3   OH272819   1.434   4.209   0.718  0.2767  0.4039  0.2914
17135TIP3    H172820   1.412   4.200   0.626  3.5508 -1.0711 -0.4803
17135TIP3    H272821   1.482   4.292   0.723  0.9325  0.0190  0.4672
17136TIP3   OH272822   4.709   0.641  15.323 -0.9947 -0.0934 -0.0357
17136TIP3    H172823   4.756   0.584  15.383  0.2750  1.6799  0.7389
17136TIP3    H272824   4.761   0.640  15.242 -0.1969  0.9842  0.4405
17137TIP3   OH272825   1.896   3.939   5.134  0.1730  0.1593 -0.5298
17137TIP3    H172826   1.951   4.007   5.094  0.7192  0.0543  0.0251
17137TIP3    H272827   1.958   3.885   5.184 -0.5053  0.3338  0.5260
17138TIP3   OH272828   4.169   6.704   2.791  0.1919 -0.5685  0.2691
17138TIP3    H172829   4.074   6.698   2.804  0.1193  1.0676  0.7065
17138TIP3    H272830   4.202   6.619   2.818 -1.1932 -1.3708 -0.4046
17139TIP3   OH272831   1.601   3.459   2.830 -0.1958 -0.8777  0.1102
17139TIP3    H172832   1.539   3.493   2.766  0.4590 -2.0295 -1.1864
17139TIP3    H272833   1.547   3.409   2.892 -0.6286 -1.4642 -0.7241
17140TIP3   OH272834   5.141   1.285   0.392  0.7388 -0.6015 -0.0476
17140TIP3    H172835   5.096   1.326   0.319  1.6818 -0.7701 -0.7522
17140TIP3    H272836   5.208   1.348   0.417 -0.2997 -0.0479  1.4453
17141TIP3   OH272837   4.081   2.204  16.408  0.0506 -0.1155 -0.0788
17141TIP3    H172838   4.118   2.150  16.338 -1.0617 -1.8485  0.6056
17141TIP3    H272839   4.138   2.189  16.483  0.7352  1.0581 -0.3366
17142TIP3   OH272840   0.479   4.915   3.152 -0.0867 -0.0967  0.1119
17142TIP3    H172841   0.495   4.840   3.208 -0.3239 -0.5696 -0.4411
17142TIP3    H272842   0.541   4.904   3.079  1.1845  1.2290  0.9244
17143TIP3   OH272843   6.101   2.401   3.820  0.7433  0.2288  0.1190
17143TIP3    H172844   6.139   2.330   3.769  0.0328  1.5063 -2.3925
17143TIP3    H272845   6.174   2.461   3.837  0.5391  1.1504 -1.9516
17144TIP3   OH272846   5.376   2.243   1.808  0.4910  0.0284  0.0116
17144TIP3    H172847   5.432   2.286   1.743 -1.9527  0.6935 -1.8064
17144TIP3    H272848   5.360   2.310   1.874  0.6559  0.3059 -0.2272
17145TIP3   OH272849   6.659   6.150  15.003 -0.3862 -0.6101  0.6169
17145TIP3    H172850   6.614   6.171  15.085 -1.6019  0.7599 -0.3408
17145TIP3    H272851   6.749   6.131  15.029 -0.5297  0.6731  2.1969
17146TIP3   OH272852   3.235   3.184   3.236 -0.3696 -0.2619 -0.5440
17146TIP3    H172853   3.233   3.223   3.323  0.2237  0.6139 -0.9073
17146TIP3    H272854   3.252   3.091   3.251 -0.2808 -0.1191  0.2646
17147TIP3   OH272855   0.232   2.964   0.402 -0.1617  0.3790 -0.3562
17147TIP3    H172856   0.306   2.904   0.406 -0.0809  0.4738 -0.4296
17147TIP3    H272857   0.171   2.922   0.340 -0.9264 -0.5402  0.9602
17148TIP3   OH272858   4.064   2.069   1.963  0.2739 -0.0577  0.2154
17148TIP3    H172859   4.134   2.129   1.988 -1.2754  1.2001  1.8292
17148TIP3    H272860   3.993   2.126   1.933 -0.5712 -1.2031 -0.0308
17149TIP3   OH272861   2.354   5.282   4.102  0.4240 -0.1090  0.3466
17149TIP3    H172862   2.393   5.302   4.187 -1.2050 -1.5985  1.5057
17149TIP3    H272863   2.337   5.188   4.105  1.8503 -0.5441 -2.3194
17150TIP3   OH272864   1.306   1.978   1.397  0.2054 -0.1781 -0.2012
17150TIP3    H172865   1.295   1.937   1.311  0.4630 -1.5382  0.3741
17150TIP3    H272866   1.322   2.070   1.378 -1.3806 -0.1256 -1.5268
17151TIP3   OH272867   2.640   1.999   2.467  0.6123 -0.0300  0.7416
17151TIP3    H172868   2.615   2.077   2.517 -1.2936  0.7257 -1.2310
17151TIP3    H272869   2.600   1.927   2.516 -1.9446  0.7701  0.0080
17152TIP3   OH272870   3.813   2.766   3.939  0.5166 -0.9033 -0.8678
17152TIP3    H172871   3.823   2.705   4.013  0.3939 -0.9300 -0.8722
17152TIP3    H272872   3.883   2.830   3.951 -0.4121 -0.0320  0.1229
17153TIP3   OH272873   1.902   2.622  12.188  0.4820  0.3735 -0.1119
17153TIP3    H172874   1.995   2.617  12.210  0.7187 -0.7783 -1.2637
17153TIP3    H272875   1.900   2.650  12.097 -0.2356 -0.7744 -0.4780
17154TIP3   OH272876   2.756   5.332  12.225 -0.3983 -0.1027 -0.0070
17154TIP3    H172877   2.839   5.288  12.206 -0.6110 -1.0578  1.1621
17154TIP3    H272878   2.694   5.261  12.240 -1.2199  0.6004  0.0140
17155TIP3   OH272879   0.331   0.201  11.407  0.1449 -0.0615  0.5297
17155TIP3    H172880   0.247   0.213  11.452 -0.4139 -1.2977 -0.1098
17155TIP3    H272881   0.308   0.152  11.328  1.3333  0.5634 -0.2301
17156TIP3   OH272882   2.569   2.472  16.816  0.2208 -0.0721 -0.4605
17156TIP3    H172883   2.514   2.550  16.808 -0.6458 -0.5279  0.7173
17156TIP3    H272884   2.524   2.406  16.764  1.0413  0.2311 -1.5920
17157TIP3   OH272885   2.695   4.203  14.039  0.3504  0.0531 -0.3448
17157TIP3    H172886   2.735   4.212  14.125 -1.3844  0.8263  0.4236
17157TIP3    H272887   2.676   4.293  14.012 -1.2547 -0.2990 -0.4616
17158TIP3   OH272888   5.491   4.563   3.253  0.3297  0.5332  0.0895
17158TIP3    H172889   5.423   4.604   3.306 -0.1238  0.9001 -0.7603
17158TIP3    H272890   5.477   4.469   3.265  0.4115  0.6077  0.8327
17159TIP3   OH272891   6.307   2.339  16.581  0.2734 -0.1667  0.4018
17159TIP3    H172892   6.355   2.257  16.590  0.2423 -0.0398  1.9177
17159TIP3    H272893   6.297   2.372  16.670 -0.6733  0.9399 -0.0751
17160TIP3   OH272894   2.473   1.774  17.244 -0.1622 -0.3327  0.1432
17160TIP3    H172895   2.522   1.844  17.200 -0.8822  0.7780  1.0485
17160TIP3    H272896   2.479   1.699  17.185  1.6865  0.0962 -0.2820
17161TIP3   OH272897   4.199   0.659  13.764  0.0335 -0.1937 -0.5208
17161TIP3    H172898   4.143   0.716  13.817  0.5693 -0.2965  0.1738
17161TIP3    H272899   4.225   0.714  13.690  0.3149  0.3791 -0.0106
17162TIP3   OH272900   0.028   1.702  12.213 -0.4404 -0.2095 -0.9778
17162TIP3    H172901   0.118   1.716  12.182 -0.6046  2.7028 -0.4776
17162TIP3    H272902   0.027   1.612  12.244  2.6566 -0.0267  0.0448
17163TIP3   OH272903   3.420   6.204  12.294 -0.6650  0.1346 -0.4669
17163TIP3    H172904   3.430   6.287  12.341 -0.5571  0.3986 -0.9471
17163TIP3    H272905   3.420   6.229  12.201  0.4835 -0.5111 -0.6619
17164TIP3   OH272906   3.965   1.902   4.775 -0.4668 -0.3544 -0.3415
17164TIP3    H172907   3.980   1.821   4.824  0.7282 -0.0001 -0.0878
17164TIP3    H272908   4.016   1.968   4.822 -0.0431  0.1856 -1.5181
17165TIP3   OH272909   2.366   3.078  15.627  0.1467 -0.2028 -0.2063
17165TIP3    H172910   2.414   3.155  15.595 -1.1819  0.9525  0.4484
17165TIP3    H272911   2.274   3.099  15.610 -0.3072 -1.2206  0.8906
17166TIP3   OH272912   6.355   5.657   2.329 -0.2715  0.4729 -0.1328
17166TIP3    H172913   6.420   5.671   2.398 -0.7555  0.3053  0.3695
17166TIP3    H272914   6.392   5.701   2.252  0.0777  1.0564  0.3524
17167TIP3   OH272915   2.891   6.552  14.955  0.2791 -0.2787  0.2545
17167TIP3    H172916   2.929   6.585  15.036  1.6786 -0.2959 -0.3692
17167TIP3    H272917   2.817   6.610  14.938  1.7525  1.6371 -0.0013
17168TIP3   OH272918   6.725   2.132  15.991 -0.1695  0.0124 -0.6277
17168TIP3    H172919   6.745   2.160  15.902  0.9783  0.2661 -0.2988
17168TIP3    H272920   6.634   2.103  15.987 -1.1099  2.7433 -1.2328
17169TIP3   OH272921   2.718   5.782  12.544  0.7614  0.4535  0.5131
17169TIP3    H172922   2.802   5.737  12.541  0.2985 -0.4833  0.9428
17169TIP3    H272923   2.696   5.785  12.637  0.9951  2.0161  0.5319
17170TIP3   OH272924   3.894   5.027  15.026  0.1886 -0.2704  0.2186
17170TIP3    H172925   3.850   4.975  15.093  0.9236 -0.8114  0.3053
17170TIP3    H272926   3.928   4.962  14.964  0.5268  0.1501 -0.0456
17171TIP3   OH272927   2.627   5.132   4.562  0.0519  0.1246 -0.0427
17171TIP3    H172928   2.549   5.142   4.617  0.8304 -0.6236  1.2499
17171TIP3    H272929   2.682   5.069   4.609  1.5240  0.7649 -0.8238
17172TIP3   OH272930   0.246   3.787  10.924 -0.2756  0.4642 -0.6462
17172TIP3    H172931   0.182   3.778  10.853  0.1182  1.0091 -1.0680
17172TIP3    H272932   0.201   3.839  10.990 -0.2319  0.9312 -0.9858
17173TIP3   OH272933   5.990   0.093  15.425 -0.1377 -0.6598  0.3629
17173TIP3    H172934   5.908   0.047  15.404  0.8455 -1.2241 -2.8568
17173TIP3    H272935   5.966   0.185  15.424 -0.6408 -0.7737 -1.3997
17174TIP3   OH272936   3.036   2.189   5.731  0.0729  0.0594 -0.7482
17174TIP3    H172937   2.979   2.121   5.765  1.3773 -0.6410  0.1302
17174TIP3    H272938   2.980   2.241   5.673 -1.1825 -1.1735 -0.6874
17175TIP3   OH272939   2.583   3.257   1.611  0.4609 -0.2340 -0.7703
17175TIP3    H172940   2.666   3.268   1.658 -0.5083 -1.6920  1.4867
17175TIP3    H272941   2.578   3.332   1.552  3.4920 -0.2657 -1.2182
17176TIP3   OH272942   3.215   1.646  14.138 -0.4497  0.5440 -0.0300
17176TIP3    H172943   3.263   1.687  14.210 -0.0913  0.4248 -0.1964
17176TIP3    H272944   3.240   1.697  14.061  0.4329 -0.3066 -0.3332
17177TIP3   OH272945   1.828   1.526  16.627 -0.4338  0.8599 -0.2257
17177TIP3    H172946   1.871   1.597  16.579  1.4986  0.3832  0.7163
17177TIP3    H272947   1.767   1.571  16.685 -0.4842  1.6310 -0.8456
17178TIP3   OH272948   5.634   1.672  16.310  0.0503 -0.2885  0.2288
17178TIP3    H172949   5.625   1.711  16.223  0.0684 -0.0339  0.3426
17178TIP3    H272950   5.650   1.746  16.368 -0.4351 -0.4061  0.5206
17179TIP3   OH272951   5.412   1.237  13.558 -0.0842 -0.0340 -0.2164
17179TIP3    H172952   5.435   1.144  13.562 -4.7890 -1.4330  0.2864
17179TIP3    H272953   5.440   1.272  13.642 -0.8817 -1.8430  0.8757
17180TIP3   OH272954   3.092   0.305   1.078 -0.1126  0.5971 -0.2040
17180TIP3    H172955   3.142   0.356   1.142  0.5674 -0.1635 -0.1078
17180TIP3    H272956   3.133   0.325   0.994 -0.0985  0.5180 -0.2162
17181TIP3   OH272957   2.113   4.351  12.371  0.2796  0.0760  0.3914
17181TIP3    H172958   2.035   4.354  12.316  0.5183 -0.9027 -0.0156
17181TIP3    H272959   2.136   4.259  12.375  2.0595  0.4596 -0.3983
17182TIP3   OH272960   0.401   3.521  13.523 -0.0894 -0.6003 -0.2633
17182TIP3    H172961   0.388   3.515  13.428  1.6391  1.0486 -0.6736
17182TIP3    H272962   0.332   3.466  13.560 -1.3974 -0.5609 -2.4336
17183TIP3   OH272963   1.069   1.941  13.969  0.0179  0.2383  0.4133
17183TIP3    H172964   1.064   1.983  14.055  1.2131 -0.7282  0.9813
17183TIP3    H272965   1.002   1.872  13.973  0.4196 -0.1342  0.7633
17184TIP3   OH272966   0.228   2.180  15.052 -0.3067 -0.4418 -0.2164
17184TIP3    H172967   0.179   2.101  15.032 -0.4499 -0.0925 -1.3013
17184TIP3    H272968   0.177   2.222  15.122 -1.4209 -0.2339 -1.1134
17185TIP3   OH272969   3.421   2.888  15.549 -0.6521 -0.2269  0.2646
17185TIP3    H172970   3.467   2.807  15.570 -0.1299 -0.3096 -1.0921
17185TIP3    H272971   3.332   2.874  15.580 -0.6096 -1.3952 -0.1066
17186TIP3   OH272972   1.107   0.542   5.135 -0.3827 -0.0981  0.4159
17186TIP3    H172973   1.115   0.557   5.229  0.0379  0.8925  0.2386
17186TIP3    H272974   1.061   0.619   5.101  1.5523  0.7357 -0.4957
17187TIP3   OH272975   1.006   4.724  12.984  0.2579  0.0898  0.4314
17187TIP3    H172976   1.097   4.698  12.974 -0.1755 -1.2633 -0.3315
17187TIP3    H272977   1.009   4.812  13.022  1.8648  0.1973  0.0975
17188TIP3   OH272978   0.813   4.991  15.023  0.5968 -0.1993 -0.2495
17188TIP3    H172979   0.827   4.906  15.064 -0.6248  0.1502  0.9613
17188TIP3    H272980   0.727   5.018  15.054  0.3638  0.8442 -1.7593
17189TIP3   OH272981   6.207   1.053  12.700 -0.0923  0.2592 -0.0318
17189TIP3    H172982   6.285   1.105  12.682 -0.6451  0.6463 -1.4833
17189TIP3    H272983   6.233   0.963  12.678  0.7724 -0.1136  2.2042
17190TIP3   OH272984   2.654   1.168   1.904 -0.9488  0.4779  0.1407
17190TIP3    H172985   2.721   1.154   1.971 -0.7050  1.1455  0.0363
17190TIP3    H272986   2.635   1.080   1.871  3.5791  0.4540 -3.4748
17191TIP3   OH272987   5.655   4.147   6.067 -0.3782 -0.0851  0.0996
17191TIP3    H172988   5.580   4.207   6.065 -0.5488 -0.2403  1.3133
17191TIP3    H272989   5.639   4.091   6.143  0.2344 -1.0872 -0.4910
17192TIP3   OH272990   2.238   5.950  12.287  0.7769  0.1642  0.5684
17192TIP3    H172991   2.284   6.024  12.329 -1.7786  0.7494  2.5991
17192TIP3    H272992   2.195   5.989  12.211  0.4903  0.5000  0.8967
17193TIP3   OH272993   1.905   6.484  15.477  0.1260 -0.2348  0.0581
17193TIP3    H172994   1.934   6.512  15.564 -1.3453  0.2489  0.4218
17193TIP3    H272995   1.862   6.562  15.441 -0.8362 -0.9646 -0.3853
17194TIP3   OH272996   3.853   1.162  14.844 -0.4215 -0.3666 -0.3468
17194TIP3    H172997   3.783   1.209  14.888 -0.8818 -0.6829 -0.7243
17194TIP3    H272998   3.863   1.205  14.759 -0.1209 -0.2915 -0.2769
17195TIP3   OH272999   6.409   2.686  16.282 -0.1118  0.0398  0.0417
17195TIP3    H173000   6.480   2.749  16.288 -0.3502  0.2853  0.3466
17195TIP3    H273001   6.399   2.669  16.188 -0.0254  0.4317 -0.0399
17196TIP3   OH273002   1.429   1.774  14.006  0.6238 -0.0096  0.1089
17196TIP3    H173003   1.375   1.697  14.021  0.5272 -0.0402 -0.3798
17196TIP3    H273004   1.465   1.795  14.092 -1.4065  0.9472  0.7926
17197TIP3   OH273005   3.547   3.176  14.042  0.1054  0.0981 -0.2162
17197TIP3    H173006   3.584   3.201  14.126 -1.5862  0.5906  0.4374
17197TIP3    H273007   3.551   3.256  13.989  2.3067 -0.5342 -1.0835
17198TIP3   OH273008   3.803   4.479   6.802 -0.3668  0.2558 -0.4011
17198TIP3    H173009   3.884   4.457   6.755  1.1765 -0.6321  2.4643
17198TIP3    H273010   3.818   4.567   6.838 -0.1625 -0.3594  1.0853
17199TIP3   OH273011   2.929   1.201   2.403 -0.0107 -0.1941 -0.2070
17199TIP3    H173012   2.981   1.147   2.463  1.1204 -1.4044 -2.1733
17199TIP3    H273013   2.906   1.278   2.455 -0.4460 -1.8587  2.2701
17200TIP3   OH273014   1.779   2.443   4.257 -0.5104  0.1382  0.1009
17200TIP3    H173015   1.840   2.439   4.331 -0.2639 -0.8486 -0.1428
17200TIP3    H273016   1.811   2.516   4.204  3.0128 -2.7443 -2.1545
17201TIP3   OH273017   0.927   4.762  14.632  0.3607  0.0417 -0.3414
17201TIP3    H173018   0.890   4.676  14.652  1.0787 -0.3297 -0.5588
17201TIP3    H273019   0.852   4.819  14.618 -0.1437 -0.3039  0.8451
17202TIP3   OH273020   2.455   6.376  12.349 -0.3872  0.1802  0.0204
17202TIP3    H173021   2.477   6.410  12.262 -3.4181  0.6779 -0.6951
17202TIP3    H273022   2.497   6.290  12.352  0.8395  0.6803 -1.4144
17203TIP3   OH273023   3.780   4.206  14.683  0.2830  0.1311 -0.1306
17203TIP3    H173024   3.872   4.224  14.664  0.1854  0.6779 -0.0880
17203TIP3    H273025   3.749   4.157  14.606  0.8642 -0.9601  0.2974
17204TIP3   OH273026   4.604   2.404   4.140 -0.1067  0.4944 -0.0456
17204TIP3    H173027   4.662   2.464   4.187 -0.9540  0.2544  1.3952
17204TIP3    H273028   4.559   2.460   4.076  1.2031  0.8000 -0.7317
17205TIP3   OH273029   5.123   5.198   2.243 -0.2162  0.4338 -0.0072
17205TIP3    H173030   5.102   5.150   2.323 -1.4146  1.2719  0.2098
17205TIP3    H273031   5.145   5.286   2.274 -0.8135  0.7956 -0.5965
17206TIP3   OH273032   4.153   0.570  14.687  0.2781 -0.3342 -0.7519
17206TIP3    H173033   4.168   0.604  14.775 -0.5455  0.5717 -0.9408
17206TIP3    H273034   4.187   0.480  14.690  0.3588 -0.2832  0.4558
17207TIP3   OH273035   5.543   4.381  16.304  0.2434  0.5292  0.4342
17207TIP3    H173036   5.550   4.291  16.335 -0.3700 -0.5963 -2.3599
17207TIP3    H273037   5.449   4.396  16.293  0.3634  1.3711  0.4519
17208TIP3   OH273038   2.222   0.786   3.331 -0.0847 -0.0296  0.9477
17208TIP3    H173039   2.310   0.775   3.367 -0.0943  0.0897  1.0079
17208TIP3    H273040   2.236   0.799   3.238 -0.0416 -0.0577  0.9502
17209TIP3   OH273041   2.111   4.589   1.975 -0.4195  0.1765  0.0512
17209TIP3    H173042   2.145   4.596   2.065  1.1955  1.0828 -0.5782
17209TIP3    H273043   2.179   4.541   1.928 -1.1548 -0.1032 -0.7449
17210TIP3   OH273044   1.986   3.123   4.390  0.8322  0.1228  0.5224
17210TIP3    H173045   1.927   3.053   4.360  1.4140  0.5767 -1.9481
17210TIP3    H273046   2.054   3.078   4.439 -0.1279 -0.7267  1.1180
17211TIP3   OH273047   1.287   6.066   1.397 -0.5646 -0.1348 -0.7658
17211TIP3    H173048   1.370   6.028   1.369  1.0524  0.7744  2.3234
17211TIP3    H273049   1.224   5.994   1.392  0.8173 -1.3502 -1.3973
17212TIP3   OH273050   1.846   6.105  13.299  0.2214 -0.5642  0.2958
17212TIP3    H173051   1.766   6.076  13.256  0.3140  0.3716 -0.5826
17212TIP3    H273052   1.821   6.124  13.389 -1.1821  1.9894 -0.5113
17213TIP3   OH273053   3.530   2.453   2.199 -0.7949  0.2895 -0.1116
17213TIP3    H173054   3.468   2.497   2.141 -0.9215  0.0346 -0.1671
17213TIP3    H273055   3.610   2.506   2.192 -1.5820  1.8189  1.4891
17214TIP3   OH273056   4.293   1.569  14.576  0.2480 -0.7553  0.5122
17214TIP3    H173057   4.206   1.568  14.615  0.1715  1.4482  0.5267
17214TIP3    H273058   4.346   1.619  14.638  0.7854  0.4803 -0.8914
17215TIP3   OH273059   1.076   4.141   3.873 -0.3328  0.1239  0.1107
17215TIP3    H173060   1.009   4.203   3.844 -0.5662 -0.6125 -0.9800
17215TIP3    H273061   1.155   4.195   3.885 -0.4380  0.5892 -1.1701
17216TIP3   OH273062   2.055   0.118   1.894 -0.8921 -0.3049  0.3216
17216TIP3    H173063   2.045   0.152   1.804 -0.6503 -1.4434 -0.1509
17216TIP3    H273064   2.145   0.141   1.917 -1.5727  1.8444  1.1044
17217TIP3   OH273065   3.598   2.647  14.620 -0.0923  0.3245  0.4507
17217TIP3    H173066   3.560   2.559  14.622  1.0576 -0.1893  0.3422
17217TIP3    H273067   3.601   2.671  14.527 -1.5816  1.0303  0.5508
17218TIP3   OH273068   6.476   3.729  13.488  0.2723  0.1434 -0.2087
17218TIP3    H173069   6.417   3.786  13.438 -1.4401 -0.0384  1.5046
17218TIP3    H273070   6.512   3.785  13.556 -0.1820 -0.4271  0.5132
17219TIP3   OH273071   5.658   2.357   0.557  0.2389 -0.3526  0.1910
17219TIP3    H173072   5.666   2.310   0.641  1.2516  0.4815  0.5912
17219TIP3    H273073   5.725   2.425   0.562 -0.9002  0.8537 -0.5639
17220TIP3   OH273074   0.267   0.083  16.841 -0.5147 -0.5121 -0.1308
17220TIP3    H173075   0.277   0.014  16.776 -1.8293 -0.4117 -0.4669
17220TIP3    H273076   0.182   0.123  16.821 -0.9511 -0.4617  1.6153
17221TIP3   OH273077   4.278   0.569  16.159 -0.3419  0.6130  0.0825
17221TIP3    H173078   4.270   0.618  16.078 -1.5816  1.3575  0.6371
17221TIP3    H273079   4.371   0.545  16.164 -0.3166  0.2490 -1.7058
17222TIP3   OH273080   0.934   0.855   5.376  0.4199 -0.3273  0.6267
17222TIP3    H173081   1.021   0.817   5.393  0.5133  0.4674  2.1208
17222TIP3    H273082   0.929   0.929   5.436 -0.1872  1.3997 -1.4298
17223TIP3   OH273083   2.618   6.274   4.451  0.2114  0.0975 -0.0745
17223TIP3    H173084   2.695   6.224   4.481 -0.3150 -0.7492 -0.0870
17223TIP3    H273085   2.632   6.284   4.356  0.5557  0.4018  0.0065
17224TIP3   OH273086   5.388   5.799   1.528 -0.9936 -0.1834 -0.1534
17224TIP3    H173087   5.378   5.859   1.603 -0.5202 -0.4191  0.1005
17224TIP3    H273088   5.451   5.734   1.558 -0.5278 -0.0763 -0.8923
17225TIP3   OH273089   0.852   3.793  10.942  0.1234  0.2367 -0.4243
17225TIP3    H173090   0.790   3.776  10.871  0.9475  2.0109 -1.6175
17225TIP3    H273091   0.893   3.708  10.958  0.7246  0.0008 -2.8712
17226TIP3   OH273092   6.332   4.280  17.246  0.2205 -0.2928 -0.3937
17226TIP3    H173093   6.424   4.302  17.233 -0.0801  0.7241 -0.9039
17226TIP3    H273094   6.301   4.345  17.309  0.1666 -1.4547  0.8099
17227TIP3   OH273095   1.383   4.805  12.875 -0.8141 -0.2066 -0.4912
17227TIP3    H173096   1.474   4.783  12.895  0.1108  2.4171 -1.4358
17227TIP3    H273097   1.340   4.720  12.865  0.9138 -1.5706  2.3511
17228TIP3   OH273098   6.706   5.707  11.996  0.1002  0.6935  0.1994
17228TIP3    H173099   6.672   5.752  11.919  2.7059 -1.0556 -2.1682
17228TIP3    H273100   6.764   5.771  12.038  0.2481  1.0168 -0.4886
17229TIP3   OH273101   2.760   5.379  13.126 -0.0545  0.1290 -0.5007
17229TIP3    H173102   2.811   5.438  13.181  0.5752 -0.2122 -0.7130
17229TIP3    H273103   2.763   5.295  13.171  0.1254 -0.0529 -0.8530
17230TIP3   OH273104   0.717   5.289   1.364 -0.0052 -0.0286  0.7966
17230TIP3    H173105   0.621   5.284   1.369 -0.0864  1.2095  0.7946
17230TIP3    H273106   0.738   5.257   1.277 -0.4689  0.2123  0.5895
17231TIP3   OH273107   2.611   6.020   5.419 -0.6665 -0.2900 -0.0852
17231TIP3    H173108   2.598   5.948   5.481 -1.2177  0.5670  0.8180
17231TIP3    H273109   2.537   6.079   5.434 -0.3006  0.4020 -0.9046
17232TIP3   OH273110   0.630   0.902   3.010 -0.4577 -0.2845 -0.2848
17232TIP3    H173111   0.606   0.957   2.936 -1.4144  1.1526  1.0268
17232TIP3    H273112   0.546   0.868   3.043 -0.1234 -0.3007  0.5733
17233TIP3   OH273113   1.169   6.193  11.793 -0.3004  0.4106  0.1953
17233TIP3    H173114   1.089   6.229  11.755 -0.4079  0.3047  0.3206
17233TIP3    H273115   1.239   6.249  11.760 -0.1506 -0.8716 -1.8030
17234TIP3   OH273116   1.197   0.128  13.439  0.2305  0.0542 -0.0250
17234TIP3    H173117   1.279   0.083  13.422 -0.0073 -0.2518 -0.3649
17234TIP3    H273118   1.203   0.156  13.531  1.5071  1.6974 -0.5530
17235TIP3   OH273119   3.756   3.124  12.614  0.2260  0.0629 -0.3139
17235TIP3    H173120   3.697   3.199  12.617 -0.2780 -0.2523  3.4760
17235TIP3    H273121   3.702   3.050  12.642  1.6671 -0.8235  0.2629
17236TIP3   OH273122   1.389   5.105  11.979 -0.7218  0.2952  0.3318
17236TIP3    H173123   1.367   5.030  12.034  0.1902  0.6363  1.1912
17236TIP3    H273124   1.370   5.075  11.890 -1.4578 -0.5431  0.7539
17237TIP3   OH273125   3.299   6.569  13.201 -0.2647 -0.1136  0.0480
17237TIP3    H173126   3.319   6.517  13.279 -0.0290 -0.7707 -0.4444
17237TIP3    H273127   3.336   6.519  13.129 -1.2414  0.0563 -0.5831
17238TIP3   OH273128   6.403   1.851   2.517 -0.1386  0.8285 -0.2660
17238TIP3    H173129   6.344   1.898   2.576 -1.5121  0.0846 -0.9984
17238TIP3    H273130   6.434   1.776   2.568  0.9992  1.7506  0.4519
17239TIP3   OH273131   3.495   4.092  13.412  0.0525 -0.2407  0.7009
17239TIP3    H173132   3.426   4.142  13.455  0.1473 -0.0293  0.6092
17239TIP3    H273133   3.574   4.110  13.464  0.1932  0.1133  0.3681
17240TIP3   OH273134   5.490   4.361   4.291  0.4521 -0.2117  0.1610
17240TIP3    H173135   5.477   4.325   4.203  1.0333 -0.8790  0.3375
17240TIP3    H273136   5.442   4.443   4.291 -1.1780 -1.1190 -0.1813
17241TIP3   OH273137   6.650   4.603  12.486  0.4977 -0.5811  0.3953
17241TIP3    H173138   6.635   4.617  12.393 -1.3244  0.5583  0.8004
17241TIP3    H273139   6.571   4.558  12.516  1.4474 -1.7445  1.2544
17242TIP3   OH273140   5.224   2.799  14.402  1.0671 -0.3566 -0.1384
17242TIP3    H173141   5.168   2.829  14.330 -0.7490  0.0962  1.3845
17242TIP3    H273142   5.248   2.710  14.377 -0.3832 -0.5918 -0.8413
17243TIP3   OH273143   5.594   4.374  14.414 -0.0898 -0.3199  0.6989
17243TIP3    H173144   5.548   4.348  14.334 -2.2070  2.3667  0.9164
17243TIP3    H273145   5.672   4.420  14.383 -1.5883  1.9309  0.0113
17244TIP3   OH273146   5.714   4.552  17.240  0.0194 -0.6523 -0.2463
17244TIP3    H173147   5.700   4.510  17.155  0.6274 -1.2630 -0.0515
17244TIP3    H273148   5.802   4.589  17.234 -0.9870  1.8283 -0.9149
17245TIP3   OH273149   0.519   2.809  15.290 -0.7259  0.3487  0.1574
17245TIP3    H173150   0.567   2.778  15.213 -0.5142  0.3822  0.2749
17245TIP3    H273151   0.428   2.813  15.261 -0.5977  0.7155 -0.2062
17246TIP3   OH273152   3.835   3.901   0.695 -0.5982 -0.3934  0.0187
17246TIP3    H173153   3.881   3.818   0.705 -2.3854 -1.5526 -0.8371
17246TIP3    H273154   3.743   3.880   0.711 -0.9656  1.6717  0.9360
17247TIP3   OH273155   0.283   3.621   4.805  0.6064 -0.1209 -0.1186
17247TIP3    H173156   0.287   3.547   4.745 -1.5818 -0.3483 -0.0717
17247TIP3    H273157   0.263   3.697   4.749 -0.9695 -0.2570  0.2004
17248TIP3   OH273158   1.835   3.980   5.477  0.7318 -0.4862 -0.3196
17248TIP3    H173159   1.898   4.052   5.476 -0.2155  0.3619 -0.5071
17248TIP3    H273160   1.885   3.904   5.447  1.7417  0.0972 -0.1596
17249TIP3   OH273161   4.235   3.875  13.588  0.4692 -0.4012 -0.1567
17249TIP3    H173162   4.269   3.874  13.498 -0.4663 -1.7506 -0.5378
17249TIP3    H273163   4.142   3.854  13.578  0.4386 -0.9796  1.1585
17250TIP3   OH273164   0.904   0.261   6.108 -0.2904  0.5543  0.6366
17250TIP3    H173165   0.834   0.327   6.106 -0.9081 -0.0955  0.2225
17250TIP3    H273166   0.942   0.269   6.196 -0.7666  1.0391  0.8044
17251TIP3   OH273167   3.390   4.478  12.571  0.2507 -0.3660 -0.6100
17251TIP3    H173168   3.410   4.388  12.595  0.4084 -0.2535 -0.3106
17251TIP3    H273169   3.417   4.529  12.647  0.1968 -0.0636 -0.7934
17252TIP3   OH273170   1.276   5.388  16.395 -0.0634  0.4821 -1.1258
17252TIP3    H173171   1.210   5.450  16.363  0.0022 -0.2137 -2.7427
17252TIP3    H273172   1.226   5.307  16.410  0.1320  0.4464 -0.6707
17253TIP3   OH273173   6.089   6.026   0.500  0.1426  0.1839  0.2329
17253TIP3    H173174   6.076   5.981   0.583  3.2366  0.8772  1.2399
17253TIP3    H273175   6.016   5.998   0.445 -0.8611 -1.9466  2.4836
17254TIP3   OH273176   2.428   6.279   2.694 -0.1722 -0.3190 -0.5207
17254TIP3    H173177   2.376   6.316   2.623 -1.0769  0.7908  0.6878
17254TIP3    H273178   2.491   6.222   2.649  0.3470  1.5545 -2.3637
17255TIP3   OH273179   4.293   3.098   1.143  0.0332  0.6950  0.2791
17255TIP3    H173180   4.293   3.076   1.236 -0.2650 -0.5923 -0.0023
17255TIP3    H273181   4.206   3.073   1.112  0.1263  1.1156 -0.3432
17256TIP3   OH273182   4.703   1.081  11.417 -0.3255 -0.7379 -0.3179
17256TIP3    H173183   4.732   0.990  11.429  0.9532 -0.0995  2.1228
17256TIP3    H273184   4.613   1.082  11.448  0.3311 -0.8062  1.7060
17257TIP3   OH273185   3.517   4.235  13.943  0.3624 -0.2183 -0.3741
17257TIP3    H173186   3.494   4.142  13.933  1.6883 -0.6200  0.1493
17257TIP3    H273187   3.611   4.238  13.927  0.9414  0.5186  2.5983
17258TIP3   OH273188   4.211   4.950   4.159  0.3435  0.6248 -0.2713
17258TIP3    H173189   4.208   5.043   4.181  0.5289  0.2731  1.2924
17258TIP3    H273190   4.191   4.904   4.240  1.1692 -0.7323 -0.7861
17259TIP3   OH273191   6.379   0.598   2.532  0.0759 -0.0528 -0.0072
17259TIP3    H173192   6.422   0.661   2.474 -0.5416 -0.7173 -1.2325
17259TIP3    H273193   6.285   0.608   2.513 -0.0919 -0.6996  0.4449
17260TIP3   OH273194   1.868   6.787  15.035  0.8289  0.3748 -0.5202
17260TIP3    H173195   1.835   6.869  15.072  0.8291 -0.1828  0.7571
17260TIP3    H273196   1.912   6.743  15.108  0.0122 -1.2020 -0.9252
17261TIP3   OH273197   5.546   4.732   5.406  0.0260  0.0179 -0.4494
17261TIP3    H173198   5.478   4.699   5.464 -0.1174 -0.8513 -1.0863
17261TIP3    H273199   5.620   4.673   5.419  1.2297  1.7656  1.2836
17262TIP3   OH273200   4.157   4.738   3.590 -0.7030 -0.0867 -0.4343
17262TIP3    H173201   4.079   4.717   3.641 -1.0607  0.1917 -0.8619
17262TIP3    H273202   4.204   4.655   3.581  0.2062  0.1116  1.7176
17263TIP3   OH273203   3.210   6.219  16.204  0.1370  0.1375 -0.0162
17263TIP3    H173204   3.287   6.208  16.148  0.6919  1.2835  0.4990
17263TIP3    H273205   3.198   6.133  16.246  0.0910 -0.5536 -1.3741
17264TIP3   OH273206   2.255   1.658  10.961  0.2264  0.3839  0.0157
17264TIP3    H173207   2.349   1.660  10.945  0.0597  0.1833 -0.9960
17264TIP3    H273208   2.241   1.581  11.015  0.4130 -0.6574 -1.3884
17265TIP3   OH273209   4.349   5.062  11.257 -0.6275 -0.2166  0.9749
17265TIP3    H173210   4.364   5.144  11.211  3.7275 -0.3440  1.7189
17265TIP3    H273211   4.351   4.995  11.188 -0.7407  0.0572  0.7044
17266TIP3   OH273212   5.216   1.364  14.832 -0.1152 -0.3264  0.0460
17266TIP3    H173213   5.200   1.278  14.873  0.6905 -0.6623 -0.3209
17266TIP3    H273214   5.201   1.350  14.739 -0.3767  0.0411  0.0292
17267TIP3   OH273215   4.443   1.011  11.220 -0.0944  0.1271  0.5374
17267TIP3    H173216   4.450   1.091  11.169  0.1787  0.7864  1.5723
17267TIP3    H273217   4.516   0.957  11.192  1.7984  1.6720  2.2177
17268TIP3   OH273218   0.986   2.351  14.110  0.1264  0.1686  0.1324
17268TIP3    H173219   0.964   2.367  14.201 -0.5168 -1.6391  0.3260
17268TIP3    H273220   1.048   2.278  14.112 -0.4880 -0.4109 -0.8976
17269TIP3   OH273221   5.068   3.233  17.198  0.3526 -0.5280  0.0333
17269TIP3    H173222   5.067   3.203  17.107 -0.5529  0.0743 -0.1658
17269TIP3    H273223   5.095   3.324  17.193 -1.0749 -0.0671  0.2102
17270TIP3   OH273224   4.738   0.414   2.037 -0.2173 -0.0782  0.0014
17270TIP3    H173225   4.722   0.506   2.056 -2.2058 -0.0449 -1.5160
17270TIP3    H273226   4.701   0.367   2.112  0.0879  0.3136  0.4006
17271TIP3   OH273227   5.210   5.658  15.165 -0.3542  0.1027 -0.0666
17271TIP3    H173228   5.118   5.637  15.182 -0.3664  1.0041  1.1168
17271TIP3    H273229   5.222   5.638  15.072 -1.5504 -0.6939 -0.0786
17272TIP3   OH273230   2.869   5.421   4.601 -0.0655 -0.5047  0.2624
17272TIP3    H173231   2.801   5.487   4.588 -0.1630 -0.8364 -0.9400
17272TIP3    H273232   2.865   5.401   4.695 -1.0399  0.0999  0.3600
17273TIP3   OH273233   5.239   3.958  14.008 -0.1038 -0.1154 -0.1833
17273TIP3    H173234   5.144   3.946  13.998 -0.2862 -0.2665  1.5254
17273TIP3    H273235   5.277   3.891  13.950 -1.0037  0.5370 -1.5793
17274TIP3   OH273236   0.985   0.002   4.685 -0.2007  0.2505  0.2091
17274TIP3    H173237   0.907   0.042   4.647  0.3760  0.3922 -0.8721
17274TIP3    H273238   1.055   0.066   4.669  0.1852  0.0132  0.9212
17275TIP3   OH273239   2.281   6.614   6.376 -0.4540  0.6269 -0.0961
17275TIP3    H173240   2.247   6.583   6.292  0.1220 -0.8884  0.1817
17275TIP3    H273241   2.208   6.602   6.437 -0.6654  1.1110 -0.2527
17276TIP3   OH273242   4.480   3.187   5.241  0.4164 -0.5125  0.1440
17276TIP3    H173243   4.495   3.182   5.335  1.3937  0.6086  0.0762
17276TIP3    H273244   4.414   3.120   5.223  0.5659 -1.0627  1.5441
17277TIP3   OH273245   1.606   4.408   4.738  0.2197 -0.1434  0.7870
17277TIP3    H173246   1.673   4.341   4.737 -0.0532 -0.4697  2.3440
17277TIP3    H273247   1.593   4.430   4.646  0.7080 -1.8116  0.2865
17278TIP3   OH273248   0.908   0.280   1.580  0.4678  0.6359 -0.2587
17278TIP3    H173249   0.859   0.201   1.558  0.4758  0.6816 -0.4417
17278TIP3    H273250   0.981   0.248   1.633  0.3358  0.5489 -0.1276
17279TIP3   OH273251   5.569   4.063   3.593 -0.2356 -0.2602  0.3014
17279TIP3    H173252   5.644   4.094   3.543 -0.1978  1.5585  1.4020
17279TIP3    H273253   5.527   4.142   3.625 -2.7942 -1.2256 -0.4591
17280TIP3   OH273254   3.574   1.556  16.489 -0.3581  0.6222  0.2058
17280TIP3    H173255   3.520   1.559  16.410  3.3073  1.3739 -2.5291
17280TIP3    H273256   3.565   1.466  16.520  0.1873 -0.6050 -2.8198
17281TIP3   OH273257   0.694   5.593  16.072 -0.2132 -0.0208  0.3481
17281TIP3    H173258   0.763   5.572  16.136  0.2201 -0.6823 -0.3245
17281TIP3    H273259   0.638   5.516  16.072 -1.3786  0.7839  1.4008
17282TIP3   OH273260   5.155   5.226  12.234 -1.1237 -0.5828 -0.0689
17282TIP3    H173261   5.208   5.188  12.165  0.5653  0.3922  0.6460
17282TIP3    H273262   5.103   5.153  12.268  1.8100 -2.2779  1.0812
17283TIP3   OH273263   0.646   6.338   6.301 -0.9823  0.0682 -0.1786
17283TIP3    H173264   0.626   6.411   6.359  1.4284  0.9360 -0.3109
17283TIP3    H273265   0.696   6.378   6.229  1.0708 -1.7610  0.1307
17284TIP3   OH273266   1.053   6.016   3.758  0.4865 -0.6844  0.1336
17284TIP3    H173267   0.977   5.958   3.755  0.1063 -0.1731 -2.1773
17284TIP3    H273268   1.017   6.101   3.782  0.1361 -0.2669 -1.7141
17285TIP3   OH273269   2.162   3.006  14.505  0.6546 -0.6774  0.2228
17285TIP3    H173270   2.085   2.975  14.456 -0.3480 -0.0837  1.3796
17285TIP3    H273271   2.218   3.046  14.438 -0.9740  0.6983 -0.3977
17286TIP3   OH273272   2.480   5.308  11.503 -0.5807  0.4989  0.4393
17286TIP3    H173273   2.545   5.371  11.473  0.4410 -0.3737  0.7637
17286TIP3    H273274   2.531   5.239  11.546 -1.6049 -0.8188 -0.3745
17287TIP3   OH273275   2.233   6.749   0.014 -0.2506  0.3685 -0.4559
17287TIP3    H173276   2.198   6.660   0.009 -0.0052  0.3090 -4.2965
17287TIP3    H273277   2.159   6.803   0.041 -0.8340 -0.8008  0.3504
17288TIP3   OH273278   6.060   4.313   6.445  0.0470  0.3038  0.1317
17288TIP3    H173279   6.050   4.399   6.405 -0.8445  0.2013  0.1143
17288TIP3    H273280   6.127   4.269   6.393 -0.8578  0.2922 -1.0452
17289TIP3   OH273281   1.766   1.217  11.518  0.0663 -0.3146  0.2007
17289TIP3    H173282   1.753   1.249  11.607  0.6616  0.8304 -0.1127
17289TIP3    H273283   1.681   1.227  11.476 -0.0533 -0.2701  0.4535
17290TIP3   OH273284   2.251   1.240   5.511 -0.5025 -0.1614  0.1172
17290TIP3    H173285   2.270   1.195   5.429 -1.8476  0.8672 -0.7956
17290TIP3    H273286   2.155   1.243   5.515 -0.5088 -1.2219  2.3144
17291TIP3   OH273287   5.737   0.664  15.177 -0.0063 -0.3591  0.2182
17291TIP3    H173288   5.686   0.675  15.097 -0.4984  1.8670  0.7690
17291TIP3    H273289   5.799   0.595  15.157 -2.4361 -2.4070 -0.8688
17292TIP3   OH273290   2.948   0.494   2.500 -0.5410  0.3697  0.3528
17292TIP3    H173291   2.978   0.421   2.445 -1.3308 -0.0679  0.4897
17292TIP3    H273292   2.902   0.552   2.440 -2.0466 -0.4708  0.6424
17293TIP3   OH273293   1.693   2.417   0.484  0.7110 -0.2279 -0.0842
17293TIP3    H173294   1.612   2.394   0.529  1.1511 -1.2287  0.2196
17293TIP3    H273295   1.751   2.448   0.553  1.6368 -2.4397  0.2340
17294TIP3   OH273296   2.751   1.198  15.608  0.1298 -0.3540  0.2041
17294TIP3    H173297   2.839   1.237  15.605 -0.4369  1.4952  3.0251
17294TIP3    H273298   2.766   1.106  15.629  1.4249  0.0299  1.1164
17295TIP3   OH273299   3.133   1.867  12.779 -0.1812  0.4540  0.2598
17295TIP3    H173300   3.111   1.837  12.868 -0.2321  0.3332  0.2062
17295TIP3    H273301   3.052   1.857  12.729 -0.4549  1.5356  0.4599
17296TIP3   OH273302   2.308   6.173   6.165  0.2002 -0.1192 -0.2579
17296TIP3    H173303   2.261   6.244   6.122  1.5880  0.9785  0.0053
17296TIP3    H273304   2.335   6.209   6.249  0.5701 -1.1000  0.0553
17297TIP3   OH273305   6.333   4.303  15.023 -0.4349 -0.1624  0.0678
17297TIP3    H173306   6.407   4.244  15.034 -0.6005 -0.0329  2.5570
17297TIP3    H273307   6.256   4.248  15.038 -0.7539  0.0827 -0.6446
17298TIP3   OH273308   3.526   4.065  10.903 -0.0295  0.0020 -0.5931
17298TIP3    H173309   3.576   4.018  10.836  1.3175  0.3530  0.1268
17298TIP3    H273310   3.589   4.127  10.940 -0.3560 -1.0581  1.8746
17299TIP3   OH273311   3.804   2.235   1.860  0.2053  0.0097 -0.0093
17299TIP3    H173312   3.769   2.276   1.939  1.6008  0.7812  0.2450
17299TIP3    H273313   3.775   2.291   1.789  0.9885  0.7233  0.2124
17300TIP3   OH273314   4.536   5.031  15.099  0.1566 -0.0584 -0.4552
17300TIP3    H173315   4.480   4.961  15.133 -0.2936  0.1900 -0.6831
17300TIP3    H273316   4.544   5.092  15.173 -0.5347  0.3054 -0.6699
17301TIP3   OH273317   2.819   0.227  11.566  0.0752  0.4078  0.2271
17301TIP3    H173318   2.908   0.216  11.599  0.6933 -0.5595 -1.6295
17301TIP3    H273319   2.830   0.262  11.478 -1.4637  1.8201  0.5426
17302TIP3   OH273320   1.609   3.074   4.293 -0.0603 -0.6435  0.1140
17302TIP3    H173321   1.670   3.098   4.223  0.3217 -1.1158  0.2800
17302TIP3    H273322   1.613   2.979   4.296 -1.3260 -0.7243 -0.3266
17303TIP3   OH273323   1.192   5.140   2.781 -0.8230  0.3611  0.4919
17303TIP3    H173324   1.122   5.077   2.793 -1.8742  1.3108 -0.4533
17303TIP3    H273325   1.241   5.138   2.864 -1.5291 -0.8216  0.8904
17304TIP3   OH273326   5.296   6.138  16.036  0.5352  0.1825  0.1844
17304TIP3    H173327   5.235   6.064  16.044 -0.3469  1.0415  2.0380
17304TIP3    H273328   5.244   6.205  15.992  0.9187  0.1415 -0.3334
17305TIP3   OH273329   1.383   4.134  12.584 -0.0871 -0.5836 -0.0310
17305TIP3    H173330   1.344   4.046  12.583  1.0260 -1.1065  0.3139
17305TIP3    H273331   1.477   4.118  12.568  0.1660  0.5171  0.2948
17306TIP3   OH273332   1.235   1.986  12.533  0.4167 -0.4118 -0.0628
17306TIP3    H173333   1.207   1.969  12.624  2.1271  0.6242  0.7065
17306TIP3    H273334   1.153   1.987  12.483 -0.4007 -3.3512  1.0194
17307TIP3   OH273335   3.328   4.854  14.846  0.0564  0.8946 -0.1376
17307TIP3    H173336   3.276   4.808  14.912 -0.7432  0.3998 -1.0836
17307TIP3    H273337   3.264   4.884  14.781  0.6452  2.7291  0.0621
17308TIP3   OH273338   2.975   4.479  16.898  0.2996  0.3020  0.0816
17308TIP3    H173339   2.991   4.385  16.909  0.1536  0.5402  3.3580
17308TIP3    H273340   2.880   4.485  16.889  0.3156  0.1365 -0.2152
17309TIP3   OH273341   5.237   4.347   4.444  0.6605 -0.0055 -0.4242
17309TIP3    H173342   5.293   4.391   4.508 -0.8380 -0.6540  1.4266
17309TIP3    H273343   5.294   4.281   4.405  0.6595 -2.7359  3.5508
17310TIP3   OH273344   1.717   5.729   5.738  0.2134  0.0036 -0.6561
17310TIP3    H173345   1.720   5.664   5.809  1.3198 -1.2086 -1.7550
17310TIP3    H273346   1.743   5.811   5.780  0.4388 -0.5987  0.4330
17311TIP3   OH273347   2.233   6.470  16.389 -0.1914  0.4609 -0.1145
17311TIP3    H173348   2.278   6.526  16.325 -0.0320  1.1575  0.5833
17311TIP3    H273349   2.263   6.503  16.474  1.2768 -1.7921  0.3370
17312TIP3   OH273350   2.443   4.016   3.735  0.0722  0.2962  0.0904
17312TIP3    H173351   2.413   3.927   3.754  0.2426 -0.4380 -2.6876
17312TIP3    H273352   2.446   4.058   3.820  0.7777 -2.5819  1.6169
17313TIP3   OH273353   0.132   5.820   3.165  0.2324 -0.2454 -0.1030
17313TIP3    H173354   0.143   5.726   3.179  1.0609 -0.0302  0.8524
17313TIP3    H273355   0.041   5.837   3.189  0.5661 -0.5308  1.5343
17314TIP3   OH273356   6.454   5.459  13.537  0.0259 -0.0363  0.1316
17314TIP3    H173357   6.494   5.412  13.464 -1.1450 -1.0520  0.1198
17314TIP3    H273358   6.517   5.528  13.557  0.3798  0.2885 -1.8385
17315TIP3   OH273359   1.015   2.624  12.358 -0.0678 -0.3371 -0.1294
17315TIP3    H173360   1.033   2.693  12.422 -1.4844 -0.9471  0.9735
17315TIP3    H273361   1.050   2.545  12.398  0.1643 -0.5245 -0.6946
17316TIP3   OH273362   5.109   3.596   5.817 -0.3182  0.1090  0.6223
17316TIP3    H173363   5.092   3.550   5.899  0.7793 -0.2554  0.6624
17316TIP3    H273364   5.187   3.648   5.834  0.3400 -0.5124 -0.3800
17317TIP3   OH273365   6.783   1.405  14.950 -0.0646 -0.1643 -0.4280
17317TIP3    H173366   6.833   1.327  14.975 -1.6606 -1.1992 -0.3059
17317TIP3    H273367   6.820   1.431  14.866 -1.5772 -3.0612 -2.1637
17318TIP3   OH273368   2.052   6.459   5.757  0.0123  0.2205 -0.9038
17318TIP3    H173369   2.121   6.399   5.784 -1.3849 -1.9977 -1.9724
17318TIP3    H273370   2.047   6.523   5.828 -0.2427 -2.5267  1.7370
17319TIP3   OH273371   3.226   3.816  14.216 -0.5425  0.2780 -0.4551
17319TIP3    H173372   3.137   3.796  14.188 -1.3785  1.1807  1.4652
17319TIP3    H273373   3.232   3.912  14.211 -0.0868  0.3117  0.5531
17320TIP3   OH273374   5.260   4.495  15.447 -0.3011  0.2557 -0.0658
17320TIP3    H173375   5.325   4.557  15.415 -1.4923  2.5665  1.6732
17320TIP3    H273376   5.201   4.548  15.501 -1.4395 -2.4012  1.5020
17321TIP3   OH273377   3.317   3.436  14.249 -0.2153  0.0609 -0.5315
17321TIP3    H173378   3.237   3.473  14.287 -0.7825 -0.3014 -1.3577
17321TIP3    H273379   3.323   3.348  14.286 -0.1675  0.1039 -0.4349
17322TIP3   OH273380   3.027   0.883  16.057  0.2200 -0.1609 -0.2930
17322TIP3    H173381   3.094   0.914  15.996  0.5485  0.6897  0.4664
17322TIP3    H273382   3.077   0.847  16.131 -0.1285  0.9168  0.4980
17323TIP3   OH273383   5.343   2.569   5.137  0.4861 -0.3468 -0.0923
17323TIP3    H173384   5.322   2.639   5.198 -0.5631  0.9973 -1.9086
17323TIP3    H273385   5.405   2.608   5.075  0.4674 -1.2381 -0.6975
17324TIP3   OH273386   0.039   1.980   5.329  0.3190  0.2575  0.3024
17324TIP3    H173387  -0.053   1.971   5.304  0.6967 -0.7400 -0.7918
17324TIP3    H273388   0.061   1.895   5.367  0.5514  0.8073  1.4443
17325TIP3   OH273389   0.876   2.501   1.096  0.2002 -0.2504 -0.6442
17325TIP3    H173390   0.944   2.515   1.031  0.5863  1.7770  0.1336
17325TIP3    H273391   0.919   2.513   1.181 -1.3872  3.2123 -0.1284
17326TIP3   OH273392   2.173   0.437   0.703  0.5619  0.0110 -0.2915
17326TIP3    H173393   2.163   0.353   0.657 -3.8649  0.2153 -0.1679
17326TIP3    H273394   2.162   0.503   0.634 -2.9427  0.3098  0.3530
17327TIP3   OH273395   1.643   4.015  14.275 -0.0436 -0.4135  0.0786
17327TIP3    H173396   1.618   4.002  14.366  1.3278  0.1496  0.5619
17327TIP3    H273397   1.655   4.110  14.267  0.3230 -0.5066 -0.5555
17328TIP3   OH273398   1.520   3.834   2.288  0.3764  0.1450  0.2831
17328TIP3    H173399   1.513   3.904   2.224  0.6122  1.8185  2.0154
17328TIP3    H273400   1.494   3.874   2.371  1.2066 -1.6212  1.4611
17329TIP3   OH273401   4.496   0.483  15.908  0.3460  0.7057 -0.6314
17329TIP3    H173402   4.509   0.417  15.976  0.7736  1.5029  0.0666
17329TIP3    H273403   4.484   0.432  15.828 -1.1747 -0.2815  0.1793
17330TIP3   OH273404   0.488   4.367   5.734  0.0979  0.1541 -0.6742
17330TIP3    H173405   0.494   4.314   5.655  1.6589 -2.2393  0.9252
17330TIP3    H273406   0.553   4.436   5.721 -0.4224  0.4525 -1.8798
17331TIP3   OH273407   6.189   0.982   6.007  0.1968  0.3646  0.2235
17331TIP3    H173408   6.103   0.970   6.047  1.0674 -1.0405  1.7710
17331TIP3    H273409   6.223   0.894   5.995  2.1523  0.9063  1.3188
17332TIP3   OH273410   2.410   4.922  14.707 -0.2318 -0.4759 -0.0186
17332TIP3    H173411   2.343   4.911  14.639 -0.5845 -0.1884  0.2749
17332TIP3    H273412   2.372   4.986  14.767  1.1644  1.3215 -0.9398
17333TIP3   OH273413   2.866   1.738   4.539 -0.8990  0.4273  0.0283
17333TIP3    H173414   2.811   1.687   4.479 -1.0229 -0.1455  0.6171
17333TIP3    H273415   2.940   1.765   4.485 -2.6868  2.9734 -1.3692
17334TIP3   OH273416   4.456   5.044   3.166  0.4351  0.2702  0.6099
17334TIP3    H173417   4.454   5.129   3.210 -0.3468  1.8978 -2.2774
17334TIP3    H273418   4.385   5.048   3.102  0.7086 -2.3774 -0.0021
17335TIP3   OH273419   4.745   2.760   0.704  1.0213 -0.3746  0.3304
17335TIP3    H173420   4.730   2.842   0.752  0.4907 -0.4576  0.3091
17335TIP3    H273421   4.704   2.774   0.619 -3.9918 -2.4968  2.0047
17336TIP3   OH273422   5.761   6.085   4.874 -0.7772 -0.0265  0.1285
17336TIP3    H173423   5.821   6.121   4.809 -0.6999 -1.6265 -0.7351
17336TIP3    H273424   5.784   6.129   4.955 -1.0545  2.2256 -0.9378
17337TIP3   OH273425   6.390   6.653  13.398  0.1155 -0.4392 -0.2965
17337TIP3    H173426   6.405   6.605  13.479 -0.5353 -2.9195 -1.5435
17337TIP3    H273427   6.470   6.641  13.348 -0.8386 -2.2254 -1.5094
17338TIP3   OH273428   2.202   5.757   1.085  0.0405  0.5182 -0.2332
17338TIP3    H173429   2.112   5.742   1.058 -0.5604  2.7646  0.3536
17338TIP3    H273430   2.204   5.734   1.178 -0.3246  1.8544  0.1197
17339TIP3   OH273431   5.201   4.778   5.219  0.3212  0.9071  0.0580
17339TIP3    H173432   5.149   4.731   5.154 -0.6391  1.0892  0.6759
17339TIP3    H273433   5.278   4.809   5.170  2.3879 -3.3599  0.0803
17340TIP3   OH273434   4.419   1.290  17.214  0.0788  0.0204  0.0018
17340TIP3    H173435   4.457   1.282  17.127 -2.0563  1.7787 -1.2006
17340TIP3    H273436   4.450   1.374  17.247 -0.8284  0.3681 -0.0045
17341TIP3   OH273437   1.003   4.236   2.938 -0.0675  0.1550  0.2002
17341TIP3    H173438   0.970   4.306   2.883 -2.6499  0.0775  1.4824
17341TIP3    H273439   0.973   4.156   2.895 -1.9405  0.0897  1.5004
17342TIP3   OH273440   0.460   6.620  16.328  0.3347 -0.0303  0.0165
17342TIP3    H173441   0.545   6.579  16.343  0.0414 -0.3038  0.9730
17342TIP3    H273442   0.446   6.676  16.403 -0.4678 -0.2292  0.0266
17343TIP3   OH273443   3.172   3.097  15.160 -0.1942 -0.3846  0.4863
17343TIP3    H173444   3.239   3.050  15.110 -1.2176 -1.8255  0.4023
17343TIP3    H273445   3.204   3.094  15.251 -0.0162 -0.8340  0.4127
17344TIP3   OH273446   3.265   4.072  14.173 -0.1209 -0.3158 -0.4644
17344TIP3    H173447   3.259   4.119  14.090 -1.1394 -1.6152 -1.1660
17344TIP3    H273448   3.256   4.139  14.240 -0.4376  0.6101 -1.4095
17345TIP3   OH273449   0.035   3.808   2.727  0.7616 -0.0190  0.2329
17345TIP3    H173450  -0.029   3.752   2.681  0.9582 -0.0131 -0.0487
17345TIP3    H273451   0.032   3.891   2.680  1.1515 -0.0965  0.0664
17346TIP3   OH273452   1.661   0.439   3.910 -0.3780 -0.4380 -0.1545
17346TIP3    H173453   1.677   0.523   3.867 -0.1147 -1.6656 -2.6006
17346TIP3    H273454   1.571   0.444   3.941 -0.0063  1.1432  0.7809
17347TIP3   OH273455   6.045   4.692   2.776  0.3953  0.0401 -0.5639
17347TIP3    H173456   5.963   4.648   2.752 -0.5740  1.3258  0.3023
17347TIP3    H273457   6.049   4.769   2.719  1.8185 -0.8150 -1.6995
17348TIP3   OH273458   0.820   2.492   2.174  0.1823  0.7371 -0.1603
17348TIP3    H173459   0.874   2.414   2.177 -0.5338  0.2016 -0.7730
17348TIP3    H273460   0.762   2.485   2.249  0.2168  0.7508 -0.1326
17349TIP3   OH273461   0.157   5.547  12.457 -0.0190 -0.4724 -0.1827
17349TIP3    H173462   0.184   5.533  12.367  1.2235 -2.2384  0.4054
17349TIP3    H273463   0.184   5.467  12.503 -1.4998 -0.0419  1.5587
17350TIP3   OH273464   3.652   2.988   5.221  0.4572  0.1637  0.1191
17350TIP3    H173465   3.646   3.064   5.279  0.1512  1.2030 -1.2079
17350TIP3    H273466   3.576   2.935   5.243 -0.1287  0.9697  0.1039
17351TIP3   OH273467   5.598   6.511  11.182 -0.1440 -0.9128 -0.6400
17351TIP3    H173468   5.574   6.520  11.274  0.0333 -3.3594 -0.2691
17351TIP3    H273469   5.558   6.586  11.138 -0.1056  0.3820  1.4235
17352TIP3   OH273470   5.134   3.329  10.235 -0.3722  0.0191 -0.1888
17352TIP3    H173471   5.174   3.400  10.286 -0.5152 -0.8883  1.2474
17352TIP3    H273472   5.043   3.357  10.223 -0.1297  0.6187 -0.6807
17353TIP3   OH273473   1.652   0.081  11.483 -0.5294 -0.4752 -0.1768
17353TIP3    H173474   1.612   0.168  11.487 -1.6774 -0.9453 -0.8815
17353TIP3    H273475   1.745   0.098  11.470 -0.6625  0.6496  0.2086
17354TIP3   OH273476   2.507   3.331  12.326  0.0538  0.2264 -0.3873
17354TIP3    H173477   2.598   3.355  12.308  0.2120  0.0167  0.1172
17354TIP3    H273478   2.501   3.327  12.421 -1.1674  2.8725 -0.2478
17355TIP3   OH273479   3.252   2.568   2.459  0.0449  0.1668 -0.0018
17355TIP3    H173480   3.298   2.485   2.452  1.1897  0.4973  2.5735
17355TIP3    H273481   3.311   2.632   2.420  0.6863  0.2198  1.0227
17356TIP3   OH273482   6.694   4.783   2.654 -1.0395 -0.0106  0.0424
17356TIP3    H173483   6.719   4.753   2.567 -1.8093  0.8737 -0.4951
17356TIP3    H273484   6.607   4.821   2.643 -1.3244 -0.2474  1.2781
17357TIP3   OH273485   2.854   5.689  16.713 -0.1509  0.5289 -0.6870
17357TIP3    H173486   2.927   5.627  16.712  2.5285  3.4460  0.1270
17357TIP3    H273487   2.788   5.648  16.657  1.7341 -2.6635 -0.8104
17358TIP3   OH273488   1.740   3.418   1.449 -0.2424  0.5345 -1.0228
17358TIP3    H173489   1.798   3.376   1.385 -0.9939 -2.1547 -0.0656
17358TIP3    H273490   1.657   3.429   1.403 -0.5174 -0.5601 -0.8027
17359TIP3   OH273491   5.435   2.667   2.124 -0.2786 -0.0864  0.1021
17359TIP3    H173492   5.394   2.753   2.133 -0.4471  0.0595 -1.6670
17359TIP3    H273493   5.495   2.661   2.198  0.3900  1.9465 -0.2150
17360TIP3   OH273494   1.467   1.983  15.870 -0.0264  0.3306 -0.0536
17360TIP3    H173495   1.507   1.921  15.930  1.6267  1.7648  0.3732
17360TIP3    H273496   1.490   2.069  15.903 -1.1806  1.2024 -1.3538
17361TIP3   OH273497   5.195   6.703   1.679 -0.0375  0.2947 -0.2916
17361TIP3    H173498   5.213   6.796   1.691 -0.0257  0.1591  0.8525
17361TIP3    H273499   5.103   6.692   1.706  0.2524 -0.1796  0.5625
17362TIP3   OH273500   0.604   6.184   1.347  0.6719 -0.1842 -0.7496
17362TIP3    H173501   0.577   6.276   1.343  1.1970 -0.0408 -1.0587
17362TIP3    H273502   0.685   6.185   1.397  0.8235 -0.4498 -0.9886
17363TIP3   OH273503   2.999   5.774  11.422  0.4581 -0.1131 -0.3324
17363TIP3    H173504   2.984   5.800  11.331 -1.8290 -0.3014 -0.0725
17363TIP3    H273505   2.921   5.804  11.469  1.5023 -0.1928  1.5455
17364TIP3   OH273506   3.240   0.598  15.721 -0.1879 -0.0187  0.2235
17364TIP3    H173507   3.222   0.588  15.815  1.7125  1.6391  0.8353
17364TIP3    H273508   3.210   0.687  15.701 -0.8247 -0.4549 -0.8394
17365TIP3   OH273509   0.511   4.731  11.924 -0.0460 -0.1269 -0.2511
17365TIP3    H173510   0.523   4.754  12.016  0.7596 -0.4678 -0.2679
17365TIP3    H273511   0.432   4.677  11.924  0.4274 -0.8442  0.3668
17366TIP3   OH273512   5.301   3.976   2.816 -0.1599  0.0456 -0.4417
17366TIP3    H173513   5.365   4.003   2.750  0.1052  1.3737  0.3251
17366TIP3    H273514   5.260   3.897   2.779  0.8160  0.0693 -1.6383
17367TIP3   OH273515   5.600   5.874   4.348  0.5445 -0.7095 -0.0257
17367TIP3    H173516   5.556   5.947   4.305  0.3078 -1.8703 -1.8625
17367TIP3    H273517   5.550   5.797   4.321  2.1784 -1.8017 -0.0613
17368TIP3   OH273518   1.613   5.397   5.734 -0.0916  0.1951  0.2478
17368TIP3    H173519   1.625   5.414   5.828  0.8191  2.2565 -0.1927
17368TIP3    H273520   1.615   5.301   5.727  2.5357  0.0077  2.0177
17369TIP3   OH273521   5.673   0.167  16.353  0.4499 -0.1869  0.2721
17369TIP3    H173522   5.757   0.150  16.311  0.3815 -0.2690  0.1670
17369TIP3    H273523   5.642   0.248  16.312  1.0418  0.5212  1.1894
17370TIP3   OH273524   5.649   3.982   4.215 -0.4572 -0.5791  0.0896
17370TIP3    H173525   5.712   4.033   4.265  0.6928 -0.4053 -1.4587
17370TIP3    H273526   5.680   3.987   4.125 -0.9318 -3.0519 -0.3025
17371TIP3   OH273527   3.241   2.951   0.198  0.4424 -0.2856  0.1049
17371TIP3    H173528   3.333   2.966   0.179  0.5206 -0.4745  0.3398
17371TIP3    H273529   3.219   2.872   0.150 -0.0178  0.6430 -1.2808
17372TIP3   OH273530   1.255   2.579  15.958 -0.6196 -0.3083  0.1021
17372TIP3    H173531   1.251   2.489  15.991  1.2899 -0.5867 -0.2965
17372TIP3    H273532   1.174   2.619  15.988 -0.8599 -1.7489  1.5212
17373TIP3   OH273533   2.655   4.328  16.754  0.2750 -0.7345  0.2854
17373TIP3    H173534   2.638   4.422  16.746 -0.3312 -0.8665  0.0115
17373TIP3    H273535   2.692   4.318  16.842 -0.5532 -0.3676  0.6844
17374TIP3   OH273536   3.660   5.760   5.834  0.0564 -0.1272 -0.1077
17374TIP3    H173537   3.605   5.681   5.832  0.4867 -0.4398 -2.8861
17374TIP3    H273538   3.598   5.832   5.840 -0.6913 -0.5323 -2.1316
17375TIP3   OH273539   4.686   6.472   4.428  0.3766 -0.2902  0.5754
17375TIP3    H173540   4.628   6.426   4.367 -2.3287  1.3905  1.7160
17375TIP3    H273541   4.703   6.408   4.498 -1.5463 -0.3043  1.0740
17376TIP3   OH273542   5.727   4.488  12.517  0.1180 -0.1602 -0.2444
17376TIP3    H173543   5.775   4.436  12.452 -0.4070  0.2751 -0.9878
17376TIP3    H273544   5.755   4.452  12.601  0.6833 -0.8430 -0.7118
17377TIP3   OH273545   2.528   5.671   3.508  0.0807 -0.1708  0.2030
17377TIP3    H173546   2.522   5.764   3.486  2.5169  0.0047  0.0216
17377TIP3    H273547   2.603   5.665   3.567  1.4001 -2.2648 -1.5335
17378TIP3   OH273548   4.131   5.231  14.115  0.5243 -0.5528  0.0953
17378TIP3    H173549   4.153   5.309  14.166 -1.4489 -0.5154  0.9952
17378TIP3    H273550   4.203   5.170  14.131  1.3891  0.5373  0.5242
17379TIP3   OH273551   3.478   2.805   0.144  0.0343 -0.0626  0.1615
17379TIP3    H173552   3.570   2.832   0.144 -0.1088  0.4819 -0.9710
17379TIP3    H273553   3.466   2.761   0.060 -0.6139 -0.5923  0.5315
17380TIP3   OH273554   6.375   2.242  12.994  0.1972 -0.2370 -0.7236
17380TIP3    H173555   6.428   2.232  12.915  0.3493  0.5388 -0.7320
17380TIP3    H273556   6.367   2.337  13.005  0.8296 -0.3208  0.6327
17381TIP3   OH273557   5.458   2.823   3.777 -0.2900  0.2296 -0.2570
17381TIP3    H173558   5.516   2.780   3.840 -1.0228 -1.6459 -0.7964
17381TIP3    H273559   5.516   2.849   3.706  0.1762  0.0828  0.0641
17382TIP3   OH273560   0.498   3.589   2.264 -0.0660 -0.4147 -0.1886
17382TIP3    H173561   0.485   3.637   2.346 -0.6734 -1.4182  0.3207
17382TIP3    H273562   0.589   3.607   2.240  0.5095 -1.0669  1.3736
17383TIP3   OH273563   6.147   0.344  13.696 -0.0854  0.2267  0.9188
17383TIP3    H173564   6.104   0.307  13.773 -2.3691 -2.0739 -1.2495
17383TIP3    H273565   6.197   0.271  13.659  1.5921  1.4877  0.5954
17384TIP3   OH273566   4.510   3.139   4.744 -0.5105 -0.2246  0.2070
17384TIP3    H173567   4.574   3.196   4.702 -1.2912  1.0929  0.7525
17384TIP3    H273568   4.531   3.051   4.712 -0.1763  0.5340 -1.7955
17385TIP3   OH273569   2.432   3.698   5.291 -0.2316 -0.2685  0.8912
17385TIP3    H173570   2.524   3.726   5.294 -0.0916 -0.7826  1.7080
17385TIP3    H273571   2.394   3.728   5.373 -0.7383 -0.2748  0.6641
17386TIP3   OH273572   6.613   6.393  13.378  0.0825  0.2601  0.2491
17386TIP3    H173573   6.620   6.458  13.307 -1.0401  0.8677  0.6694
17386TIP3    H273574   6.612   6.309  13.333  0.7649  0.5574 -0.3612
17387TIP3   OH273575   2.361   2.586  13.570  0.4197  0.2900 -1.0527
17387TIP3    H173576   2.417   2.592  13.647  1.0689  1.3033 -1.5906
17387TIP3    H273577   2.317   2.671  13.564 -2.0123 -0.7889 -0.0627
17388TIP3   OH273578   4.037   3.777  14.282 -0.5582 -0.2104  0.0763
17388TIP3    H173579   4.050   3.871  14.270 -1.8434 -0.0603 -0.2953
17388TIP3    H273580   4.121   3.745  14.315  1.3293  0.3208 -3.6945
17389TIP3   OH273581   3.987   0.541   0.496 -0.1705 -0.0201  0.3960
17389TIP3    H173582   4.077   0.576   0.492 -0.2936  0.1393 -2.0745
17389TIP3    H273583   3.992   0.456   0.453 -1.1008 -0.2849  0.7884
17390TIP3   OH273584   0.818   2.105   1.544 -0.3978 -0.2645  0.1878
17390TIP3    H173585   0.744   2.045   1.551  0.1320 -1.4813 -2.8416
17390TIP3    H273586   0.799   2.157   1.465  1.0096  0.8151  0.5121
17391TIP3   OH273587   5.386   6.316   3.121  0.1060  0.0294 -0.1267
17391TIP3    H173588   5.411   6.234   3.162  2.4047  0.3461 -0.7677
17391TIP3    H273589   5.439   6.382   3.165 -1.6664  1.2088  0.3436
17392TIP3   OH273590   5.695   2.010  14.473 -0.6291 -0.6451  0.2371
17392TIP3    H173591   5.614   2.053  14.443  1.0882  1.9558 -1.0842
17392TIP3    H273592   5.752   2.011  14.396  1.1005 -1.2536  1.4620
17393TIP3   OH273593   6.625   0.006  17.143 -0.7767 -0.1581 -0.7139
17393TIP3    H173594   6.668   0.044  17.220  0.4066  0.3880 -1.6071
17393TIP3    H273595   6.531   0.015  17.160 -0.5285  0.0186  0.6227
17394TIP3   OH273596   3.884   6.529  15.630 -0.1004 -0.0958  0.7462
17394TIP3    H173597   3.962   6.585  15.627  0.8383 -1.1089  3.2576
17394TIP3    H273598   3.910   6.456  15.687 -1.6860 -2.4475 -1.3666
17395TIP3   OH273599   5.051   0.891   5.620 -0.0591  0.2788  0.2426
17395TIP3    H173600   5.125   0.869   5.676  0.3138 -0.3695 -0.4819
17395TIP3    H273601   4.977   0.902   5.681  0.3483 -0.3286  0.8602
17396TIP3   OH273602   5.248   3.160   0.222 -0.2089 -0.0732  0.1956
17396TIP3    H173603   5.337   3.196   0.221 -0.6258  1.0093 -0.2198
17396TIP3    H273604   5.208   3.195   0.142 -2.0292  2.2378  1.9781
17397TIP3   OH273605   1.180   2.702   0.649  0.9188  0.5053 -0.0226
17397TIP3    H173606   1.099   2.700   0.598  1.4755 -1.1216 -0.9175
17397TIP3    H273607   1.219   2.787   0.629 -0.2139  1.0205 -0.1195
17398TIP3   OH273608   6.095   2.592   4.657 -0.5086  0.2718 -0.5197
17398TIP3    H173609   6.163   2.636   4.707  0.8952 -0.5495 -1.6375
17398TIP3    H273610   6.037   2.554   4.724  0.1600  0.9160  0.4506
17399TIP3   OH273611   4.535   5.201  13.971  0.6659  0.5867 -0.2260
17399TIP3    H173612   4.479   5.239  13.903  0.2360  0.8981  0.2979
17399TIP3    H273613   4.585   5.275  14.005  0.2377  0.5869  0.4076
17400TIP3   OH273614   3.356   1.764  13.586  0.1157  0.0676 -0.5471
17400TIP3    H173615   3.263   1.745  13.597 -0.0535 -1.1676 -3.4390
17400TIP3    H273616   3.368   1.849  13.629 -2.2803  0.1656  0.0599
17401TIP3   OH273617   2.266   3.589  13.286  0.2084 -0.0522  0.5207
17401TIP3    H173618   2.274   3.580  13.381  0.2863  0.3494  0.5529
17401TIP3    H273619   2.180   3.628  13.273  0.8074  1.3105  0.5148
17402TIP3   OH273620   3.781   2.520   3.790  0.4740  0.1088 -0.4893
17402TIP3    H173621   3.842   2.578   3.836 -0.1164  0.8627 -0.6443
17402TIP3    H273622   3.834   2.479   3.721  1.5133 -1.4491  1.1494
17403TIP3   OH273623   3.298   2.165  16.116  0.4987 -0.2184 -0.3207
17403TIP3    H173624   3.342   2.210  16.043 -0.1619  1.5326  0.2989
17403TIP3    H273625   3.344   2.081  16.123  2.4134  0.7060 -0.9755
17404TIP3   OH273626   4.173   3.059  11.010 -0.1212  0.0398  0.7852
17404TIP3    H173627   4.228   3.109  10.950 -2.9015  0.3221 -1.7546
17404TIP3    H273628   4.099   3.116  11.029 -0.1156 -0.6688  3.2946
17405TIP3   OH273629   6.162   0.778  14.299  0.0143 -0.3689 -0.7724
17405TIP3    H173630   6.167   0.746  14.209 -0.8420  0.0975 -0.9987
17405TIP3    H273631   6.142   0.871  14.290  1.5552  0.0524 -0.1146
17406TIP3   OH273632   0.586   3.728   4.545 -0.2910 -0.0215 -0.1042
17406TIP3    H173633   0.669   3.718   4.498  0.0611  1.3967  0.1750
17406TIP3    H273634   0.612   3.735   4.637 -0.5717  1.9526 -0.1448
17407TIP3   OH273635   4.556   1.190  13.341  0.3664 -0.0358 -0.1170
17407TIP3    H173636   4.568   1.212  13.433 -1.1736  2.1917 -0.3673
17407TIP3    H273637   4.483   1.244  13.313  0.5382 -0.9470 -2.5765
17408TIP3   OH273638   3.393   1.298   5.102 -0.0064  0.0102 -0.4109
17408TIP3    H173639   3.319   1.355   5.084 -1.2057 -1.1281  0.7258
17408TIP3    H273640   3.419   1.320   5.192 -1.2340 -1.9754  0.4769
17409TIP3   OH273641   2.944   6.606   2.496 -0.3685 -0.5770 -0.0659
17409TIP3    H173642   2.945   6.656   2.578  2.0239 -2.0034  0.8682
17409TIP3    H273643   2.959   6.515   2.523 -1.0149 -1.3086 -2.0022
17410TIP3   OH273644   0.156   3.295  14.204  0.2312 -0.1356  0.0986
17410TIP3    H173645   0.069   3.261  14.183  0.7699 -0.9696 -0.8819
17410TIP3    H273646   0.182   3.247  14.283 -0.0023 -0.2330  0.1157
17411TIP3   OH273647   3.605   2.759  12.588 -0.8385  0.1267 -0.8901
17411TIP3    H173648   3.598   2.664  12.599 -0.2512  0.2969  1.3422
17411TIP3    H273649   3.515   2.790  12.601 -0.9705 -0.0615 -1.2946
17412TIP3   OH273650   1.468   4.350  13.204 -1.1863 -0.1662 -0.1440
17412TIP3    H173651   1.519   4.426  13.232 -2.1121  0.1869  0.6069
17412TIP3    H273652   1.507   4.276  13.251 -0.6803 -0.0715 -0.4056
17413TIP3   OH273653   2.454   5.239   5.339  0.5021 -0.1593 -0.0543
17413TIP3    H173654   2.541   5.204   5.321  1.2072 -0.3103  3.0674
17413TIP3    H273655   2.462   5.333   5.323  0.5663 -0.4272 -1.8290
17414TIP3   OH273656   1.478   6.489  12.548 -0.2895 -0.0382  0.0637
17414TIP3    H173657   1.414   6.537  12.600  0.3038  1.0752 -0.1979
17414TIP3    H273658   1.456   6.510  12.458  0.2117  0.0654 -0.0378
17415TIP3   OH273659   5.126   3.305  13.875  0.0501 -0.0039  0.1819
17415TIP3    H173660   5.192   3.295  13.807  2.6188 -0.2768  2.5228
17415TIP3    H273661   5.050   3.255  13.844  0.6348  0.8091 -2.8860
17416TIP3   OH273662   2.027   0.165  13.731 -0.4307  0.5617 -0.1460
17416TIP3    H173663   2.080   0.103  13.781  1.0260  2.9857  1.5605
17416TIP3    H273664   1.945   0.172  13.780 -0.0632  0.9400  0.4319
17417TIP3   OH273665   3.505   3.286   4.218 -0.4918  0.0366  0.2412
17417TIP3    H173666   3.569   3.262   4.285 -1.4173 -2.1728  0.4012
17417TIP3    H273667   3.559   3.308   4.141  0.4915 -0.9451  0.6222
17418TIP3   OH273668   4.474   2.747  14.278 -0.5500  0.2381 -0.5181
17418TIP3    H173669   4.473   2.654  14.256  1.4353 -0.5148  2.0088
17418TIP3    H273670   4.400   2.759  14.338 -0.0991 -0.0233  0.1020
17419TIP3   OH273671   5.987   5.438   0.986 -0.4584 -0.8374  0.6664
17419TIP3    H173672   5.892   5.441   0.997 -0.5321 -0.9497  0.1110
17419TIP3    H273673   6.022   5.431   1.075 -0.9160  0.3306  0.9653
17420TIP3   OH273674   3.728   0.021  13.454 -0.2023 -0.0925  0.5224
17420TIP3    H173675   3.746   0.086  13.523  0.7014  1.5375 -1.1513
17420TIP3    H273676   3.786  -0.052  13.474  1.4939  1.1730  0.4515
17421TIP3   OH273677   6.513   0.987  11.763 -0.0191 -0.0774  0.1115
17421TIP3    H173678   6.494   1.075  11.796  1.0046  0.8005 -1.5123
17421TIP3    H273679   6.435   0.936  11.785 -0.6968  1.2676  0.9533
17422TIP3   OH273680   1.780   1.088   0.506  0.0426 -0.0509 -1.0330
17422TIP3    H173681   1.801   1.016   0.565 -1.2238  0.1808 -0.2481
17422TIP3    H273682   1.857   1.144   0.507  2.6290 -3.0527 -4.4498
17423TIP3   OH273683   0.479   6.412   2.054  0.2793 -0.2783  0.4468
17423TIP3    H173684   0.416   6.341   2.054 -0.5648  0.4470  0.0344
17423TIP3    H273685   0.438   6.480   2.000  2.3958 -0.6680 -1.8528
17424TIP3   OH273686   0.905   5.798   6.209  1.0193  0.0041  0.5404
17424TIP3    H173687   0.843   5.862   6.174  2.5627  0.3611 -1.7560
17424TIP3    H273688   0.877   5.785   6.299 -1.0787  1.7334  0.2336
17425TIP3   OH273689   4.667   4.972  17.168  0.0621  0.0777  0.0781
17425TIP3    H173690   4.620   5.051  17.195 -0.8529 -0.1243 -0.8509
17425TIP3    H273691   4.662   4.914  17.244 -0.4092  0.4190  0.3154
17426TIP3   OH273692   2.615   0.075   2.068 -0.3137 -0.2829  0.1205
17426TIP3    H173693   2.546   0.009   2.067 -1.1839  0.6169 -0.6934
17426TIP3    H273694   2.657   0.068   1.982  1.5193 -1.7161  1.0604
17427TIP3   OH273695   0.307   3.219  16.883 -0.0838 -0.4989 -0.1946
17427TIP3    H173696   0.228   3.245  16.837  0.3121  2.6224  0.6666
17427TIP3    H273697   0.320   3.287  16.950  2.5291 -1.6666  0.6347
17428TIP3   OH273698   3.007   2.199   4.964 -0.1086  0.2984 -0.0232
17428TIP3    H173699   3.027   2.136   4.894 -1.9052  0.0357 -0.3455
17428TIP3    H273700   3.051   2.163   5.041  0.8121 -0.1076 -0.7184
17429TIP3   OH273701   1.687   1.377  15.484 -0.0395 -0.4036  0.1013
17429TIP3    H173702   1.597   1.353  15.507 -0.6740  1.6883 -0.0241
17429TIP3    H273703   1.739   1.351  15.560 -1.0147 -0.1135  0.8821
17430TIP3   OH273704   5.950   2.335   5.440  0.4862  0.1598  0.4408
17430TIP3    H173705   5.871   2.370   5.481  0.1091  0.0345 -0.1566
17430TIP3    H273706   5.964   2.390   5.363  1.0200  0.2214  0.5773
17431TIP3   OH273707   4.058   3.607  16.881  0.0829  1.0423  0.3065
17431TIP3    H173708   4.089   3.518  16.901  2.3288  1.7549  0.3006
17431TIP3    H273709   4.068   3.655  16.963  1.9620  2.0315 -0.4310
17432TIP3   OH273710   0.702   1.936  10.875  0.3033 -0.3061  0.2268
17432TIP3    H173711   0.729   1.900  10.959  1.0412 -0.4258 -0.0533
17432TIP3    H273712   0.776   1.991  10.848 -0.5920  1.0330  0.4115
17433TIP3   OH273713   5.335   5.305  14.154  0.2692  0.4148 -0.1081
17433TIP3    H173714   5.341   5.313  14.059  0.8966  0.9621 -0.0318
17433TIP3    H273715   5.317   5.212  14.169  1.7041  0.0111 -0.7103
17434TIP3   OH273716   4.678   2.581  13.368  0.8186 -0.1357  0.1713
17434TIP3    H173717   4.676   2.493  13.406 -0.5035 -0.5909 -0.8842
17434TIP3    H273718   4.590   2.616  13.382 -0.2972 -0.9144 -3.6795
17435TIP3   OH273719   0.251   1.726  12.015  0.4535  0.1835  0.4863
17435TIP3    H173720   0.248   1.720  11.919 -0.9537 -0.3825  0.5457
17435TIP3    H273721   0.276   1.638  12.043 -2.5517 -0.6775  0.7277
17436TIP3   OH273722   0.032   1.943   2.042 -0.1731 -0.4465 -0.2348
17436TIP3    H173723   0.061   1.883   1.974 -1.0873 -1.1062 -0.0613
17436TIP3    H273724  -0.063   1.943   2.035 -0.2007  0.7973 -0.0665
17437TIP3   OH273725   2.961   4.650   3.894  0.0219  0.2030 -0.1199
17437TIP3    H173726   3.046   4.695   3.888 -0.9547  2.1589  0.0498
17437TIP3    H273727   2.934   4.639   3.803  0.4950 -0.5555 -0.1807
17438TIP3   OH273728   6.483   0.026   1.492  0.0771  0.2306  0.0138
17438TIP3    H173729   6.458  -0.053   1.541 -0.2694  0.6480  0.5273
17438TIP3    H273730   6.403   0.051   1.445 -0.2515  1.0694  0.9666
17439TIP3   OH273731   0.662   2.399   3.942 -0.4365 -1.0082 -0.1260
17439TIP3    H173732   0.676   2.392   4.037  0.7035 -1.2559 -0.3024
17439TIP3    H273733   0.567   2.411   3.933 -0.3954  0.6492  1.1464
17440TIP3   OH273734   2.505   5.618   2.866  0.2288  0.1069 -0.1934
17440TIP3    H173735   2.555   5.597   2.944 -1.1300 -0.3698  0.5782
17440TIP3    H273736   2.500   5.536   2.818 -0.1115  0.0705 -0.0953
17441TIP3   OH273737   4.480   5.599  12.871  0.5404 -0.2283 -0.0570
17441TIP3    H173738   4.565   5.615  12.832 -0.9189  0.8384 -3.1009
17441TIP3    H273739   4.469   5.669  12.935  2.5175 -1.3284  1.6004
17442TIP3   OH273740   5.049   2.303   3.593  0.1018  0.0519 -0.2789
17442TIP3    H173741   5.074   2.237   3.659  0.8861 -0.5539 -1.1477
17442TIP3    H273742   5.002   2.370   3.642 -0.9562 -1.2831  0.6031
17443TIP3   OH273743   2.810   1.376   3.963  0.3599  0.1117  0.4012
17443TIP3    H173744   2.869   1.368   3.888  1.7391  2.3693  1.1228
17443TIP3    H273745   2.855   1.331   4.034  0.3468  0.2507  0.4993
17444TIP3   OH273746   6.301   2.706   1.896  0.2704  0.1003  0.2166
17444TIP3    H173747   6.347   2.788   1.880 -1.5585  0.6113 -3.2760
17444TIP3    H273748   6.223   2.732   1.945  0.2268  0.2833  0.0500
17445TIP3   OH273749   0.833   6.569  16.935 -0.6690  0.0215 -0.0315
17445TIP3    H173750   0.791   6.527  16.859 -0.4735 -0.5443  0.1746
17445TIP3    H273751   0.822   6.506  17.006  3.4036 -1.7072 -0.6951
17446TIP3   OH273752   5.902   2.815  17.192  0.6025  0.1752 -0.0484
17446TIP3    H173753   5.834   2.882  17.193  0.1254 -0.2916  0.7037
17446TIP3    H273754   5.984   2.864  17.194  0.2835  0.7426 -0.5270
17447TIP3   OH273755   0.347   3.839  13.552 -0.2791 -0.1719 -0.1685
17447TIP3    H173756   0.278   3.847  13.487  1.5891  0.7472 -2.1681
17447TIP3    H273757   0.384   3.752  13.538 -0.9601 -0.6592  0.8900
17448TIP3   OH273758   0.999   2.494  13.254 -0.2951  0.1429  0.0287
17448TIP3    H173759   1.075   2.474  13.200  0.7649  0.6782  1.2681
17448TIP3    H273760   0.926   2.498  13.193  0.7214 -0.1014 -1.2316
17449TIP3   OH273761   3.646   5.846  12.591 -0.0676 -0.0328  0.3513
17449TIP3    H173762   3.577   5.862  12.526  0.2710  1.1067  0.2492
17449TIP3    H273763   3.623   5.902  12.665  1.3549  1.3242 -0.1584
17450TIP3   OH273764   0.775   3.544   5.724  0.3205 -0.3947 -0.0112
17450TIP3    H173765   0.857   3.592   5.734 -0.5397  0.8880  1.2802
17450TIP3    H273766   0.708   3.602   5.760 -0.9933 -1.9041  0.1250
17451TIP3   OH273767   4.187   1.672  16.574  0.2298 -0.2219  0.4042
17451TIP3    H173768   4.209   1.594  16.522 -0.2114 -1.3467  1.8415
17451TIP3    H273769   4.236   1.743  16.533 -0.1308 -1.0494 -1.5532
17452TIP3   OH273770   1.299   3.900  13.425  0.0685  0.0245 -0.6167
17452TIP3    H173771   1.291   3.869  13.515 -0.2736  0.2030 -0.5827
17452TIP3    H273772   1.238   3.845  13.375 -1.3207  1.2912 -0.3884
17453TIP3   OH273773   3.449   5.709  15.682 -0.4821 -0.2435 -0.0513
17453TIP3    H173774   3.444   5.696  15.777 -2.9710  0.2815 -0.0358
17453TIP3    H273775   3.508   5.783  15.670 -0.5505  0.0126  1.1321
17454TIP3   OH273776   4.070   0.026  13.618 -0.8721 -0.4863  0.1487
17454TIP3    H173777   4.029   0.092  13.562 -2.2576  0.6245  2.3086
17454TIP3    H273778   4.154   0.065  13.644 -0.7376 -0.5058 -0.2563
17455TIP3   OH273779   4.560   2.591  13.638 -0.2243 -0.7814 -0.4437
17455TIP3    H173780   4.632   2.644  13.604 -0.4810 -0.2102 -0.1193
17455TIP3    H273781   4.594   2.556  13.721 -0.6091  0.2117  0.1602
17456TIP3   OH273782   5.950   0.953  15.508  0.1979  0.0396  0.1385
17456TIP3    H173783   5.960   0.917  15.596 -1.0724 -0.2866  0.1556
17456TIP3    H273784   5.963   1.047  15.519 -0.5685  0.0711  0.7760
17457TIP3   OH273785   4.671   0.937   1.268  0.0128 -0.2147 -0.0560
17457TIP3    H173786   4.727   0.906   1.197 -0.5992  0.4089 -0.8291
17457TIP3    H273787   4.731   0.971   1.333  0.8144 -3.6341  1.2290
17458TIP3   OH273788   2.930   2.563   1.223  0.4141  0.5533 -0.3415
17458TIP3    H173789   2.907   2.637   1.168  0.5527  1.6078  0.9712
17458TIP3    H273790   2.938   2.490   1.163 -1.7519  1.1303 -1.4453
17459TIP3   OH273791   6.175   4.673   3.697 -0.0991  0.1525 -0.0754
17459TIP3    H173792   6.124   4.625   3.632 -1.2532  1.8751 -0.5394
17459TIP3    H273793   6.260   4.688   3.656  1.2378 -3.4808  1.0260
17460TIP3   OH273794   2.709   5.932   3.315  0.2901  0.1368  0.5207
17460TIP3    H173795   2.802   5.918   3.301  0.1282 -0.6228  0.1515
17460TIP3    H273796   2.704   5.981   3.398  0.9635 -0.8944  1.1905
17461TIP3   OH273797   4.219   6.274   0.983  0.4524  0.8853  0.3503
17461TIP3    H173798   4.180   6.361   0.987  0.0210  0.7345 -0.4639
17461TIP3    H273799   4.240   6.253   1.074 -2.3823  0.4986  1.0174
17462TIP3   OH273800   6.625   5.831  11.747  0.2939  0.2021 -0.3533
17462TIP3    H173801   6.552   5.869  11.698 -0.0719  2.3949  1.7402
17462TIP3    H273802   6.676   5.784  11.681 -2.5925 -0.8671 -2.0208
17463TIP3   OH273803   4.502   4.951   4.895 -0.0360 -0.0183 -0.2750
17463TIP3    H173804   4.520   4.860   4.919  0.5062 -0.4363 -2.1241
17463TIP3    H273805   4.417   4.969   4.936  0.4815 -0.8765  1.2812
17464TIP3   OH273806   0.371   2.200  14.022 -0.4537  0.1378  0.6024
17464TIP3    H173807   0.297   2.177  14.078 -0.7963 -1.5398 -0.4606
17464TIP3    H273808   0.447   2.195  14.079 -0.9232 -0.3161  1.1981
17465TIP3   OH273809   2.658   0.819   5.472  0.2487 -0.3354  0.1904
17465TIP3    H173810   2.605   0.836   5.394 -1.4653 -2.5684  0.7685
17465TIP3    H273811   2.613   0.866   5.542  1.3491  1.0292  0.0227
17466TIP3   OH273812   6.168   6.095  13.795 -0.2836  0.9288  0.3160
17466TIP3    H173813   6.194   6.186  13.778  0.2440  0.8662  0.7837
17466TIP3    H273814   6.091   6.082  13.739 -1.3889  2.2017  1.4782
17467TIP3   OH273815   4.335   6.678  12.809 -0.1849  0.2823  0.0486
17467TIP3    H173816   4.256   6.684  12.862 -0.8535  0.7487 -0.9658
17467TIP3    H273817   4.385   6.756  12.830 -0.1324  0.1322  0.4782
17468TIP3   OH273818   4.027   2.755   3.711 -0.0746  0.1936  0.6473
17468TIP3    H173819   4.105   2.719   3.754  1.7316  0.8601 -1.8496
17468TIP3    H273820   4.058   2.836   3.670 -2.3897  1.0722  0.4844
17469TIP3   OH273821   1.582   0.461   0.847  0.5675 -1.1987 -0.1424
17469TIP3    H173822   1.656   0.450   0.906  0.5224  0.3628  0.2465
17469TIP3    H273823   1.616   0.514   0.775 -0.5475  1.1749  0.9426
17470TIP3   OH273824   0.167   2.040  13.007  0.1231  0.2450  0.1805
17470TIP3    H173825   0.251   2.007  13.040  1.9288  1.9998 -2.2437
17470TIP3    H273826   0.128   1.964  12.963  0.7528 -0.4466  0.7880
17471TIP3   OH273827   5.310   3.260  16.780 -0.0513  0.2363 -0.6114
17471TIP3    H173828   5.306   3.209  16.699 -0.9420 -0.6253 -0.0485
17471TIP3    H273829   5.380   3.324  16.765 -0.9075  0.8161 -2.4606
17472TIP3   OH273830   5.000   3.633  12.631  0.4655 -0.6284 -0.2771
17472TIP3    H173831   5.070   3.645  12.567  1.4029 -0.5196  0.7270
17472TIP3    H273832   4.974   3.541  12.623  0.8246 -0.7042 -0.5591
17473TIP3   OH273833   6.620   0.119  15.197 -0.5004  0.0768  0.3028
17473TIP3    H173834   6.638   0.060  15.123 -0.8399 -1.2563  1.2419
17473TIP3    H273835   6.686   0.096  15.262 -0.6635  0.7242  0.7002
17474TIP3   OH273836   5.390   4.250  12.290  0.4154  0.0954  0.2905
17474TIP3    H173837   5.419   4.165  12.325 -1.9579 -0.1610  1.9004
17474TIP3    H273838   5.431   4.256  12.204  0.6066 -2.7427  0.0836
17475TIP3   OH273839   6.461   6.281   4.044 -0.3530 -0.2265 -0.0297
17475TIP3    H173840   6.555   6.290   4.031 -0.3547  1.2673  0.7341
17475TIP3    H273841   6.423   6.344   3.982 -0.9470 -1.8806 -1.4073
17476TIP3   OH273842   5.478   3.192   5.426 -0.2816  0.7921 -0.1621
17476TIP3    H173843   5.388   3.217   5.447 -0.1506  1.2885 -0.1771
17476TIP3    H273844   5.489   3.106   5.466 -1.6544 -0.5746 -2.5120
17477TIP3   OH273845   1.248   3.427   3.447  0.2941  0.3816  0.4624
17477TIP3    H173846   1.155   3.436   3.463 -0.0424 -0.2082 -0.9702
17477TIP3    H273847   1.271   3.501   3.390  0.7071  0.5393  0.8257
17478TIP3   OH273848   0.246   5.163   2.677 -0.1019 -0.5553  0.3450
17478TIP3    H173849   0.228   5.087   2.621 -1.4898 -0.2909  0.3944
17478TIP3    H273850   0.288   5.226   2.619  1.1142 -1.3651  0.3146
17479TIP3   OH273851   2.254   2.444   4.345 -0.0233 -0.1276 -0.1129
17479TIP3    H173852   2.238   2.437   4.251  2.0682  2.4584 -0.8019
17479TIP3    H273853   2.224   2.361   4.382 -4.7645  0.2510 -2.3961
17480TIP3   OH273854   1.814   5.962   1.981  0.4069  0.2923 -0.0152
17480TIP3    H173855   1.816   6.054   1.956 -1.1683  0.3294 -0.1070
17480TIP3    H273856   1.870   5.918   1.917  3.4966  1.4759  1.6540
17481TIP3   OH273857   6.264   1.161   2.056  0.4307  0.6449  0.4861
17481TIP3    H173858   6.293   1.250   2.076  2.4022  0.0669  0.4377
17481TIP3    H273859   6.238   1.164   1.964  3.5583  0.5598 -0.5273
17482TIP3   OH273860   4.794   5.283  11.682 -0.4029  0.5349 -0.1039
17482TIP3    H173861   4.713   5.279  11.630  0.0303  0.6679 -0.7991
17482TIP3    H273862   4.860   5.243  11.626 -0.0048  0.3375  0.5054
17483TIP3   OH273863   1.359   2.493  16.731 -0.4690  0.5088 -0.3460
17483TIP3    H173864   1.305   2.420  16.761 -0.3621  0.4103 -0.3931
17483TIP3    H273865   1.330   2.509  16.641  0.6690 -0.5915 -0.9443
17484TIP3   OH273866   2.653   4.509  11.823 -0.3339 -0.1859 -0.0941
17484TIP3    H173867   2.564   4.491  11.793 -0.8948 -0.6714  1.7220
17484TIP3    H273868   2.709   4.482  11.750 -1.6524 -0.1134 -1.1648
17485TIP3   OH273869   3.331   3.847   1.450  0.2440 -0.6557 -0.1679
17485TIP3    H173870   3.306   3.913   1.385  1.9171 -0.0081 -0.1809
17485TIP3    H273871   3.293   3.879   1.532  0.5567  0.0319 -0.2850
17486TIP3   OH273872   5.537   0.699  14.927  0.1050 -0.0167  0.0071
17486TIP3    H173873   5.609   0.755  14.898  0.7674  0.1251  1.8184
17486TIP3    H273874   5.510   0.652  14.848  0.9411  1.2850 -1.1045
17487TIP3   OH273875   2.284   5.036  13.952  0.2158  0.1380  0.3970
17487TIP3    H173876   2.311   5.064  13.865 -2.0823  1.5479  0.0290
17487TIP3    H273877   2.347   5.078  14.011  0.4573  1.0688 -0.4870
17488TIP3   OH273878   1.585   6.394  16.224  0.1129  0.4003 -0.3194
17488TIP3    H173879   1.577   6.402  16.319  0.2475  0.5468 -0.3204
17488TIP3    H273880   1.501   6.359  16.196  0.9033 -2.0144  0.1260
17489TIP3   OH273881   4.387   2.220  12.559  0.0951 -0.3244 -0.2587
17489TIP3    H173882   4.469   2.173  12.542  0.2598  0.4503 -1.7736
17489TIP3    H273883   4.319   2.165  12.520 -0.3312 -1.5702  2.0239
17490TIP3   OH273884   1.973   0.361   5.147  0.4163  0.6894 -0.6925
17490TIP3    H173885   1.905   0.354   5.214  2.6945 -0.3408  1.6700
17490TIP3    H273886   1.996   0.454   5.146 -0.4573  0.9144 -0.9640
17491TIP3   OH273887   5.807   6.725  13.490  0.1256 -0.1651  0.0186
17491TIP3    H173888   5.845   6.688  13.410  1.1475 -0.9591  0.8524
17491TIP3    H273889   5.718   6.690  13.494  0.1823 -0.3836 -0.5848
17492TIP3   OH273890   3.004   1.372   3.767 -0.9074  0.2705  0.3565
17492TIP3    H173891   3.028   1.345   3.679  0.0810  1.2724  0.2925
17492TIP3    H273892   3.075   1.431   3.794 -1.4234  0.3310  1.6430
17493TIP3   OH273893   5.123   6.574   5.495 -0.0004 -0.6688  0.3052
17493TIP3    H173894   5.077   6.619   5.424 -2.2448  0.3863  2.3088
17493TIP3    H273895   5.214   6.602   5.487 -0.6478  1.2389 -0.7782
17494TIP3   OH273896   5.449   6.703  13.716 -0.0629  0.2946 -0.5276
17494TIP3    H173897   5.491   6.674  13.635  1.5626 -1.1355  0.7690
17494TIP3    H273898   5.414   6.790  13.695 -1.6700 -0.8959 -3.3926
17495TIP3   OH273899   0.075   4.320  14.848 -0.2646  0.4506 -0.0143
17495TIP3    H173900   0.164   4.321  14.883 -0.7734  1.8903  1.4094
17495TIP3    H273901   0.064   4.406  14.807 -0.5073 -0.3013 -1.5865
17496TIP3   OH273902   5.617   4.794  14.182 -0.0497  0.2972  0.1735
17496TIP3    H173903   5.662   4.876  14.204 -1.2288  1.3887 -1.2843
17496TIP3    H273904   5.562   4.776  14.259  0.8323  0.4135  0.8450
17497TIP3   OH273905   5.188   0.121  11.863  0.5543 -0.3053  0.1817
17497TIP3    H173906   5.206   0.135  11.956 -1.1469 -1.8626  0.7986
17497TIP3    H273907   5.118   0.057  11.861  0.7042 -0.4969 -2.2105
17498TIP3   OH273908   2.660   3.817   6.088  0.2537  0.1560  0.3661
17498TIP3    H173909   2.657   3.745   6.151 -1.9643 -0.6000 -0.4812
17498TIP3    H273910   2.735   3.798   6.033  0.7588 -0.5169  1.2595
17499TIP3   OH273911   6.151   6.420   2.607 -0.2200  0.2434  0.3893
17499TIP3    H173912   6.142   6.513   2.630  0.3192 -0.0051  1.6956
17499TIP3    H273913   6.195   6.381   2.682  0.4568 -0.8957 -0.5537
17500TIP3   OH273914   6.394   6.767   0.494  0.0178 -0.2331  0.0087
17500TIP3    H173915   6.479   6.746   0.455  0.2058  0.2860  0.1369
17500TIP3    H273916   6.356   6.682   0.515  1.3330 -0.4556  1.7436
17501TIP3   OH273917   3.177   1.109   5.171  0.1308  0.0134 -0.1654
17501TIP3    H173918   3.216   1.176   5.227 -0.5315  0.1769  0.1171
17501TIP3    H273919   3.251   1.069   5.125  0.4590  1.5958 -1.0882
17502TIP3   OH273920   3.607   4.176  16.557 -0.1861  0.0703  0.4693
17502TIP3    H173921   3.621   4.082  16.549  0.3937  0.0866  1.2222
17502TIP3    H273922   3.526   4.192  16.508  1.5014 -0.2488 -2.6737
17503TIP3   OH273923   1.169   3.537  12.285  0.1120 -0.0648  0.6346
17503TIP3    H173924   1.262   3.513  12.285  0.2223  0.2384 -0.7819
17503TIP3    H273925   1.126   3.463  12.242 -0.0293  0.6244 -0.4475
17504TIP3   OH273926   0.355   5.524   0.201 -0.1758 -0.3846 -0.1878
17504TIP3    H173927   0.383   5.460   0.266  0.5400 -2.9182 -2.7965
17504TIP3    H273928   0.436   5.565   0.171 -0.2521 -0.7107 -0.8729
17505TIP3   OH273929   6.650   2.739   0.540 -0.4077  0.1328  0.1182
17505TIP3    H173930   6.593   2.749   0.463  0.2361  1.9660 -0.1621
17505TIP3    H273931   6.732   2.704   0.505 -0.0964  1.0179 -0.0479
17506TIP3   OH273932   6.573   4.334   5.759  0.1951  0.5219  0.0288
17506TIP3    H173933   6.600   4.361   5.847 -0.3748 -2.8087  1.3865
17506TIP3    H273934   6.504   4.396   5.735  1.4438  2.4474  1.2141
17507TIP3   OH273935   4.884   1.778  15.086 -0.0969  0.0041  0.0915
17507TIP3    H173936   4.843   1.852  15.040  0.5382 -0.6599 -1.6464
17507TIP3    H273937   4.943   1.818  15.149 -1.0183  0.9653  0.3822
17508TIP3   OH273938   1.144   1.261  13.815 -0.1672 -0.7477  0.2812
17508TIP3    H173939   1.196   1.245  13.894 -0.7687  3.3593  1.7487
17508TIP3    H273940   1.053   1.247  13.843 -0.3004 -0.7342 -0.1441
17509TIP3   OH273941   4.905   6.254  14.889  0.1837  0.5272 -0.3675
17509TIP3    H173942   4.898   6.180  14.949  1.3552 -1.8439 -2.9099
17509TIP3    H273943   4.944   6.324  14.941  3.0602 -2.0036  1.2126
17510TIP3   OH273944   4.566   4.936   3.375 -0.5125 -0.3097 -0.5608
17510TIP3    H173945   4.557   4.954   3.282  0.7833  0.9833 -0.4627
17510TIP3    H273946   4.569   4.840   3.380 -0.8998 -0.4083 -1.7941
17511TIP3   OH273947   0.216   5.464  12.211 -0.1078  0.8062 -0.2427
17511TIP3    H173948   0.304   5.463  12.248 -0.2021 -0.0745 -0.0396
17511TIP3    H273949   0.227   5.503  12.124  0.2763  1.8973  0.2799
17512TIP3   OH273950   5.859   4.188  10.897 -0.2134  0.2138 -0.6847
17512TIP3    H173951   5.805   4.111  10.876 -1.5626  0.3991  1.7422
17512TIP3    H273952   5.940   4.174  10.848 -0.5909 -2.5375 -0.7011
17513TIP3   OH273953   0.071   0.777   5.714  0.1528  0.3040  0.3080
17513TIP3    H173954   0.163   0.781   5.689  0.2614  0.8565  0.7937
17513TIP3    H273955   0.038   0.866   5.698 -0.0401  0.3811  1.1005
17514TIP3   OH273956   1.528   1.289   3.805 -0.6940  0.0996  0.0970
17514TIP3    H173957   1.570   1.366   3.843 -1.4551  0.7140 -0.2898
17514TIP3    H273958   1.516   1.311   3.713  2.2641 -1.8443 -0.9047
17515TIP3   OH273959   6.751   5.053   5.612 -0.3771  0.3309 -0.3607
17515TIP3    H173960   6.676   5.023   5.560 -0.1420  3.6762 -2.9463
17515TIP3    H273961   6.711   5.092   5.690 -1.0062 -1.2846  0.1651
17516TIP3   OH273962   6.355   4.961   0.998  0.2205  0.0973 -0.0022
17516TIP3    H173963   6.390   5.004   0.920  1.2995  1.0219  0.9445
17516TIP3    H273964   6.270   5.001   1.012 -1.3522 -2.1040 -2.2845
17517TIP3   OH273965   6.274   4.895  16.427 -0.1681  0.0388  0.2634
17517TIP3    H173966   6.233   4.816  16.461 -0.2412 -0.2243 -0.4260
17517TIP3    H273967   6.272   4.957  16.501 -0.3189 -0.5163  0.7317
17518TIP3   OH273968   4.466   4.263  16.717  0.2567 -0.2540  0.3201
17518TIP3    H173969   4.454   4.205  16.641  1.8280  0.8852 -0.8529
17518TIP3    H273970   4.411   4.339  16.697  2.0367  0.8589 -0.6269
17519TIP3   OH273971   6.781   3.851   4.213  0.2492  0.5629 -0.2539
17519TIP3    H173972   6.713   3.883   4.154  1.0089 -1.3007 -2.2754
17519TIP3    H273973   6.863   3.880   4.174  0.7255  1.3847  1.2695
17520TIP3   OH273974   2.680   4.529  10.803  0.7192 -0.1501 -0.3230
17520TIP3    H173975   2.623   4.598  10.770  2.0231  1.4377  0.5826
17520TIP3    H273976   2.768   4.568  10.802  1.2113 -0.9809  2.3023
17521TIP3   OH273977   3.091   3.386  13.738 -0.0382  0.2750 -0.2211
17521TIP3    H173978   3.085   3.357  13.829 -0.4917  0.1942 -0.2749
17521TIP3    H273979   3.180   3.362  13.711  0.8267  2.1117  0.8153
17522TIP3   OH273980   3.260   3.602  15.630  0.3664 -0.2435  0.3389
17522TIP3    H173981   3.330   3.656  15.667  0.4827  1.4381 -2.1268
17522TIP3    H273982   3.302   3.518  15.611  0.9505 -0.2314  1.4631
17523TIP3   OH273983   3.100   4.485   5.883 -0.5773  0.0492 -0.1166
17523TIP3    H173984   3.062   4.571   5.901  1.6063  0.7952  1.3781
17523TIP3    H273985   3.116   4.485   5.788 -0.9894  1.1010 -0.1959
17524TIP3   OH273986   6.271   4.990   5.892 -0.0640  0.5101 -0.4781
17524TIP3    H173987   6.214   5.066   5.907  1.1657  1.4168 -0.2134
17524TIP3    H273988   6.248   4.929   5.962 -2.2465 -0.1416 -1.6577
17525TIP3   OH273989   4.285   4.124  15.543 -0.2538 -0.2177  0.0740
17525TIP3    H173990   4.368   4.076  15.542 -1.1406 -1.9560  2.1970
17525TIP3    H273991   4.309   4.213  15.569  1.2315  0.1494 -2.2611
17526TIP3   OH273992   2.756   0.551  12.436 -0.1308 -0.5631 -0.7695
17526TIP3    H173993   2.691   0.515  12.496  1.4920 -0.3206  1.2433
17526TIP3    H273994   2.707   0.611  12.380 -1.7701 -1.0698  0.0759
17527TIP3   OH273995   4.852   0.321   2.665  0.4923  0.5524  0.0490
17527TIP3    H173996   4.819   0.384   2.729 -0.2429 -2.3141  2.7917
17527TIP3    H273997   4.939   0.352   2.643 -0.6893  3.7315 -0.6878
17528TIP3   OH273998   6.051   2.989  11.698  0.0941 -0.0887 -0.3402
17528TIP3    H173999   6.007   3.038  11.628  0.5245  0.9454  0.0880
17528TIP3    H274000   6.010   3.020  11.778  1.5745  0.9047  0.0680
17529TIP3   OH274001   0.865   3.357   6.073 -0.6089 -0.3071  0.1962
17529TIP3    H174002   0.837   3.448   6.069 -1.4544 -0.5718 -0.1622
17529TIP3    H274003   0.932   3.355   6.141 -2.2602  0.1542  1.9493
17530TIP3   OH274004   0.906   1.585  15.106  0.0722  0.5346  0.1343
17530TIP3    H174005   0.981   1.643  15.124  0.8118 -0.1250 -0.7305
17530TIP3    H274006   0.839   1.644  15.071  0.7396  0.9235 -0.5357
17531TIP3   OH274007   5.773   1.689   1.134 -0.0652 -0.5187  0.6904
17531TIP3    H174008   5.809   1.676   1.222  0.1538 -0.1474  0.6564
17531TIP3    H274009   5.802   1.776   1.108 -2.9033  0.7880  1.5719
17532TIP3   OH274010   1.884   3.390  15.105 -0.1670 -0.2406 -0.6636
17532TIP3    H174011   1.872   3.419  15.195 -1.5459  1.4523 -1.3387
17532TIP3    H274012   1.841   3.305  15.101 -1.7138  0.4896 -0.1364
17533TIP3   OH274013   5.261   3.879   0.206 -0.1900 -0.4218  0.0309
17533TIP3    H174014   5.261   3.821   0.282 -0.4479 -2.0772 -1.1922
17533TIP3    H274015   5.187   3.938   0.221 -0.3648 -0.8621  0.9540
17534TIP3   OH274016   3.327   1.455  16.667  0.2020 -0.5553  0.4071
17534TIP3    H174017   3.293   1.428  16.753  1.3457 -2.0964  0.4131
17534TIP3    H274018   3.393   1.522  16.687  0.6812 -1.1260  0.7691
17535TIP3   OH274019   5.854   5.547  11.494  0.3280 -0.0272 -0.3145
17535TIP3    H174020   5.819   5.467  11.454  0.4603 -0.4642  0.4229
17535TIP3    H274021   5.859   5.527  11.588 -1.2992  1.4477  0.1434
17536TIP3   OH274022   2.045   4.244  11.526 -0.2535 -0.1789  0.2078
17536TIP3    H174023   2.001   4.236  11.441 -0.5058  1.2693  0.1788
17536TIP3    H274024   2.138   4.252  11.505 -0.2037 -0.8766  0.1386
17537TIP3   OH274025   5.119   5.231  13.501  0.1857  0.4598 -0.7809
17537TIP3    H174026   5.103   5.139  13.480 -1.4737  0.3843  0.5490
17537TIP3    H274027   5.058   5.280  13.447  0.1510  0.6809 -0.5466
17538TIP3   OH274028   6.144   3.969   0.839 -0.3344 -0.5430 -0.0540
17538TIP3    H174029   6.207   3.902   0.865  0.5115  1.2899  3.2059
17538TIP3    H274030   6.059   3.927   0.846  0.2004 -1.4663  1.4886
17539TIP3   OH274031   5.327   2.569  11.169 -0.1234 -0.0479  0.2811
17539TIP3    H174032   5.339   2.475  11.155  1.1419 -0.0280  1.0543
17539TIP3    H274033   5.261   2.594  11.105  1.3832 -0.9880 -1.7943
17540TIP3   OH274034   1.342   3.919   3.465  0.2413 -0.2992  0.0249
17540TIP3    H174035   1.335   3.994   3.523  0.5683 -0.9454  0.9393
17540TIP3    H274036   1.321   3.952   3.378 -0.9296  0.5561  0.6127
17541TIP3   OH274037   4.244   0.484   0.476 -0.0487  0.3537  0.2067
17541TIP3    H174038   4.336   0.489   0.500 -0.2048 -0.9549  1.1302
17541TIP3    H274039   4.233   0.398   0.437 -0.6865  0.8782 -0.8371
17542TIP3   OH274040   4.627   0.962  17.228  0.1207 -0.2457 -0.3893
17542TIP3    H174041   4.536   0.992  17.221 -0.0864 -0.6499  0.4793
17542TIP3    H274042   4.672   1.033  17.274  0.2354 -0.0784 -0.7539
17543TIP3   OH274043   0.019   0.469  15.058 -0.4203  0.0816  0.1548
17543TIP3    H174044   0.045   0.392  15.109 -1.0665 -1.1830 -1.3635
17543TIP3    H274045  -0.014   0.434  14.975 -1.3067  1.9616 -0.3503
17544TIP3   OH274046   4.523   1.592  14.353 -0.5345 -0.4243  0.0905
17544TIP3    H174047   4.539   1.608  14.446 -0.9082  0.4979  0.0021
17544TIP3    H274048   4.430   1.613  14.341  0.0575  1.9346 -0.9804
17545TIP3   OH274049   1.632   1.730   0.157 -0.1797  0.3685 -0.4161
17545TIP3    H174050   1.686   1.702   0.231 -1.2870 -0.0420  0.2496
17545TIP3    H274051   1.550   1.682   0.166 -0.4686  0.5563 -1.7303
17546TIP3   OH274052   5.161   0.645   2.446  0.1045 -0.0887  0.3084
17546TIP3    H174053   5.203   0.719   2.401  0.3335 -0.1139  0.4822
17546TIP3    H274054   5.173   0.571   2.387 -1.3929  0.3114 -0.5563
17547TIP3   OH274055   2.300   2.968  14.145  0.0264  0.1034  0.4829
17547TIP3    H174056   2.220   2.935  14.104  0.7645  0.0725 -0.9860
17547TIP3    H274057   2.337   2.893  14.191  0.1508 -0.3739 -0.3698
17548TIP3   OH274058   5.638   6.215  16.782 -0.1874 -0.3637 -0.0873
17548TIP3    H174059   5.572   6.253  16.724  1.6708  1.0937 -1.3677
17548TIP3    H274060   5.641   6.122  16.759  0.4108  0.1514 -2.3323
17549TIP3   OH274061   2.400   0.758   0.601 -0.0527 -0.2281 -0.4838
17549TIP3    H174062   2.337   0.829   0.605 -1.0619 -1.1275  0.1457
17549TIP3    H274063   2.443   0.760   0.687 -0.6140 -0.8295 -0.1790
17550TIP3   OH274064   4.746   1.930   0.928 -0.1038  0.2454 -0.3552
17550TIP3    H174065   4.805   1.963   0.996 -2.2382  0.5931  1.4516
17550TIP3    H274066   4.803   1.913   0.853  2.3914 -0.2476  1.5222
17551TIP3   OH274067   2.256   6.698  11.382  0.1534 -0.1503 -0.0242
17551TIP3    H174068   2.235   6.773  11.438 -0.4848 -0.5007  0.2188
17551TIP3    H274069   2.183   6.638  11.395 -0.6071  0.2357 -2.0824
17552TIP3   OH274070   6.268   3.150   3.730 -0.1678  0.1367  0.0298
17552TIP3    H174071   6.340   3.132   3.791  1.3592  0.9332 -1.4281
17552TIP3    H274072   6.208   3.076   3.739 -0.0414  0.2673  2.5056
17553TIP3   OH274073   6.072   4.321  10.646  0.7740  0.4830  0.3576
17553TIP3    H174074   6.045   4.248  10.592  1.0299  0.2651  0.5211
17553TIP3    H274075   6.166   4.330  10.630  1.0893 -0.2897  1.5780
17554TIP3   OH274076   6.617   0.042  11.528 -0.0583  0.5746 -0.1316
17554TIP3    H174077   6.683   0.108  11.548 -0.6574  0.5754  2.1911
17554TIP3    H274078   6.665  -0.041  11.526  0.0468  0.5533  1.6945
17555TIP3   OH274079   0.113   2.433  15.991  0.3056 -0.2427 -0.0038
17555TIP3    H174080   0.118   2.527  15.974  0.2623 -0.2964 -0.3358
17555TIP3    H274081   0.182   2.415  16.055 -1.3824  0.4590  2.1334
17556TIP3   OH274082   1.108   3.120   6.249 -0.2055  0.0072 -0.1553
17556TIP3    H174083   1.096   3.208   6.284 -2.5102 -0.7028  1.0565
17556TIP3    H274084   1.040   3.110   6.183  2.0233  0.1498 -2.6467
17557TIP3   OH274085   3.405   2.743   0.410 -0.2436  0.2974  0.2852
17557TIP3    H174086   3.389   2.649   0.402  4.4336 -0.6797 -0.4474
17557TIP3    H274087   3.416   2.773   0.320  0.9899  0.9032  0.6194
17558TIP3   OH274088   6.249   5.246   3.437 -0.4685 -0.0066  0.1234
17558TIP3    H174089   6.215   5.228   3.350 -0.2253 -1.6128  0.3250
17558TIP3    H274090   6.301   5.326   3.427 -0.6199 -0.0562 -1.1549
17559TIP3   OH274091   6.754   5.741  11.452  0.2872 -0.9163 -0.3228
17559TIP3    H174092   6.780   5.694  11.372  1.5389 -0.1288 -0.4093
17559TIP3    H274093   6.715   5.822  11.420  1.1419 -0.4248 -0.1476
17560TIP3   OH274094   1.522   3.563  12.547  0.8787  0.3111  0.5240
17560TIP3    H174095   1.578   3.485  12.552  1.5112  0.4814 -2.3622
17560TIP3    H274096   1.438   3.534  12.582  1.3951 -1.3645  0.4725
17561TIP3   OH274097   6.024   1.424   2.033  0.1850  0.1737 -0.3446
17561TIP3    H174098   6.020   1.504   1.981 -0.5429  2.3287  2.7755
17561TIP3    H274099   6.037   1.354   1.968  1.2721  2.7880 -3.1848
17562TIP3   OH274100   6.406   6.675   2.856 -0.9373 -0.1569 -0.1958
17562TIP3    H174101   6.316   6.684   2.824 -0.4503 -0.2965 -1.6487
17562TIP3    H274102   6.409   6.585   2.890 -1.9529  0.5493  1.9631
17563TIP3   OH274103   6.508   5.884   5.521 -0.2017 -0.9960  0.3770
17563TIP3    H174104   6.559   5.918   5.595  0.1288 -0.0447 -0.2636
17563TIP3    H274105   6.537   5.936   5.446 -1.2916 -1.2150 -0.2218
17564TIP3   OH274106   6.377   3.112   4.114 -0.3087 -0.1966  1.2848
17564TIP3    H174107   6.441   3.110   4.186 -0.6365 -0.2201  1.5794
17564TIP3    H274108   6.430   3.123   4.035  0.1075 -0.8142  1.4674
17565TIP3   OH274109   0.429   4.342   0.016  0.0172  0.6547 -0.1423
17565TIP3    H174110   0.382   4.289   0.080 -2.0936  0.0835 -2.0311
17565TIP3    H274111   0.474   4.279  -0.039  0.7133  1.0551 -0.0407
17566TIP3   OH274112   5.768   1.439   1.327 -0.0526  0.6693  0.5482
17566TIP3    H174113   5.794   1.356   1.287  0.8791  0.6764  1.1163
17566TIP3    H274114   5.681   1.456   1.291  0.1788 -0.0221 -0.3854
17567TIP3   OH274115   2.522   4.898   0.307 -0.1658 -0.0624  0.5895
17567TIP3    H174116   2.534   4.986   0.272 -0.3135  0.0510  0.8278
17567TIP3    H274117   2.570   4.842   0.246  0.6688  0.2778  0.9214
17568TIP3   OH274118   4.116   4.843   4.391 -0.1252  0.1088 -0.1520
17568TIP3    H174119   4.044   4.889   4.435 -0.1944 -0.1508  0.0132
17568TIP3    H274120   4.114   4.755   4.429  0.6645  0.2791  0.3029
17569TIP3   OH274121   5.211   5.026  16.234  0.1248  0.1815  0.1344
17569TIP3    H174122   5.228   4.943  16.189  1.2404 -0.0019  0.8724
17569TIP3    H274123   5.223   5.092  16.166 -1.3078 -0.2598 -0.5991
17570TIP3   OH274124   1.434   4.853   2.292  0.3208 -0.1431 -0.1638
17570TIP3    H174125   1.407   4.906   2.367  1.5328  2.1863 -1.2903
17570TIP3    H274126   1.352   4.830   2.248 -0.4633 -1.9539  2.0058
17571TIP3   OH274127   0.219   1.633  11.739  0.0370  0.1504 -0.3114
17571TIP3    H174128   0.206   1.542  11.765 -1.3925  0.4762  0.2009
17571TIP3    H274129   0.232   1.629  11.644  0.0548 -0.5896 -0.2847
17572TIP3   OH274130   4.786   3.056  12.108  0.4104 -0.4905 -0.7774
17572TIP3    H174131   4.696   3.076  12.133  0.6381  0.0847 -0.3824
17572TIP3    H274132   4.826   3.018  12.186  0.5267 -0.6860 -0.9315
17573TIP3   OH274133   0.568   3.997   3.202 -0.5270  0.0699 -0.1562
17573TIP3    H174134   0.539   4.022   3.290  0.8759 -0.0122  0.3422
17573TIP3    H274135   0.641   3.937   3.217  0.3760  0.8281 -1.3731
17574TIP3   OH274136   4.703   0.071   1.390 -0.2872  0.3309 -0.4996
17574TIP3    H174137   4.655   0.151   1.370 -1.9971  0.0950  2.3194
17574TIP3    H274138   4.740   0.085   1.477  0.9765 -1.2555 -0.7182
17575TIP3   OH274139   2.914   5.001   4.695 -0.5382  0.1535 -0.2295
17575TIP3    H174140   2.992   5.019   4.642 -0.5128 -1.2067 -0.6736
17575TIP3    H274141   2.889   5.087   4.730  1.3880  0.5683  0.2467
17576TIP3   OH274142   3.279   0.952  14.371  0.1634  0.2846 -0.3575
17576TIP3    H174143   3.327   0.915  14.446 -2.0480 -1.5887  0.2530
17576TIP3    H274144   3.268   1.044  14.394 -2.5494 -0.6554  2.9836
17577TIP3   OH274145   6.395   2.099   4.276  0.3642  0.2453  0.0943
17577TIP3    H174146   6.333   2.027   4.261 -0.7753  1.0547  0.8080
17577TIP3    H274147   6.481   2.056   4.275 -0.3429 -1.3618  1.6715
17578TIP3   OH274148   2.948   6.596  16.496 -0.4304 -0.3260 -0.6958
17578TIP3    H174149   2.886   6.610  16.567  0.4707 -0.7895  0.2025
17578TIP3    H274150   3.015   6.539  16.533  1.4990  1.5812 -1.0388
17579TIP3   OH274151   5.393   1.429  15.272  0.4510  0.1545 -0.4268
17579TIP3    H174152   5.368   1.522  15.265 -0.5506  0.0285  1.0404
17579TIP3    H274153   5.433   1.409  15.188 -0.0319  1.7181 -1.0693
17580TIP3   OH274154   5.910   4.988   1.104  0.0460  0.2704 -0.3827
17580TIP3    H174155   6.003   5.006   1.114 -0.1082  0.6108  0.5791
17580TIP3    H274156   5.906   4.897   1.073  0.6830 -0.1753  0.7675
17581TIP3   OH274157   6.173   2.525  12.590  0.6187 -0.0207 -0.1312
17581TIP3    H174158   6.094   2.544  12.538  0.2168  1.3463  0.9263
17581TIP3    H274159   6.142   2.466  12.659  0.3658  1.0492  0.6794
17582TIP3   OH274160   0.701   4.392  11.414 -0.2541 -0.4371  0.2624
17582TIP3    H174161   0.696   4.340  11.495 -2.1004 -0.5352  0.1462
17582TIP3    H274162   0.696   4.483  11.444  0.8806 -0.3956  0.3477
17583TIP3   OH274163   6.421   6.108   5.117 -0.1646 -0.0068  0.3300
17583TIP3    H174164   6.377   6.054   5.182  1.8508  0.2985  2.0738
17583TIP3    H274165   6.478   6.166   5.169  2.7160 -0.7924 -1.7000
17584TIP3   OH274166   6.463   5.210   4.534  0.0755  0.2162 -0.5639
17584TIP3    H174167   6.411   5.290   4.524 -0.5986 -0.3864 -2.2434
17584TIP3    H274168   6.534   5.220   4.470 -0.5122 -0.8732 -1.4260
17585TIP3   OH274169   6.459   6.663  14.972  0.2849 -0.5999  0.1676
17585TIP3    H174170   6.420   6.720  14.906 -1.2001 -0.8068  0.8121
17585TIP3    H274171   6.405   6.678  15.050  1.4457 -1.0142  1.0758
17586TIP3   OH274172   0.886   5.283  14.654  0.7851 -0.4779  0.0574
17586TIP3    H174173   0.899   5.266  14.561 -0.1982 -1.2500  0.0506
17586TIP3    H274174   0.937   5.214  14.698  1.7740  0.2696  0.1136
17587TIP3   OH274175   4.168   3.444  11.944  0.7699 -0.1482  0.6828
17587TIP3    H174176   4.176   3.529  11.986  0.4685  0.5915 -0.7018
17587TIP3    H274177   4.074   3.432  11.932  0.8511 -0.3184  0.1761
17588TIP3   OH274178   5.517   2.440   5.410  0.0104 -0.2699  0.1291
17588TIP3    H174179   5.434   2.411   5.448 -0.1908  1.2619  0.9144
17588TIP3    H274180   5.532   2.379   5.337 -0.3176 -2.3807  1.7292
17589TIP3   OH274181   3.176   4.977  16.289  0.7938 -0.0441 -0.2844
17589TIP3    H174182   3.115   4.937  16.351  0.1947  0.5371 -0.4862
17589TIP3    H274183   3.120   5.011  16.219  1.3183  0.8634 -0.2730
17590TIP3   OH274184   0.517   3.081   1.909 -0.3013  0.1608  0.3712
17590TIP3    H174185   0.469   3.005   1.877 -0.4615  0.8265 -1.0351
17590TIP3    H274186   0.449   3.143   1.935 -0.1841  0.2483  0.4717
17591TIP3   OH274187   0.034   3.714   5.079 -0.0973 -0.1206 -0.1831
17591TIP3    H174188   0.014   3.716   4.985  0.8091 -1.2298 -0.4165
17591TIP3    H274189  -0.029   3.774   5.118 -2.3794 -1.7489 -1.1593
17592TIP3   OH274190   0.832   5.383  11.610  0.6519  0.0520  0.2829
17592TIP3    H174191   0.789   5.298  11.623  0.2196  0.5188  2.2297
17592TIP3    H274192   0.910   5.378  11.665  0.0207  1.3120  1.3281
17593TIP3   OH274193   3.314   0.021  11.606 -0.3592  0.0237 -0.1269
17593TIP3    H174194   3.292  -0.000  11.697 -1.5059  1.5748 -0.0019
17593TIP3    H274195   3.386   0.084  11.614  0.9810 -1.4090 -0.3982
17594TIP3   OH274196   6.080   4.808  14.556 -0.4590  0.3464  0.0309
17594TIP3    H174197   6.117   4.857  14.483 -1.1582 -0.2130 -0.7240
17594TIP3    H274198   6.131   4.727  14.559  1.4292  1.5348  1.9800
17595TIP3   OH274199   5.859   0.303  17.032 -0.3292  0.2479  0.2259
17595TIP3    H174200   5.939   0.257  17.008  0.0585  0.6941  0.6505
17595TIP3    H274201   5.844   0.364  16.959 -0.8647 -0.5623 -0.3554
17596TIP3   OH274202   6.250   2.904   2.593  0.6007 -0.6631 -0.1740
17596TIP3    H174203   6.320   2.886   2.657 -0.6479  1.0620  1.8070
17596TIP3    H274204   6.189   2.831   2.603 -0.6010  0.5386  2.2241
17597TIP3   OH274205   1.321   1.423   2.614 -0.1123  0.3007  0.2323
17597TIP3    H174206   1.337   1.515   2.593 -2.3405  0.3701 -1.5719
17597TIP3    H274207   1.407   1.383   2.612  0.6177  1.7540 -2.3806
17598TIP3   OH274208   0.677   0.356   0.273 -0.2501 -0.4753 -0.3087
17598TIP3    H174209   0.648   0.266   0.257  3.3412 -1.7632 -0.7328
17598TIP3    H274210   0.665   0.369   0.366 -1.0911 -1.2905 -0.2888
17599TIP3   OH274211   3.432   3.677   2.837 -0.1496  0.4059  0.3543
17599TIP3    H174212   3.500   3.625   2.793  0.5287  0.7146  1.0080
17599TIP3    H274213   3.363   3.686   2.771  0.7388  0.6771 -0.5875
17600TIP3   OH274214   1.125   6.253   2.348 -0.5075  0.5702 -0.1183
17600TIP3    H174215   1.181   6.288   2.418  0.4681  2.8082 -1.8935
17600TIP3    H274216   1.040   6.293   2.363 -0.0884  1.6838 -0.6312
17601TIP3   OH274217   0.617   5.584   5.332 -0.2281  0.2259  1.1338
17601TIP3    H174218   0.528   5.565   5.361 -0.6770  0.7338  0.1217
17601TIP3    H274219   0.607   5.631   5.250  1.0001 -1.7287 -0.2273
17602TIP3   OH274220   0.366   1.278  16.004 -0.0375 -0.3020 -0.0972
17602TIP3    H174221   0.427   1.256  15.934 -1.9624  0.5796 -2.1627
17602TIP3    H274222   0.361   1.198  16.057  1.2238 -1.1067 -1.1370
17603TIP3   OH274223   0.979   2.882   5.450 -0.4665 -0.1621 -0.1508
17603TIP3    H174224   1.073   2.870   5.446 -0.3129  0.8523  0.0807
17603TIP3    H274225   0.956   2.871   5.542 -0.5286 -0.1251 -0.1612
17604TIP3   OH274226   5.628   0.605  13.283 -0.2109  0.1826 -0.0600
17604TIP3    H174227   5.674   0.587  13.201 -0.6737 -0.2419 -0.2351
17604TIP3    H274228   5.598   0.519  13.313 -0.7103  0.4256  0.1531
17605TIP3   OH274229   4.409   4.793   4.044 -0.4674 -0.0716  0.7728
17605TIP3    H174230   4.363   4.849   4.106  0.6057 -0.5031  1.9963
17605TIP3    H274231   4.476   4.849   4.005 -0.6791  0.0127  0.5298
17606TIP3   OH274232   3.756   1.178   4.430  0.8642  0.6652  0.1456
17606TIP3    H174233   3.759   1.135   4.516 -2.5575  0.8695  0.4931
17606TIP3    H274234   3.708   1.117   4.375 -1.1079  2.5056 -0.2788
17607TIP3   OH274235   3.179   5.467   3.193  0.2183 -0.2914  0.2050
17607TIP3    H174236   3.249   5.476   3.258 -2.3424 -0.3988  3.2660
17607TIP3    H274237   3.165   5.556   3.161  0.2308  0.1713  1.4110
17608TIP3   OH274238   2.273   6.270  15.589 -0.2427 -0.1615  0.3691
17608TIP3    H174239   2.276   6.365  15.599 -0.9869 -0.0473 -0.3628
17608TIP3    H274240   2.267   6.256  15.494 -1.6858 -0.8718  0.5363
17609TIP3   OH274241   0.505   2.451   5.782  0.7800  0.0554  0.3124
17609TIP3    H174242   0.491   2.366   5.740 -0.1621  0.0419  0.6294
17609TIP3    H274243   0.421   2.496   5.774  1.0781  0.6979  0.7239
17610TIP3   OH274244   1.826   0.807  12.343 -0.0983 -0.3659  0.0894
17610TIP3    H174245   1.794   0.773  12.259  2.4319  1.5614 -1.8230
17610TIP3    H274246   1.807   0.901  12.339 -0.7122 -0.3530  2.1372
17611TIP3   OH274247   6.152   4.666  16.529  0.1747 -0.2273  0.3087
17611TIP3    H174248   6.069   4.659  16.481 -1.4065 -1.4893  2.9801
17611TIP3    H274249   6.206   4.595  16.492 -0.0706  0.3050 -1.1411
17612TIP3   OH274250   2.734   2.035  15.582  0.1510  0.5353  0.4651
17612TIP3    H174251   2.689   2.107  15.538  2.7211  1.6216 -0.6042
17612TIP3    H274252   2.664   1.975  15.607 -1.7072  0.9287 -3.1167
17613TIP3   OH274253   1.750   3.998  12.809 -0.4109  0.4674  0.7999
17613TIP3    H174254   1.825   4.028  12.860 -1.4155  1.6393  1.6622
17613TIP3    H274255   1.754   3.902  12.814  1.3747  0.4751  0.2478
17614TIP3   OH274256   3.276   3.714   2.463  0.1454 -0.1076 -0.6661
17614TIP3    H174257   3.197   3.720   2.409 -1.1854  0.8072  1.3047
17614TIP3    H274258   3.278   3.795   2.512  1.3841 -0.8560  0.5774
17615TIP3   OH274259   6.243   5.068   2.342  0.5170 -0.1962 -0.3717
17615TIP3    H174260   6.309   5.021   2.393 -0.0460  0.3568  0.9332
17615TIP3    H274261   6.217   5.006   2.274  1.4426 -0.9023 -0.1048
17616TIP3   OH274262   0.615   2.365   3.428 -0.0263  0.1948  0.2672
17616TIP3    H174263   0.647   2.281   3.395 -0.8821  0.5864 -1.7220
17616TIP3    H274264   0.688   2.425   3.413  0.6659 -0.1922  1.8891
17617TIP3   OH274265   0.405   5.836  13.130  0.2498 -0.1960  0.0664
17617TIP3    H174266   0.363   5.911  13.172 -0.5428 -1.2303  1.1904
17617TIP3    H274267   0.332   5.780  13.103  0.8398 -0.7781 -0.3509
17618TIP3   OH274268   6.254   4.297   1.435 -0.1089  0.0469  0.4181
17618TIP3    H174269   6.242   4.375   1.382  0.5527 -0.8955 -1.1932
17618TIP3    H274270   6.320   4.322   1.500  1.2815  0.4074 -1.0624
17619TIP3   OH274271   3.896   0.712   5.683  0.9053 -0.2784 -0.4205
17619TIP3    H174272   3.863   0.770   5.614 -0.1015  2.2733  2.0271
17619TIP3    H274273   3.826   0.647   5.694  0.8614 -0.4246 -1.4119
17620TIP3   OH274274   1.656   0.199  14.263  0.2001 -0.0165  0.4224
17620TIP3    H174275   1.738   0.224  14.221 -0.1462  0.2963 -0.0725
17620TIP3    H274276   1.674   0.206  14.357  0.5483  0.6680  0.3106
17621TIP3   OH274277   1.080   6.624   0.363 -0.0650  0.1167 -0.3891
17621TIP3    H174278   1.130   6.568   0.303 -1.2311  0.1372 -1.4286
17621TIP3    H274279   1.065   6.704   0.313  0.1255  0.6922  0.4637
17622TIP3   OH274280   0.370   1.732   1.042  0.0336 -0.6136  0.5223
17622TIP3    H174281   0.318   1.697   1.113 -0.8497  0.9553  0.6888
17622TIP3    H274282   0.461   1.715   1.067 -0.2635 -0.0345  2.0593
17623TIP3   OH274283   2.167   3.686  15.398  0.3087 -0.1279 -0.6445
17623TIP3    H174284   2.121   3.740  15.463  0.1999  0.8306 -1.4769
17623TIP3    H274285   2.139   3.723  15.314  0.5059 -1.2888 -1.2369
17624TIP3   OH274286   1.896   4.600  16.497 -0.3756 -0.0531  0.4446
17624TIP3    H174287   1.874   4.509  16.477  2.4235 -0.7986  0.3799
17624TIP3    H274288   1.852   4.651  16.428  0.8921 -1.7101 -1.7246
17625TIP3   OH274289   3.689   1.125   1.554  0.5771  0.1489  0.0024
17625TIP3    H174290   3.607   1.078   1.568 -0.1400  1.3370 -0.0812
17625TIP3    H274291   3.744   1.065   1.504 -0.5935 -0.3153 -0.7567
17626TIP3   OH274292   4.432   0.069   4.257  0.3495  0.1321  0.3455
17626TIP3    H174293   4.482   0.010   4.314  0.6807 -0.4214 -0.4986
17626TIP3    H274294   4.461   0.157   4.282  2.9530 -0.2031 -1.1612
17627TIP3   OH274295   2.424   2.138  12.969 -0.2342  0.5181 -0.0248
17627TIP3    H174296   2.391   2.065  13.022 -1.9229  1.2871  0.0553
17627TIP3    H274297   2.473   2.096  12.899  2.7358 -0.5194  2.4610
17628TIP3   OH274298   3.055   1.743  14.730  0.0624 -0.2754 -0.0193
17628TIP3    H174299   3.122   1.799  14.690 -0.6016  0.3109 -0.3453
17628TIP3    H274300   3.028   1.684  14.660  1.2462 -1.4926  0.5130
17629TIP3   OH274301   0.427   5.553   4.645 -0.0652 -0.1112 -0.1613
17629TIP3    H174302   0.480   5.528   4.721 -0.5076  0.4195  0.3323
17629TIP3    H274303   0.339   5.521   4.665 -0.1083 -0.2989 -0.6267
17630TIP3   OH274304   4.747   5.174   6.060 -0.4259 -0.1321  0.3181
17630TIP3    H174305   4.758   5.251   6.115  0.5286 -0.0893  0.0810
17630TIP3    H274306   4.665   5.134   6.090  0.1614 -0.2063  1.8794
17631TIP3   OH274307   2.154   4.071  12.347 -0.3135 -0.1269  0.4407
17631TIP3    H174308   2.168   3.983  12.311  2.0916  0.1044  0.6667
17631TIP3    H274309   2.168   4.060  12.441 -2.0271  0.1511  0.7588
17632TIP3   OH274310   4.979   6.685  15.698  0.0429 -0.3465 -0.9818
17632TIP3    H174311   4.937   6.603  15.721  1.4430 -0.2965  2.3414
17632TIP3    H274312   5.054   6.660  15.644  1.0286 -1.4470  0.8081
17633TIP3   OH274313   0.163   2.479   3.776 -0.5817 -0.3209  0.2683
17633TIP3    H174314   0.186   2.461   3.685  2.4567  2.0080  0.4009
17633TIP3    H274315   0.072   2.507   3.773 -1.9501 -4.2803 -1.3192
17634TIP3   OH274316   3.664   6.481  11.658 -0.2161  0.0953 -0.0421
17634TIP3    H174317   3.673   6.386  11.665 -0.2217  0.1959  1.9041
17634TIP3    H274318   3.742   6.515  11.701 -0.1121  0.9846 -0.9138
17635TIP3   OH274319   3.420   3.955   2.950 -0.0235  0.3025 -0.2664
17635TIP3    H174320   3.452   3.865   2.951 -2.5662 -0.6536  0.6327
17635TIP3    H274321   3.398   3.971   2.858  3.2215  1.1685 -1.0277
17636TIP3   OH274322   4.026   1.658  14.213  0.4108 -0.4935 -0.9466
17636TIP3    H174323   3.959   1.613  14.264 -0.5595  1.5961 -0.2724
17636TIP3    H274324   4.008   1.632  14.122  0.2621 -1.8668 -0.5477
17637TIP3   OH274325   1.324   2.955  15.524 -0.0668  0.3479 -0.2433
17637TIP3    H174326   1.283   3.005  15.594  0.9501  1.7403 -0.6194
17637TIP3    H274327   1.319   3.011  15.447 -0.3385 -0.7815 -1.0823
17638TIP3   OH274328   3.903   1.565  16.170 -0.4793  0.4116  0.2055
17638TIP3    H174329   3.902   1.502  16.242 -1.7574  1.3481  1.0322
17638TIP3    H274330   3.931   1.647  16.210 -2.2446  1.1998 -0.1002
17639TIP3   OH274331   2.943   3.258   1.953  0.6541  0.7962 -0.9348
17639TIP3    H174332   2.902   3.287   1.872 -0.1529  0.7307 -0.5538
17639TIP3    H274333   3.025   3.217   1.925 -0.3504 -0.6622 -1.8500
17640TIP3   OH274334   0.151   4.327  15.971  0.2925  0.0646 -0.7147
17640TIP3    H174335   0.096   4.366  16.039  0.0507  1.6902 -1.7909
17640TIP3    H274336   0.216   4.394  15.952 -0.5633  0.2738 -3.1435
17641TIP3   OH274337   3.385   1.555   6.429  0.0870  0.5562 -0.5765
17641TIP3    H174338   3.316   1.608   6.468  0.4937  0.3727  0.4307
17641TIP3    H274339   3.447   1.541   6.501  1.2549  0.8569 -1.5041
17642TIP3   OH274340   3.188   3.738  11.750  0.7015  0.5584  0.5214
17642TIP3    H174341   3.094   3.721  11.761  0.1761  1.4366 -1.8623
17642TIP3    H274342   3.208   3.805  11.815 -0.6928  1.3429  0.1936
17643TIP3   OH274343   5.973   5.308  13.717  0.1139 -0.0181  0.1843
17643TIP3    H174344   6.066   5.329  13.715 -0.1822  1.3958 -1.5659
17643TIP3    H274345   5.935   5.370  13.779  0.1559  0.2883 -0.0960
17644TIP3   OH274346   4.227   0.359  15.883 -0.3287 -0.1337 -0.5791
17644TIP3    H174347   4.280   0.438  15.895  1.0488 -1.0817 -0.1214
17644TIP3    H274348   4.273   0.310  15.815 -0.3913 -1.1447  0.0799
17645TIP3   OH274349   0.285   3.440  11.373  0.5411 -0.1264  0.1155
17645TIP3    H174350   0.374   3.442  11.409  0.5968 -1.4642  0.1307
17645TIP3    H274351   0.247   3.360  11.409  0.0361 -0.6577 -1.5066
17646TIP3   OH274352   2.954   2.794  13.345  0.0015  0.4348 -0.2656
17646TIP3    H174353   2.991   2.728  13.287 -0.2383 -0.3460  0.4606
17646TIP3    H274354   3.028   2.853  13.364  0.4262 -0.0815 -0.2772
17647TIP3   OH274355   4.245   6.595   1.160  0.2527 -0.0239 -0.0099
17647TIP3    H174356   4.296   6.640   1.093 -1.3827  0.4222 -1.0053
17647TIP3    H274357   4.160   6.578   1.119 -0.7236  0.0281  1.8561
17648TIP3   OH274358   6.276   5.605  15.463 -0.0620 -0.3056  0.2982
17648TIP3    H174359   6.330   5.680  15.438  0.4348 -1.0138 -0.7880
17648TIP3    H274360   6.186   5.639  15.461  0.1112  0.1287 -0.7103
17649TIP3   OH274361   3.259   2.433   1.695 -0.0648  0.0813 -0.0547
17649TIP3    H174362   3.189   2.397   1.750  0.2957 -0.6970 -0.0930
17649TIP3    H274363   3.215   2.460   1.615 -0.3621 -0.1372  0.0329
17650TIP3   OH274364   6.261   1.805  13.724 -0.5437  0.1653 -0.1172
17650TIP3    H174365   6.196   1.863  13.683 -1.2386 -0.3274  0.2590
17650TIP3    H274366   6.212   1.760  13.793 -0.2219 -1.4093 -0.8702
17651TIP3   OH274367   0.486   4.005  12.404 -0.9085  0.4046 -0.7019
17651TIP3    H174368   0.556   3.994  12.469 -3.0538 -0.1442  1.6595
17651TIP3    H274369   0.502   3.936  12.340 -1.1406 -1.9671  1.6309
17652TIP3   OH274370   6.341   0.266  16.957 -0.0746  0.0299 -0.0582
17652TIP3    H174371   6.279   0.211  16.909  0.4994  0.0433 -0.8282
17652TIP3    H274372   6.359   0.339  16.899  1.2964 -0.3940 -0.2086
17653TIP3   OH274373   0.400   5.463  14.079  0.6883  0.9697  0.3492
17653TIP3    H174374   0.478   5.446  14.026 -0.2207 -0.5355 -0.5812
17653TIP3    H274375   0.377   5.554  14.060  0.1177  0.3454 -2.2696
17654TIP3   OH274376   3.715   0.711   4.860  0.5031 -0.1268  0.7387
17654TIP3    H174377   3.742   0.622   4.836  1.5388  0.0708  1.1128
17654TIP3    H274378   3.622   0.715   4.836  0.6787 -0.9943 -0.1635
17655TIP3   OH274379   4.435   3.436   4.720 -0.0954  0.0060 -1.0274
17655TIP3    H174380   4.453   3.413   4.811  0.5754  0.6892 -0.9678
17655TIP3    H274381   4.400   3.356   4.681 -1.4628  0.0095  0.1020
17656TIP3   OH274382   6.548   2.535  11.172  0.3332 -0.2446  0.2775
17656TIP3    H174383   6.500   2.455  11.153 -0.4461  0.6856 -2.0587
17656TIP3    H274384   6.507   2.569  11.252 -0.8828 -1.0174  0.0180
17657TIP3   OH274385   4.101   4.992   2.006  0.4180 -0.2518  0.4404
17657TIP3    H174386   4.167   4.965   1.942 -0.6894 -0.4266 -0.6765
17657TIP3    H274387   4.082   5.083   1.984 -1.0346 -0.7411 -0.4936
17658TIP3   OH274388   1.577   0.376  16.292 -0.4489 -0.1002  0.1519
17658TIP3    H174389   1.607   0.311  16.229 -1.5578 -1.0706  0.5902
17658TIP3    H274390   1.601   0.460  16.253  0.0588 -0.7323 -0.9303
17659TIP3   OH274391   1.860   3.224  11.500 -0.2148  0.0033 -0.5559
17659TIP3    H174392   1.797   3.192  11.436 -0.3398  1.1118 -1.0204
17659TIP3    H274393   1.872   3.152  11.561 -3.0303  0.2296  0.3879
17660TIP3   OH274394   2.090   3.943  14.768 -0.6598 -0.1307  0.7003
17660TIP3    H174395   2.020   3.883  14.793 -0.0151 -0.7165  1.1234
17660TIP3    H274396   2.111   3.920  14.677 -0.9386 -0.0223  0.6075
17661TIP3   OH274397   0.969   6.404   5.115  0.0388  0.5939 -0.2268
17661TIP3    H174398   0.970   6.407   5.211  0.6422 -0.2433 -0.1991
17661TIP3    H274399   0.878   6.387   5.092 -0.4937  2.7343  0.1141
17662TIP3   OH274400   0.010   3.352   2.016 -0.5409 -0.0527  0.6796
17662TIP3    H174401  -0.060   3.316   1.961 -0.1499  0.0552  0.0956
17662TIP3    H274402   0.065   3.277   2.038 -1.4839 -0.3534  2.1486
17663TIP3   OH274403   6.635   0.817  15.914  0.3438  0.2187 -0.0046
17663TIP3    H174404   6.540   0.804  15.919  0.4799 -0.6282  0.8052
17663TIP3    H274405   6.646   0.893  15.858 -0.8200  0.3626 -0.0685
17664TIP3   OH274406   4.412   1.736   0.662  0.7853  0.4282 -0.0636
17664TIP3    H174407   4.406   1.703   0.752 -0.2711 -1.9423 -0.9053
17664TIP3    H274408   4.324   1.768   0.642  0.6566 -0.2571 -0.6440
17665TIP3   OH274409   4.884   4.194  16.865  0.1908 -0.0486  0.1952
17665TIP3    H174410   4.963   4.157  16.826 -0.4944 -2.2762  0.7755
17665TIP3    H274411   4.819   4.124  16.859 -0.2478 -0.2419  4.3380
17666TIP3   OH274412   4.791   5.069  13.055 -0.1215 -0.1362  0.0133
17666TIP3    H174413   4.741   5.008  13.001 -0.8132 -0.2410  0.7614
17666TIP3    H274414   4.746   5.069  13.140 -0.8895  2.3122 -0.3147
17667TIP3   OH274415   3.980   2.156   4.937 -0.3702  0.2255 -0.0336
17667TIP3    H174416   3.908   2.129   4.994 -1.6851 -0.2102 -1.8087
17667TIP3    H274417   4.056   2.107   4.969 -1.3753 -1.0291  0.4964
17668TIP3   OH274418   1.477   0.702   3.934 -0.0904 -0.2480 -0.3625
17668TIP3    H174419   1.470   0.620   3.982  0.6868 -0.0712  0.0849
17668TIP3    H274420   1.571   0.714   3.921 -0.1812  0.6096 -0.3264
17669TIP3   OH274421   4.251   2.701  16.021 -0.0336 -0.3586  0.0137
17669TIP3    H174422   4.176   2.758  16.005  0.8077  1.0728  0.8970
17669TIP3    H274423   4.322   2.740  15.970  0.7864 -0.0326  1.3329
17670TIP3   OH274424   2.697   5.280  13.763 -0.8256 -0.7626  0.1182
17670TIP3    H174425   2.785   5.262  13.794 -0.3456  1.1544 -0.0269
17670TIP3    H274426   2.693   5.240  13.676 -0.4066 -1.5799  0.4651
17671TIP3   OH274427   6.218   4.138  14.149  0.3484 -0.0560 -0.2047
17671TIP3    H174428   6.210   4.116  14.056  2.0734  0.1564 -0.4354
17671TIP3    H274429   6.296   4.193  14.154 -0.5543  1.1885  1.1789
17672TIP3   OH274430   3.734   2.579   5.865 -0.2005  0.1372 -0.1847
17672TIP3    H174431   3.668   2.585   5.796 -0.5023 -0.7751  0.0049
17672TIP3    H274432   3.734   2.486   5.890  1.1204  0.1233 -0.1561
17673TIP3   OH274433   1.735   6.400  12.380  0.3142 -0.0138 -0.0731
17673TIP3    H174434   1.683   6.474  12.413 -0.7435 -0.7967  0.0834
17673TIP3    H274435   1.818   6.406  12.427  0.5526  1.5213 -0.6302
17674TIP3   OH274436   2.522   0.043   5.584  0.2835 -0.1293 -0.6561
17674TIP3    H174437   2.504  -0.028   5.645  0.8334 -1.9371 -2.4604
17674TIP3    H274438   2.437   0.083   5.568  0.1456  0.4103  1.2671
17675TIP3   OH274439   5.873   5.702  14.410  0.8695  0.1900 -0.2230
17675TIP3    H174440   5.790   5.749  14.424  0.7834 -0.1950  0.6046
17675TIP3    H274441   5.857   5.651  14.330 -0.2102 -0.9631  0.6813
17676TIP3   OH274442   1.726   3.063  16.018 -0.4562  0.9303  0.0989
17676TIP3    H174443   1.812   3.102  16.002  0.5245 -0.5035  1.5529
17676TIP3    H274444   1.707   3.083  16.110 -1.3563  0.6138 -0.0042
17677TIP3   OH274445   4.564   1.670   0.240  0.1306 -0.5969  0.3257
17677TIP3    H174446   4.521   1.606   0.296 -1.3959  0.8499  0.8708
17677TIP3    H274447   4.553   1.636   0.151 -0.1430 -1.3715  0.6497
17678TIP3   OH274448   6.776   2.124  14.167 -0.0607  0.2858 -0.2364
17678TIP3    H174449   6.817   2.060  14.109  0.7022 -1.3032  1.9124
17678TIP3    H274450   6.829   2.203  14.156 -0.1457  0.1369 -1.9167
17679TIP3   OH274451   1.935   3.481  15.368 -0.6409 -0.5849  0.2950
17679TIP3    H174452   1.903   3.549  15.428 -1.1509 -0.0529 -0.5638
17679TIP3    H274453   1.937   3.402  15.421  0.4930  0.1858  1.4825
17680TIP3   OH274454   5.447   0.053   3.467 -0.1683  0.0686  0.4509
17680TIP3    H174455   5.517   0.095   3.418  0.4431  0.5554  1.7000
17680TIP3    H274456   5.403  -0.003   3.403  1.4361 -0.3436 -0.3414
17681TIP3   OH274457   0.312   0.804  14.811  0.0132 -0.4271 -0.4941
17681TIP3    H174458   0.342   0.757  14.733  2.7958  2.0919 -1.1266
17681TIP3    H274459   0.335   0.746  14.884  1.9713 -0.7277 -1.2981
17682TIP3   OH274460   6.770   2.272  14.784  0.6761 -0.5643 -0.2442
17682TIP3    H174461   6.791   2.209  14.854  1.0459 -0.7705 -0.5354
17682TIP3    H274462   6.694   2.234  14.740 -0.2553  0.1153  0.7269
17683TIP3   OH274463   3.570   2.555   3.556 -0.2633 -0.2986  0.1708
17683TIP3    H174464   3.661   2.577   3.539  0.5618 -0.0133  3.9943
17683TIP3    H274465   3.570   2.459   3.566 -0.6445 -0.4247 -0.9429
17684TIP3   OH274466   3.139   1.220  13.564  0.0815  0.1421  0.1826
17684TIP3    H174467   3.196   1.145  13.548 -0.1739  0.0298 -0.2049
17684TIP3    H274468   3.198   1.296  13.559  0.2453  0.0088  0.0555
17685TIP3   OH274469   4.046   1.530  14.694  0.3473  0.2466  0.4580
17685TIP3    H174470   4.029   1.488  14.779  0.5553  0.3028  0.5278
17685TIP3    H274471   3.995   1.611  14.696  1.1362  0.7359  0.9270
17686TIP3   OH274472   0.557   0.758   2.715 -0.6811 -0.1207 -0.3791
17686TIP3    H174473   0.519   0.706   2.786 -0.8925  1.9619  1.1193
17686TIP3    H274474   0.484   0.778   2.657 -1.4819  1.7692  1.1674
17687TIP3   OH274475   0.593   2.521  16.255  0.0389  0.0335 -0.3622
17687TIP3    H174476   0.673   2.468  16.260 -0.4183 -0.9464 -2.3407
17687TIP3    H274477   0.623   2.606  16.223  0.6155  0.6481  1.6640
17688TIP3   OH274478   5.021   4.192   4.519 -0.0646 -0.0618  0.2806
17688TIP3    H174479   5.090   4.128   4.538  0.2890 -0.6842 -2.6186
17688TIP3    H274480   5.067   4.267   4.482 -0.7701  0.3813  0.2837
17689TIP3   OH274481   2.367   5.663  15.261 -0.1983 -0.8797  0.4428
17689TIP3    H174482   2.431   5.599  15.293 -0.5564 -1.4534  0.0387
17689TIP3    H274483   2.336   5.707  15.340  1.8231  0.5250  0.5149
17690TIP3   OH274484   4.871   0.146  13.513  0.1194 -0.0524 -0.5603
17690TIP3    H174485   4.827   0.226  13.543  1.0735  0.4957 -0.5727
17690TIP3    H274486   4.814   0.112  13.444 -0.6475  0.2416 -0.0830
17691TIP3   OH274487   3.889   0.829   4.485 -0.3527 -0.5522 -0.8383
17691TIP3    H174488   3.917   0.760   4.425 -2.3535 -1.3374 -0.9584
17691TIP3    H274489   3.818   0.874   4.439 -0.4177  0.2923  0.0492
17692TIP3   OH274490   4.115   3.841  16.135 -0.7588 -0.5548  0.2966
17692TIP3    H174491   4.061   3.845  16.213  0.1593  1.2747  0.8924
17692TIP3    H274492   4.061   3.878  16.066 -0.8879 -0.3865  0.4899
17693TIP3   OH274493   5.476   4.773  12.358 -0.0809 -0.1786 -0.2855
17693TIP3    H174494   5.482   4.678  12.351  1.7763 -0.2109  0.9224
17693TIP3    H274495   5.507   4.792  12.447  0.0098  1.5761 -0.6515
17694TIP3   OH274496   4.033   0.756  16.723 -0.1971 -0.4215  0.1419
17694TIP3    H174497   4.015   0.674  16.768  0.1388 -1.6312 -1.8173
17694TIP3    H274498   4.128   0.763  16.721 -0.2279  0.2026  0.5970
17695TIP3   OH274499   2.618   6.253   1.640 -0.0274  0.3998  0.1819
17695TIP3    H174500   2.657   6.316   1.580 -0.1782  0.3766  0.0597
17695TIP3    H274501   2.681   6.180   1.642  0.9153  1.1872  1.4999
17696TIP3   OH274502   4.402   2.081  10.826  0.2031 -0.1002 -0.0316
17696TIP3    H174503   4.329   2.127  10.785 -1.1233 -1.8888  0.1997
17696TIP3    H274504   4.480   2.113  10.780 -0.8583  0.8225 -1.2555
17697TIP3   OH274505   6.041   0.373  14.227 -0.0952 -0.1740  0.0410
17697TIP3    H174506   5.974   0.395  14.162  0.6514  0.5701 -0.4969
17697TIP3    H274507   6.060   0.280  14.212  2.3312  0.6493 -3.0138
17698TIP3   OH274508   2.387   5.555  13.544 -0.4004  0.0902  0.6551
17698TIP3    H174509   2.449   5.621  13.512  0.4990 -1.2518 -0.4677
17698TIP3    H274510   2.324   5.605  13.596 -0.9014  2.1546 -1.7463
17699TIP3   OH274511   2.995   4.897  15.592  0.2625  0.9957  0.0237
17699TIP3    H174512   2.946   4.824  15.554 -0.1774  1.5096 -0.4070
17699TIP3    H274513   2.972   4.894  15.686  1.3950 -0.2995  0.2844
17700TIP3   OH274514   5.878   1.577   4.917 -0.2233  0.3981 -0.3358
17700TIP3    H174515   5.914   1.658   4.881  1.2233 -0.4031 -0.7829
17700TIP3    H274516   5.929   1.562   4.997 -0.3198 -0.1725 -0.3759
17701TIP3   OH274517   4.268   2.460   1.373  0.4811  0.4130 -0.0186
17701TIP3    H174518   4.358   2.430   1.386  0.3450  0.0932  0.1867
17701TIP3    H274519   4.213   2.388   1.405  0.1294  1.5232  2.0242
17702TIP3   OH274520   3.859   2.947   4.566 -0.0526  0.5992  0.0348
17702TIP3    H174521   3.874   3.031   4.608 -1.3916  0.6737  0.4262
17702TIP3    H274522   3.781   2.960   4.512  0.4948 -0.0376 -0.9380
17703TIP3   OH274523   3.250   0.982  15.937 -0.0476 -0.2863 -0.6906
17703TIP3    H174524   3.339   0.962  15.966 -0.0485  1.4178  0.6828
17703TIP3    H274525   3.222   1.053  15.995 -2.5401 -1.1896 -0.6752
17704TIP3   OH274526   6.202   3.800  13.345 -0.1028  0.0502 -0.2607
17704TIP3    H174527   6.126   3.744  13.356 -0.9207  1.0757 -0.4659
17704TIP3    H274528   6.197   3.831  13.255 -0.1254  1.0570  0.0681
17705TIP3   OH274529   4.832   4.917  14.561 -0.2159  0.1361 -0.0801
17705TIP3    H174530   4.773   4.925  14.486 -0.6028 -0.7414  0.1281
17705TIP3    H274531   4.868   4.829  14.554 -0.1719  0.0901  0.7081
17706TIP3   OH274532   6.255   6.363  10.572 -0.2796 -0.3738 -0.2915
17706TIP3    H174533   6.285   6.422  10.503 -1.7073 -1.3851 -1.8545
17706TIP3    H274534   6.323   6.296  10.577  0.5606  0.4891  0.3786
17707TIP3   OH274535   1.836   0.233  16.509 -0.1218  0.7928 -0.1187
17707TIP3    H174536   1.794   0.148  16.512  0.2719  0.4520 -2.2718
17707TIP3    H274537   1.769   0.295  16.538 -1.3352  0.0168 -1.1598
17708TIP3   OH274538   2.242   0.578  12.787  0.0006 -0.1254 -0.1455
17708TIP3    H174539   2.269   0.500  12.738 -2.1260 -2.8762  2.6199
17708TIP3    H274540   2.153   0.596  12.756 -1.2614 -1.7283  2.2330
17709TIP3   OH274541   0.452   0.599   0.320  0.0145 -0.3722 -0.0115
17709TIP3    H174542   0.505   0.678   0.306  0.8396 -0.9325 -0.0743
17709TIP3    H274543   0.480   0.539   0.252  1.2987 -1.6872  1.5894
17710TIP3   OH274544   0.521   2.297   0.702  0.3247 -0.0177  0.1316
17710TIP3    H174545   0.532   2.317   0.609  0.8677 -0.5056  0.0830
17710TIP3    H274546   0.583   2.225   0.718  0.4012  0.2199  0.9234
17711TIP3   OH274547   6.080   3.116   4.777  0.3959 -0.2388 -0.1930
17711TIP3    H174548   6.036   3.051   4.833 -2.4422 -0.7299 -2.7292
17711TIP3    H274549   6.053   3.092   4.688  1.7324  2.6501 -1.4708
17712TIP3   OH274550   2.462   3.712  14.541 -0.1300 -0.2229 -0.0500
17712TIP3    H174551   2.555   3.716  14.560 -0.0773 -0.3063 -0.2831
17712TIP3    H274552   2.432   3.802  14.546  0.1447 -0.0765 -0.8515
17713TIP3   OH274553   0.416   1.796   0.217 -0.2700 -0.4007  0.1633
17713TIP3    H174554   0.392   1.879   0.177 -1.4898 -0.3732  0.8817
17713TIP3    H274555   0.511   1.794   0.215 -0.1911  1.3273  0.7466
17714TIP3   OH274556   5.541   2.566  11.854  0.0768  0.7885 -0.5694
17714TIP3    H174557   5.602   2.549  11.783 -0.7108  0.2163 -1.1326
17714TIP3    H274558   5.594   2.604  11.924  0.8124  1.6963 -1.5902
17715TIP3   OH274559   4.610   3.264  11.798  0.3104 -0.3558  0.4532
17715TIP3    H174560   4.646   3.334  11.744 -0.9783  0.5904  0.7668
17715TIP3    H274561   4.621   3.294  11.888  1.4321 -1.4200  0.7052
17716TIP3   OH274562   1.806   2.339   2.114  0.5961 -0.3991 -0.1911
17716TIP3    H174563   1.775   2.275   2.050  0.0620  0.9447 -1.3481
17716TIP3    H274564   1.818   2.419   2.063  2.4693  0.1183  0.9478
17717TIP3   OH274565   3.916   5.126   0.407  0.4447 -0.1840  0.2412
17717TIP3    H174566   3.983   5.187   0.376 -0.4196  0.4114 -0.5014
17717TIP3    H274567   3.871   5.097   0.328 -0.6212 -0.0483  0.7766
17718TIP3   OH274568   2.732   6.175   0.805  0.0815 -0.5002  0.0464
17718TIP3    H174569   2.659   6.174   0.867 -0.3959 -0.2660 -0.5041
17718TIP3    H274570   2.741   6.268   0.782  0.4055 -0.5596 -0.0592
17719TIP3   OH274571   1.929   2.306   5.779  0.0007  0.0032 -0.0495
17719TIP3    H174572   1.937   2.316   5.874  0.9153  0.4347 -0.1554
17719TIP3    H274573   1.912   2.213   5.766 -0.0079 -0.0785  0.5386
17720TIP3   OH274574   4.198   0.119  17.051 -0.0571 -0.0111  0.2547
17720TIP3    H174575   4.294   0.127  17.052 -0.0858  0.2975  1.6002
17720TIP3    H274576   4.180   0.033  17.089 -0.3166 -0.0986 -0.0620
17721TIP3   OH274577   3.411   2.676  17.167 -0.1936 -0.2880 -0.3613
17721TIP3    H174578   3.448   2.639  17.087  1.0602 -0.7381  0.4078
17721TIP3    H274579   3.344   2.614  17.195 -2.1421  0.8626 -2.1342
17722TIP3   OH274580   3.539   0.627  10.779 -0.0270  0.6772 -0.7762
17722TIP3    H174581   3.564   0.631  10.687  0.6509 -0.0375 -0.6334
17722TIP3    H274582   3.458   0.576  10.780  1.4287 -1.8060 -0.7425
17723TIP3   OH274583   5.398   3.603  13.123 -0.5984 -0.6719 -0.5770
17723TIP3    H174584   5.332   3.622  13.056 -0.1042  1.1232 -0.6154
17723TIP3    H274585   5.348   3.596  13.204 -0.8758  0.6017 -0.6195
17724TIP3   OH274586   5.382   2.203   3.420 -0.0952 -0.2184 -0.6145
17724TIP3    H174587   5.332   2.218   3.340  0.5563  1.8722 -0.7023
17724TIP3    H274588   5.317   2.203   3.490 -0.3904  0.9743 -0.8703
17725TIP3   OH274589   2.205   3.588  16.468 -0.5985  0.0631 -0.0320
17725TIP3    H174590   2.262   3.638  16.409 -0.4958 -0.2759 -0.2198
17725TIP3    H274591   2.138   3.651  16.494 -0.9145  0.0928 -0.8740
17726TIP3   OH274592   6.081   4.298   1.132 -0.1421  0.4063  0.1922
17726TIP3    H174593   6.087   4.331   1.042 -0.3322 -0.1463 -0.0275
17726TIP3    H274594   6.165   4.254   1.147  1.0723  2.9101  1.2863
17727TIP3   OH274595   6.581   2.299  15.685  0.0547  0.3489 -0.0457
17727TIP3    H174596   6.595   2.390  15.710  2.2453 -0.1277  0.6193
17727TIP3    H274597   6.666   2.257  15.696 -1.0072 -1.9047  0.1552
17728TIP3   OH274598   1.635   2.032  16.363  0.0153 -0.1593 -0.0217
17728TIP3    H174599   1.654   2.110  16.311  0.8160 -0.3248  0.0017
17728TIP3    H274600   1.546   2.045  16.396 -0.8207 -0.3839 -2.0326
17729TIP3   OH274601   0.158   4.958  14.513 -0.0342 -0.2067  0.0088
17729TIP3    H174602   0.246   4.934  14.484 -0.3649  0.4893 -1.6668
17729TIP3    H274603   0.145   5.047  14.481 -1.0836 -0.0266  0.8739
17730TIP3   OH274604   2.899   4.285   3.256 -0.0367 -0.0058 -0.3065
17730TIP3    H174605   2.961   4.256   3.189 -0.9693 -0.6258 -0.9152
17730TIP3    H274606   2.953   4.336   3.318  0.6254  1.8189 -2.2593
17731TIP3   OH274607   3.505   0.428   1.207  0.1873  0.4863 -0.1693
17731TIP3    H174608   3.533   0.433   1.298  0.5558 -2.6621  0.0168
17731TIP3    H274609   3.409   0.423   1.212  0.1258  1.5021 -0.0855
17732TIP3   OH274610   1.663   4.279   1.978 -0.2253 -0.8415  0.4658
17732TIP3    H174611   1.612   4.358   1.955 -1.9977 -1.6333  1.4641
17732TIP3    H274612   1.742   4.313   2.019  0.2429  0.4512 -1.3460
17733TIP3   OH274613   1.568   2.156   5.551 -0.4201 -0.0265  0.3291
17733TIP3    H174614   1.591   2.249   5.547 -0.9926  0.1326  0.7477
17733TIP3    H274615   1.527   2.144   5.636 -0.2114 -0.7009  0.3456
17734TIP3   OH274616   2.313   6.526   0.232 -0.3125  0.0230 -0.1456
17734TIP3    H174617   2.362   6.474   0.295  0.3167 -0.0084 -0.6518
17734TIP3    H274618   2.270   6.593   0.285 -0.9379 -0.8471  0.4858
17735TIP3   OH274619   5.970   5.377  15.393 -0.0191  0.2187  0.3697
17735TIP3    H174620   5.894   5.339  15.348  0.8558 -2.5740  1.0153
17735TIP3    H274621   6.034   5.306  15.393  1.5807  1.5841  2.2545
17736TIP3   OH274622   2.108   1.531   0.703 -0.3750 -0.2020  0.5330
17736TIP3    H174623   2.047   1.597   0.735 -0.0639 -0.2738  1.2840
17736TIP3    H274624   2.144   1.491   0.782  1.1901  0.3302  0.1138
17737TIP3   OH274625   6.054   2.667   1.716 -0.4404  0.1489  0.0758
17737TIP3    H174626   6.131   2.614   1.695 -0.4334  0.3181 -0.3485
17737TIP3    H274627   6.014   2.623   1.791  0.1913  0.1878  0.4435
17738TIP3   OH274628   1.861   0.743   6.614 -0.1188 -0.1371  0.0002
17738TIP3    H174629   1.956   0.740   6.604  0.0209  1.2684  0.6873
17738TIP3    H274630   1.830   0.788   6.536 -0.1215  0.2545  0.2231
17739TIP3   OH274631   6.574   0.193  12.445  0.8182  0.4773  0.4162
17739TIP3    H174632   6.507   0.124  12.440  0.2694  0.6997  3.1910
17739TIP3    H274633   6.611   0.196  12.357 -1.0627 -1.4193 -0.5445
17740TIP3   OH274634   5.993   1.367  16.498 -0.1563 -0.1159  0.4964
17740TIP3    H174635   6.080   1.407  16.502 -0.5820  1.1019 -1.2805
17740TIP3    H274636   5.974   1.343  16.588  1.7717  0.1352  1.0193
17741TIP3   OH274637   1.077   1.284   1.942 -0.6186  0.2717  0.1351
17741TIP3    H174638   1.119   1.277   2.028 -1.1041  1.6689  0.5052
17741TIP3    H274639   0.984   1.272   1.960 -0.5597 -1.6005 -0.5220
17742TIP3   OH274640   5.552   2.993  15.115 -0.3256  0.4887 -0.1056
17742TIP3    H174641   5.513   3.066  15.162 -0.5561 -0.6776  1.6018
17742TIP3    H274642   5.619   2.959  15.174 -2.7146 -3.0069  0.9420
17743TIP3   OH274643   6.426   0.694  13.527 -0.7784 -0.5777 -0.2263
17743TIP3    H174644   6.431   0.758  13.455 -1.4909  1.7790  1.6761
17743TIP3    H274645   6.472   0.737  13.599 -2.9454 -1.3803  1.7206
17744TIP3   OH274646   4.428   5.518   5.693 -0.1029  0.3344 -0.4411
17744TIP3    H174647   4.504   5.501   5.637  0.3309 -2.8234  0.8966
17744TIP3    H274648   4.359   5.463   5.656 -1.2281  1.7438 -0.5235
17745TIP3   OH274649   0.283   4.746  12.888  0.6501 -0.3181  0.2393
17745TIP3    H174650   0.289   4.704  12.803  0.6685  2.4832 -1.2504
17745TIP3    H274651   0.189   4.745  12.908  0.3475  0.9743 -0.9468
17746TIP3   OH274652   5.764   4.978  16.502  0.0584 -0.3907 -0.1174
17746TIP3    H174653   5.763   5.030  16.422  0.0816  0.0787  0.1861
17746TIP3    H274654   5.672   4.971  16.528  0.2231  1.5598  1.1584
17747TIP3   OH274655   5.171   4.836   3.820 -0.0331  0.3205  0.0430
17747TIP3    H174656   5.149   4.794   3.737  1.6889 -0.4407 -0.0733
17747TIP3    H274657   5.188   4.763   3.880 -2.4581  0.8122  1.5010
17748TIP3   OH274658   6.572   2.846  13.862 -0.0511 -0.2330  0.0582
17748TIP3    H174659   6.529   2.868  13.945 -0.7106 -0.8812 -0.0960
17748TIP3    H274660   6.506   2.866  13.796  0.2441 -0.3164 -0.2616
17749TIP3   OH274661   1.536   4.861   2.565 -0.5505 -0.1161 -0.1971
17749TIP3    H174662   1.571   4.784   2.521  0.3685 -1.1534  2.1651
17749TIP3    H274663   1.491   4.827   2.642  0.3776  1.7106  1.2356
17750TIP3   OH274664   0.267   5.176  13.287 -0.2909 -0.0317 -0.1967
17750TIP3    H174665   0.249   5.242  13.354 -0.7578 -0.3611  0.0050
17750TIP3    H274666   0.272   5.093  13.335  0.6465 -0.1090 -0.3965
17751TIP3   OH274667   0.072   0.671  15.237  0.7898  0.0636 -0.3035
17751TIP3    H174668   0.059   0.609  15.166  2.6891 -0.2181 -0.4522
17751TIP3    H274669   0.149   0.638  15.284  0.0498  0.6648  1.4281
17752TIP3   OH274670   5.178   2.268   4.622  0.2854  0.0066 -0.4733
17752TIP3    H174671   5.248   2.279   4.686  0.1301 -0.5028 -0.2168
17752TIP3    H274672   5.152   2.176   4.629 -0.7018  0.2804 -0.2474
17753TIP3   OH274673   2.738   2.148   4.881  0.1190  0.4507  0.3061
17753TIP3    H174674   2.770   2.063   4.851 -1.1547 -0.0711  0.3636
17753TIP3    H274675   2.815   2.191   4.918  0.6685 -0.9045  0.7950
17754TIP3   OH274676   0.416   6.403   5.957  0.3295  0.0977 -0.5433
17754TIP3    H174677   0.335   6.441   5.989  0.9240 -0.5206  1.8424
17754TIP3    H274678   0.435   6.453   5.877  0.3152  3.8698  1.5581
17755TIP3   OH274679   6.760   3.186  16.567  0.2295 -0.6275 -0.2678
17755TIP3    H174680   6.675   3.198  16.525  0.0472  1.5053  0.5748
17755TIP3    H274681   6.823   3.185  16.495 -0.2063  1.5786 -0.7635
17756TIP3   OH274682   0.187   2.322  12.085 -0.0746 -0.4053  0.5099
17756TIP3    H174683   0.158   2.406  12.122  0.3486  0.3675 -0.8212
17756TIP3    H274684   0.235   2.280  12.156 -1.8236 -0.3622  1.7942
17757TIP3   OH274685   3.126   1.832  15.270 -0.2404 -0.3649 -0.2442
17757TIP3    H174686   3.160   1.895  15.333 -1.8425 -1.1339  1.4795
17757TIP3    H274687   3.144   1.746  15.309 -1.1063 -0.8681 -0.9141
17758TIP3   OH274688   0.699   3.299  17.002  0.0287 -0.0620 -0.4216
17758TIP3    H174689   0.657   3.384  16.991  0.4073  0.1502 -0.2373
17758TIP3    H274690   0.743   3.304  17.087 -2.3345 -1.4755  0.9941
17759TIP3   OH274691   1.513   4.902  16.308  0.3162 -0.0343  0.6219
17759TIP3    H174692   1.521   4.986  16.262  0.3221 -0.0329  0.6254
17759TIP3    H274693   1.601   4.864  16.303 -0.4942 -1.8343 -2.8001
17760TIP3   OH274694   2.476   1.283   3.453  0.2597  0.1316 -0.3286
17760TIP3    H174695   2.449   1.194   3.474 -1.4461  0.5921 -0.3707
17760TIP3    H274696   2.571   1.283   3.464  0.1983 -1.4601  0.5176
17761TIP3   OH274697   5.469   3.863   5.165 -0.1602  0.0015 -0.3250
17761TIP3    H174698   5.479   3.795   5.231 -0.1022  2.4220  2.3746
17761TIP3    H274699   5.391   3.838   5.115  0.2210 -2.2951  0.1378
17762TIP3   OH274700   4.843   2.297   3.994 -0.3573 -0.2132 -0.0338
17762TIP3    H174701   4.906   2.317   4.063  0.4035  0.7401 -0.9718
17762TIP3    H274702   4.765   2.347   4.017  0.0860  0.5424 -0.1420
17763TIP3   OH274703   3.915   0.225  15.393 -0.0283 -0.0193 -0.5557
17763TIP3    H174704   3.903   0.320  15.384 -1.2531 -0.2799 -1.9833
17763TIP3    H274705   3.993   0.216  15.449 -0.2421  1.8147  0.0961
17764TIP3   OH274706   4.731   4.603   4.700 -0.0209  0.4111 -0.5729
17764TIP3    H174707   4.755   4.556   4.620  0.5326  1.3145 -0.9558
17764TIP3    H274708   4.767   4.691   4.688  0.5132  0.4231  0.8825
17765TIP3   OH274709   2.365   0.927   2.420 -0.5123 -0.2128 -0.5368
17765TIP3    H174710   2.362   0.861   2.350 -1.8239  0.1523 -0.8577
17765TIP3    H274711   2.274   0.934   2.449 -0.6006  2.2145 -1.2398
17766TIP3   OH274712   6.154   3.329   2.218  0.2746 -0.0302 -0.4053
17766TIP3    H174713   6.073   3.301   2.263 -1.0773  1.3931 -1.8249
17766TIP3    H274714   6.123   3.376   2.141  2.5199 -0.8279 -1.8796
17767TIP3   OH274715   1.241   2.734   5.405 -0.1273 -0.3147  0.0872
17767TIP3    H174716   1.176   2.666   5.426 -0.9170  0.8599  1.6484
17767TIP3    H274717   1.301   2.733   5.480 -0.1605  0.7154  0.1344
17768TIP3   OH274718   4.041   0.291  10.562 -0.2980 -0.4732 -0.3490
17768TIP3    H174719   4.092   0.360  10.520 -0.5446 -1.5793 -2.5609
17768TIP3    H274720   3.965   0.337  10.599  1.1664  0.8759  1.1658
17769TIP3   OH274721   6.768   1.169   4.922  0.7171 -0.4038 -0.1916
17769TIP3    H174722   6.795   1.087   4.882 -0.9289 -0.9864 -0.1920
17769TIP3    H274723   6.847   1.203   4.963  1.4369 -1.9777 -0.2059
17770TIP3   OH274724   5.318   4.958   1.423 -0.2453 -0.4637  0.1120
17770TIP3    H174725   5.251   4.897   1.453 -0.3109 -0.2116  0.4901
17770TIP3    H274726   5.270   5.034   1.392 -0.2741 -1.3853 -2.3012
17771TIP3   OH274727   2.814   5.534  14.160  0.0269  0.0450  0.1337
17771TIP3    H174728   2.826   5.625  14.134  0.3334  0.0068  0.1387
17771TIP3    H274729   2.746   5.501  14.101  1.2834 -0.2757 -1.1945
17772TIP3   OH274730   2.566   5.959  16.733 -0.3525  0.3927  0.2670
17772TIP3    H174731   2.644   5.973  16.786 -1.1483  1.0267  1.3243
17772TIP3    H274732   2.501   6.018  16.770 -1.7957 -1.1853  0.4187
17773TIP3   OH274733   0.449   2.618   5.111 -0.6963 -0.0424 -0.3276
17773TIP3    H174734   0.467   2.525   5.099  1.2103  0.4577 -1.8256
17773TIP3    H274735   0.379   2.637   5.048  0.6566  0.0038 -1.8799
17774TIP3   OH274736   5.329   3.755   5.860  0.3475 -0.4235 -0.2481
17774TIP3    H174737   5.394   3.762   5.790  0.4511 -0.1557 -0.1243
17774TIP3    H274738   5.309   3.845   5.883  0.9242 -0.5145  0.6349
17775TIP3   OH274739   0.705   6.695   0.791 -0.0639 -0.6126 -0.0282
17775TIP3    H174740   0.753   6.687   0.874  0.9109  1.1668 -0.3676
17775TIP3    H274741   0.771   6.725   0.728 -0.9185 -1.3824 -1.3183
17776TIP3   OH274742   0.180   0.785  12.380 -0.1703  0.1320 -0.2597
17776TIP3    H174743   0.111   0.755  12.440  0.7426  1.1834  1.4079
17776TIP3    H274744   0.133   0.833  12.312 -1.2088 -0.5909 -0.0832
17777TIP3   OH274745   3.101   3.284  17.176 -0.7493 -0.0353 -0.1290
17777TIP3    H174746   3.089   3.361  17.121  0.8508 -0.3759 -1.0111
17777TIP3    H274747   3.177   3.305  17.231 -0.1957 -1.0156 -0.4871
17778TIP3   OH274748   5.464   5.013   5.335  0.0817 -0.2444 -0.2873
17778TIP3    H174749   5.442   4.994   5.244 -1.5757 -3.0001  0.5639
17778TIP3    H274750   5.495   4.930   5.370  1.5161  0.9561  1.4906
17779TIP3   OH274751   2.970   5.860  11.133 -0.2050  0.2514  0.2254
17779TIP3    H174752   3.020   5.936  11.162 -0.4635  1.0223 -1.2584
17779TIP3    H274753   2.995   5.848  11.041 -1.3065 -0.5250  0.0030
17780TIP3   OH274754   0.456   0.426   3.544  0.1524 -0.0330 -0.1812
17780TIP3    H174755   0.528   0.442   3.605  1.6107  0.3470 -1.9283
17780TIP3    H274756   0.425   0.514   3.520 -0.6165 -0.1864  0.2143
17781TIP3   OH274757   0.009   3.622   4.336 -0.0881  0.3356 -0.5167
17781TIP3    H174758   0.014   3.638   4.430  0.7054  1.9434 -0.7878
17781TIP3    H274759  -0.032   3.701   4.301  2.3867  1.1615 -1.7918
17782TIP3   OH274760   1.691   4.659  14.568 -0.0405 -0.2249 -0.4180
17782TIP3    H174761   1.639   4.585  14.598 -1.2446  0.2583 -1.2376
17782TIP3    H274762   1.630   4.712  14.517  0.6078  1.7272  0.7593
17783TIP3   OH274763   2.667   3.097  13.627  0.4364 -0.1966  0.7160
17783TIP3    H174764   2.651   3.092  13.721 -0.6232 -1.2066  0.4964
17783TIP3    H274765   2.582   3.081  13.587  1.1323 -1.1328 -0.4437
17784TIP3   OH274766   1.487   0.267  12.364 -0.3602  0.1187  0.2911
17784TIP3    H174767   1.545   0.341  12.384 -2.7039  1.7886  1.3316
17784TIP3    H274768   1.467   0.277  12.271 -0.6961  0.8548  0.4332
17785TIP3   OH274769   6.451   6.195   5.380 -0.0558  0.0325 -0.5511
17785TIP3    H174770   6.441   6.131   5.451  1.8459 -0.7599 -0.9405
17785TIP3    H274771   6.510   6.261   5.416  0.0289  0.2155 -1.0219
17786TIP3   OH274772   0.085   2.164  16.436 -0.2774 -1.0301  0.2470
17786TIP3    H174773   0.132   2.129  16.360 -0.4857 -0.7788  0.0034
17786TIP3    H274774   0.011   2.211  16.399  1.7480  2.5532  0.3592
17787TIP3   OH274775   1.355   2.855   4.105  0.1054 -0.1562  0.1795
17787TIP3    H174776   1.374   2.897   4.021  2.5420  0.1776  0.8166
17787TIP3    H274777   1.289   2.789   4.085 -0.4911  0.9340 -1.6949
17788TIP3   OH274778   2.674   2.183  15.307  0.1254  0.5004 -0.6966
17788TIP3    H174779   2.714   2.270  15.314 -0.8707  0.8911  0.4890
17788TIP3    H274780   2.748   2.123  15.306  0.8344  1.3485 -1.6439
17789TIP3   OH274781   0.282   2.528   2.410 -0.2289 -0.0663 -0.1041
17789TIP3    H174782   0.284   2.500   2.502 -0.1783  2.0270  0.5988
17789TIP3    H274783   0.286   2.624   2.415 -1.1660  0.1330 -2.2739
17790TIP3   OH274784   4.885   1.022   1.428 -0.0463 -0.0325 -0.0388
17790TIP3    H174785   4.971   1.060   1.410  0.2321 -1.1162 -1.0361
17790TIP3    H274786   4.856   1.068   1.507  1.6900 -0.0537  0.6627
17791TIP3   OH274787   2.881   5.205  11.492  0.7017 -0.0525  0.3189
17791TIP3    H174788   2.918   5.291  11.471 -1.0516  0.6020 -0.2833
17791TIP3    H274789   2.906   5.150  11.418  0.5473  0.3504 -0.0347
17792TIP3   OH274790   6.538   4.556  13.705  0.4089  0.1849  0.1614
17792TIP3    H174791   6.450   4.572  13.739  0.7660  3.3115 -0.0423
17792TIP3    H274792   6.591   4.625  13.745  2.8539 -1.7080  0.4172
17793TIP3   OH274793   4.156   0.007   4.216 -0.0321  0.5947  0.3187
17793TIP3    H174794   4.242   0.045   4.237  0.3945 -0.8294  1.2958
17793TIP3    H274795   4.172  -0.044   4.136  0.0798  0.2031  0.5881
17794TIP3   OH274796   4.370   4.175  16.452 -0.6711  0.2029 -0.3187
17794TIP3    H174797   4.329   4.101  16.408 -1.5755 -1.4746  3.0492
17794TIP3    H274798   4.458   4.179  16.415 -0.1093 -3.4619  0.3074
17795TIP3   OH274799   5.066   1.148   4.232  0.0275  0.1347  0.2109
17795TIP3    H174800   5.104   1.235   4.222 -0.3774  0.1151 -2.2396
17795TIP3    H274801   5.139   1.088   4.215  0.2246 -0.0373  1.5453
17796TIP3   OH274802   5.186   0.145   0.392 -0.0588  0.3410  0.5096
17796TIP3    H174803   5.268   0.194   0.390  1.0103 -1.3645  0.9675
17796TIP3    H274804   5.121   0.208   0.424  0.8392  1.9910 -0.7413
17797TIP3   OH274805   1.948   1.396   4.979  0.2102  0.3537 -0.4733
17797TIP3    H174806   1.995   1.468   4.937  1.3719  0.3675  0.7891
17797TIP3    H274807   1.887   1.365   4.912  0.4023  1.8390 -1.3801
17798TIP3   OH274808   5.772   5.019   4.340  0.1642  0.3505 -0.2570
17798TIP3    H174809   5.817   4.935   4.338 -0.3364  0.0261  0.9927
17798TIP3    H274810   5.713   5.016   4.265  0.4805 -0.2253 -0.4871
17799TIP3   OH274811   4.127   4.534   1.869  0.2145 -0.1648  0.1824
17799TIP3    H174812   4.061   4.604   1.861  0.6497  0.1598 -0.8239
17799TIP3    H274813   4.183   4.562   1.941 -0.2663 -0.0419  0.5183
17800TIP3   OH274814   3.865   2.136  12.060  0.1228  0.7446  0.0435
17800TIP3    H174815   3.884   2.201  11.992 -0.8840  0.2133 -0.7696
17800TIP3    H274816   3.772   2.147  12.078  0.2283  0.4030  0.8595
17801TIP3   OH274817   1.933   0.491  14.278 -0.2268 -0.0238 -0.8124
17801TIP3    H174818   1.891   0.510  14.194  1.4668  1.2630 -1.4368
17801TIP3    H274819   1.939   0.577  14.321  0.4083 -0.4161 -0.1029
17802TIP3   OH274820   5.273   4.672  10.696 -0.0866  0.0052 -0.3843
17802TIP3    H174821   5.345   4.629  10.741 -0.3816 -1.7903 -1.4808
17802TIP3    H274822   5.299   4.764  10.690  1.1107 -0.1963  1.0889
17803TIP3   OH274823   0.808   4.276   0.186  0.5494 -0.4197  0.9265
17803TIP3    H174824   0.774   4.236   0.266 -0.8739  0.5803  0.8573
17803TIP3    H274825   0.760   4.359   0.178  1.7068  0.1864 -0.1955
17804TIP3   OH274826   2.144   5.911  11.772 -0.4159  0.5643  0.2655
17804TIP3    H174827   2.171   5.976  11.709  0.3555  0.6512  0.6758
17804TIP3    H274828   2.049   5.923  11.781 -0.7608 -0.2566 -1.7644
17805TIP3   OH274829   4.242   5.932   4.117  0.1423  0.0409  0.1435
17805TIP3    H174830   4.209   6.021   4.107 -0.4640 -0.2745 -0.7883
17805TIP3    H274831   4.297   5.935   4.195  0.3653  1.2972 -0.0430
17806TIP3   OH274832   6.051   2.002  13.680 -0.4894 -0.0066 -0.4724
17806TIP3    H174833   5.982   2.041  13.734 -0.4929  0.4645 -0.8174
17806TIP3    H274834   6.050   2.052  13.599  0.6560  0.3928 -0.2587
17807TIP3   OH274835   2.649   5.394   5.071 -0.3051  0.1120 -0.1097
17807TIP3    H174836   2.617   5.474   5.114 -0.4457  1.0075 -1.7627
17807TIP3    H274837   2.580   5.372   5.008  0.2851 -0.6088 -0.5181
17808TIP3   OH274838   3.494   2.833   5.809 -0.4967 -0.0328  0.4791
17808TIP3    H174839   3.504   2.881   5.891  1.9985 -0.6133  0.6051
17808TIP3    H274840   3.516   2.897   5.741  0.1827 -0.2645  0.4722
17809TIP3   OH274841   2.234   6.752   1.595 -0.0096  0.0279  0.0323
17809TIP3    H174842   2.157   6.808   1.602  0.1345  0.2603 -0.1900
17809TIP3    H274843   2.229   6.693   1.670 -1.4011 -1.2173 -0.9859
17810TIP3   OH274844   3.880   6.374  11.874 -0.1824 -0.4462 -0.0329
17810TIP3    H174845   3.792   6.349  11.845  0.3344  0.0665 -2.2440
17810TIP3    H274846   3.865   6.429  11.951 -1.6971 -1.4633  0.4522
17811TIP3   OH274847   4.771   2.703  15.037  0.2995 -0.0798  0.1883
17811TIP3    H174848   4.733   2.662  14.959  1.2813 -0.0311 -0.3297
17811TIP3    H274849   4.861   2.671  15.039  0.9192  1.5591  0.1165
17812TIP3   OH274850   5.243   3.758   4.995 -0.5862  0.2180 -0.0756
17812TIP3    H174851   5.221   3.673   5.033 -0.5542  0.5478  0.6849
17812TIP3    H274852   5.166   3.782   4.943  0.7994 -2.0662 -3.5725
17813TIP3   OH274853   2.098   2.044  13.965 -0.2524 -0.0970  0.0774
17813TIP3    H174854   2.184   2.079  13.941  0.2970 -1.0937  0.5017
17813TIP3    H274855   2.037   2.086  13.906  0.7384 -0.5440 -1.3156
17814TIP3   OH274856   1.358   2.564   1.640 -0.1909 -0.4509 -0.0370
17814TIP3    H174857   1.436   2.585   1.692 -0.6535 -0.0467  0.5012
17814TIP3    H274858   1.315   2.493   1.689 -1.3966  0.8946  0.9403
17815TIP3   OH274859   3.571   3.891  11.467  0.3010 -0.2777  0.2195
17815TIP3    H174860   3.614   3.885  11.552  0.1454  1.4137  0.4526
17815TIP3    H274861   3.641   3.876  11.403  0.7445  0.0505  0.6228
17816TIP3   OH274862   2.068   3.043   5.034 -0.3472 -0.2944 -0.1690
17816TIP3    H174863   2.125   3.040   4.957  1.4303  2.7191  0.8055
17816TIP3    H274864   2.128   3.027   5.108 -1.2231  0.5613  0.7604
17817TIP3   OH274865   3.794   6.332   1.967  0.3805 -0.7986  0.5227
17817TIP3    H174866   3.768   6.424   1.972  1.9142 -0.2809 -0.4203
17817TIP3    H274867   3.889   6.334   1.965  0.4640 -2.1822 -2.4533
17818TIP3   OH274868   2.874   6.763   1.418 -0.2764  0.3937  0.0580
17818TIP3    H174869   2.934   6.836   1.403 -0.0615 -0.0122 -1.2026
17818TIP3    H274870   2.893   6.702   1.347 -2.2310  0.2795 -0.4008
17819TIP3   OH274871   5.690   4.116   1.530 -0.2454 -0.0237 -0.3353
17819TIP3    H174872   5.645   4.054   1.473  0.0148 -0.5953  0.0759
17819TIP3    H274873   5.782   4.093   1.524  0.0895  1.4265 -1.5210
17820TIP3   OH274874   6.571   4.388  14.181  0.0549  0.5272  0.4019
17820TIP3    H174875   6.542   4.314  14.128  0.3890  0.0688  0.8436
17820TIP3    H274876   6.558   4.464  14.125 -4.1608  0.7154  1.2824
17821TIP3   OH274877   6.648   4.390  15.705  0.0797  0.0394 -0.0878
17821TIP3    H174878   6.704   4.468  15.709  1.4757 -0.9291  0.1345
17821TIP3    H274879   6.599   4.400  15.623  1.6507  0.2535 -1.0530
17822TIP3   OH274880   2.158   6.717   0.367 -0.5549 -0.1366 -1.0021
17822TIP3    H174881   2.153   6.653   0.439 -1.3839 -1.4052 -2.1314
17822TIP3    H274882   2.077   6.767   0.374  0.5377  1.5667  0.4972
17823TIP3   OH274883   4.839   1.548   5.380 -0.3331  0.2298 -0.0213
17823TIP3    H174884   4.848   1.641   5.402 -0.1988  0.3056 -0.3866
17823TIP3    H274885   4.915   1.529   5.325  0.3652 -0.4356  1.1379
17824TIP3   OH274886   5.292   0.632   3.660  0.5522  0.2381  0.9784
17824TIP3    H174887   5.264   0.722   3.651 -0.3245  0.0109  1.4061
17824TIP3    H274888   5.214   0.580   3.642  1.3231 -0.4873 -0.5073
17825TIP3   OH274889   3.711   4.542  13.925  0.2505 -0.0764 -0.3346
17825TIP3    H174890   3.664   4.490  13.860  0.5067 -1.3674  0.4624
17825TIP3    H274891   3.738   4.478  13.991  0.2963  1.1353  0.8608
17826TIP3   OH274892   5.843   0.913   5.204 -0.1336 -0.4663  0.8921
17826TIP3    H174893   5.902   0.976   5.165  0.1315 -1.8978 -1.1814
17826TIP3    H274894   5.775   0.899   5.138 -0.8167 -1.4752  1.7703
17827TIP3   OH274895   2.750   1.131  13.926  0.1500  0.5885 -0.0276
17827TIP3    H174896   2.738   1.044  13.966 -2.8595 -0.1311 -2.1686
17827TIP3    H274897   2.817   1.117  13.859  0.1711  0.1112  0.0860
17828TIP3   OH274898   6.179   5.571   2.514  0.6590  0.2894 -0.2995
17828TIP3    H174899   6.191   5.476   2.503 -1.2274 -0.0984  0.4821
17828TIP3    H274900   6.244   5.610   2.456  0.5403 -1.4970 -1.7620
17829TIP3   OH274901   5.373   5.714   2.634  0.1380 -0.0634  0.0122
17829TIP3    H174902   5.321   5.700   2.713 -0.1667  2.5575  0.3737
17829TIP3    H274903   5.450   5.763   2.663  0.2088  0.6290 -1.2437
17830TIP3   OH274904   5.179   4.768  12.873  0.3492  0.4973  0.1518
17830TIP3    H174905   5.090   4.788  12.904  0.5689  3.8671 -0.9228
17830TIP3    H274906   5.166   4.709  12.798 -0.8448 -0.2164  0.8954
17831TIP3   OH274907   5.978   6.338  13.764 -0.3229  0.2952 -0.2863
17831TIP3    H174908   6.056   6.351  13.710 -1.0050 -0.2244 -1.4391
17831TIP3    H274909   5.947   6.250  13.741 -1.7642  0.8380 -0.5513
17832TIP3   OH274910   4.094   5.742   1.157 -0.2531 -0.0355  0.4472
17832TIP3    H174911   4.091   5.662   1.105  0.4968  0.6301 -0.6630
17832TIP3    H274912   4.044   5.806   1.106 -1.8200 -0.0527  1.8662
17833TIP3   OH274913   5.669   1.607   2.314  0.7860  0.5153  0.6054
17833TIP3    H174914   5.610   1.545   2.271  1.3208 -0.3853  1.1211
17833TIP3    H274915   5.707   1.658   2.243  0.5177  0.0763  0.1397
17834TIP3   OH274916   0.054   0.420   4.943  0.6030 -0.1011  0.2534
17834TIP3    H174917   0.084   0.428   5.034  0.7204  0.6623  0.1536
17834TIP3    H274918   0.013   0.333   4.939 -0.1559  0.1981  1.2452
17835TIP3   OH274919   2.611   6.763  12.178  0.7607  0.3382  0.1760
17835TIP3    H174920   2.516   6.774  12.182  0.5605 -1.1186  0.0914
17835TIP3    H274921   2.638   6.757  12.269  0.5561 -0.6935  0.1835
17836TIP3   OH274922   3.907   3.499   5.430  0.4090 -0.5626  0.0736
17836TIP3    H174923   3.917   3.405   5.416  1.5178 -0.9359  2.6886
17836TIP3    H274924   3.917   3.510   5.525 -2.6021  1.8802  0.2560
17837TIP3   OH274925   6.372   5.581   1.666  0.8083 -0.2602 -0.2710
17837TIP3    H174926   6.321   5.632   1.729  1.1649  1.7151 -1.4722
17837TIP3    H274927   6.310   5.518   1.630  0.1852 -0.3246  0.8654
17838TIP3   OH274928   6.418   6.090  11.225 -0.3734 -0.1622  0.2172
17838TIP3    H174929   6.357   6.163  11.221 -0.5483 -0.3611 -1.2175
17838TIP3    H274930   6.388   6.029  11.157  1.1108 -0.4945 -0.1869
17839TIP3   OH274931   2.007   4.776   3.232  0.2581  0.6700 -0.8716
17839TIP3    H174932   2.076   4.716   3.261 -3.3986 -2.8384  1.6461
17839TIP3    H274933   1.990   4.832   3.308  0.6363  1.9724 -1.7016
17840TIP3   OH274934   1.891   6.765  13.104  0.4474  0.2256  0.4176
17840TIP3    H174935   1.871   6.843  13.156  0.9663  0.0569  0.8791
17840TIP3    H274936   1.847   6.781  13.020 -0.6125  0.3923  0.9769
17841TIP3   OH274937   5.940   3.241   5.943  0.4971  0.2968  0.1202
17841TIP3    H174938   5.875   3.294   5.895 -0.4979 -1.4989 -0.6201
17841TIP3    H274939   5.913   3.247   6.034 -1.1248 -0.9071 -0.2442
17842TIP3   OH274940   1.325   3.152   4.771 -0.0453 -0.0213  0.0237
17842TIP3    H174941   1.302   3.107   4.689 -0.1823  2.8610 -1.6847
17842TIP3    H274942   1.414   3.183   4.757  0.2289 -0.1946  1.3285
17843TIP3   OH274943   4.372   2.574  13.410 -0.0565 -0.4925 -0.1759
17843TIP3    H174944   4.408   2.558  13.498  0.6038  0.1187 -0.3221
17843TIP3    H274945   4.302   2.638  13.424 -0.2807 -0.7719 -0.0304
17844TIP3   OH274946   0.989   5.504  17.044  0.6100 -0.0316 -0.3751
17844TIP3    H174947   1.040   5.585  17.051 -1.2768  1.1900 -0.1081
17844TIP3    H274948   0.998   5.462  17.129  2.2584 -0.5624 -0.7725
17845TIP3   OH274949   4.151   3.110  12.326  0.3524  0.0789  0.0879
17845TIP3    H174950   4.083   3.175  12.308 -1.3908 -1.9553 -1.3548
17845TIP3    H274951   4.120   3.065  12.405  0.5940 -0.1545  0.0506
17846TIP3   OH274952   5.242   5.241   1.562 -0.0478 -0.3130 -0.4676
17846TIP3    H174953   5.279   5.325   1.535 -2.3153  0.7525 -0.5000
17846TIP3    H274954   5.198   5.207   1.484 -2.1248  0.2151  0.4110
17847TIP3   OH274955   1.160   1.557  17.169 -0.1656 -0.0644 -0.5729
17847TIP3    H174956   1.192   1.542  17.080  0.1768 -1.8412 -0.1801
17847TIP3    H274957   1.086   1.617  17.158  0.5682  0.6293 -1.9294
17848TIP3   OH274958   1.616   3.748  15.911  0.2673  0.0396  0.4482
17848TIP3    H174959   1.537   3.803  15.915  0.7286  0.6948  0.7170
17848TIP3    H274960   1.657   3.758  15.997  0.5856 -0.3879  0.3471
17849TIP3   OH274961   6.567   0.437  15.909  0.4796 -0.1210  0.2175
17849TIP3    H174962   6.523   0.496  15.971  0.5358 -1.7215  1.8888
17849TIP3    H274963   6.628   0.388  15.963  0.2042 -1.9235 -1.0214
17850TIP3   OH274964   4.143   3.680   2.831  0.1066 -0.7914 -0.2286
17850TIP3    H174965   4.154   3.771   2.804 -1.7462  0.1100  1.7732
17850TIP3    H274966   4.231   3.652   2.859  0.1582  1.5981  2.4404
17851TIP3   OH274967   1.292   6.050   0.805  0.0155  0.0146 -0.6906
17851TIP3    H174968   1.208   6.005   0.804  0.5259 -0.9669 -0.1758
17851TIP3    H274969   1.274   6.134   0.762 -1.9514  1.1242  1.9972
17852TIP3   OH274970   1.430   6.167   2.737 -0.2603 -0.5903 -0.4343
17852TIP3    H174971   1.349   6.187   2.784  0.1884  0.6221 -0.1284
17852TIP3    H274972   1.466   6.091   2.783 -2.3241 -2.6615 -1.9945
17853TIP3   OH274973   3.706   1.826  14.435  0.0010  0.3659  0.2147
17853TIP3    H174974   3.674   1.916  14.440 -0.3636  0.2527 -0.0891
17853TIP3    H274975   3.709   1.806  14.342  1.3302  0.5016  0.2000
17854TIP3   OH274976   3.949   2.872   3.289  0.1456  0.0611  0.2312
17854TIP3    H174977   4.004   2.949   3.275 -0.0570  0.2324  0.3758
17854TIP3    H274978   3.861   2.907   3.304  0.2242 -0.1444  1.2527
17855TIP3   OH274979   4.202   3.180  11.836 -0.3140 -0.1002 -0.0417
17855TIP3    H174980   4.244   3.180  11.750  1.0706  0.0716  0.6077
17855TIP3    H274981   4.200   3.272  11.862 -0.6405 -0.1598  0.1492
17856TIP3   OH274982   4.232   4.228   0.395  0.2766  0.5137  0.3833
17856TIP3    H174983   4.260   4.185   0.314  3.2037 -2.3422  2.6452
17856TIP3    H274984   4.255   4.320   0.381  1.6120 -0.0469 -1.7030
17857TIP3   OH274985   1.917   6.499   4.733  0.1438  0.2257 -0.5056
17857TIP3    H174986   1.929   6.471   4.642  0.9654  1.1958 -0.7115
17857TIP3    H274987   1.862   6.577   4.727 -0.5439 -0.2097 -0.0822
17858TIP3   OH274988   5.417   0.323   0.928 -0.1709 -0.3577 -0.2249
17858TIP3    H174989   5.457   0.255   0.983 -0.2084  0.7760  1.2743
17858TIP3    H274990   5.485   0.390   0.919 -0.7412  0.2378 -0.1421
17859TIP3   OH274991   0.664   0.880   3.997 -0.1527 -0.1978  0.1635
17859TIP3    H174992   0.618   0.918   4.072 -0.1595 -0.2025  0.1615
17859TIP3    H274993   0.712   0.954   3.959  1.5591 -0.5989  1.4227
17860TIP3   OH274994   3.868   2.517   5.514 -0.5571 -0.6460 -0.5472
17860TIP3    H174995   3.833   2.556   5.434 -0.8850 -0.4014 -0.2859
17860TIP3    H274996   3.951   2.563   5.528 -0.0418 -1.3413 -1.2577
17861TIP3   OH274997   6.650   1.738   5.459  0.2900  0.1093  0.0162
17861TIP3    H174998   6.714   1.700   5.399 -0.8933 -0.6839 -0.7763
17861TIP3    H274999   6.605   1.663   5.498 -0.8075  0.6572 -0.1604
17862TIP3   OH275000   5.256   1.647   0.922 -0.2735  0.0288  0.4215
17862TIP3    H175001   5.260   1.561   0.879  2.4723  0.8460 -1.2150
17862TIP3    H275002   5.265   1.710   0.850 -0.3593  1.6424  1.7632
17863TIP3   OH275003   4.668   3.952  12.977  0.4593  0.1043 -0.4289
17863TIP3    H175004   4.738   3.929  12.916  0.6008  2.5728 -1.3234
17863TIP3    H275005   4.588   3.949  12.925  0.3285  0.3747 -0.2497
17864TIP3   OH275006   2.533   1.779   3.049  0.9386  0.4198  0.2144
17864TIP3    H175007   2.613   1.809   3.006  0.5679 -1.6570 -2.1293
17864TIP3    H275008   2.482   1.737   2.980 -2.2876  1.7147  1.5746
17865TIP3   OH275009   4.734   3.926  13.367  0.5207 -0.0356  1.0621
17865TIP3    H175010   4.727   3.879  13.284  1.0145 -0.1081  1.0584
17865TIP3    H275011   4.645   3.930  13.400 -0.1521  2.2470 -0.7332
17866TIP3   OH275012   4.548   2.768   6.115  0.0023  0.3485  0.2068
17866TIP3    H175013   4.598   2.842   6.150 -0.4724  0.1895  1.2735
17866TIP3    H275014   4.457   2.798   6.115 -0.1621 -0.1391  0.3921
17867TIP3   OH275015   5.389   6.692   0.264 -0.6231 -0.1851  0.3479
17867TIP3    H175016   5.347   6.746   0.197 -1.6186 -0.2614  0.9007
17867TIP3    H275017   5.406   6.752   0.336  1.8008  0.2425 -0.4878
17868TIP3   OH275018   4.024   3.933   3.017  0.2069  0.3351 -0.2134
17868TIP3    H175019   4.103   3.980   3.041  0.3335  0.2534 -0.4673
17868TIP3    H275020   3.972   3.996   2.966 -0.8881  1.1203  1.7430
17869TIP3   OH275021   3.595   6.630   2.725 -0.2907  0.7254 -0.0827
17869TIP3    H175022   3.515   6.582   2.705 -0.1791  0.8001 -0.7226
17869TIP3    H275023   3.566   6.719   2.744 -0.2849  0.9803 -1.2070
17870TIP3   OH275024   1.348   3.540  13.090 -0.0193  0.5348  0.3181
17870TIP3    H175025   1.429   3.492  13.107 -0.4815 -0.8319 -1.0882
17870TIP3    H275026   1.298   3.533  13.171  1.3073  1.5453  1.2586
17871TIP3   OH275027   2.444   1.942  13.565 -0.5363  0.5560  0.0065
17871TIP3    H175028   2.525   1.993  13.570  0.2315 -0.3382 -2.0091
17871TIP3    H275029   2.375   2.008  13.564  0.1143  1.3290  2.0454
17872TIP3   OH275030   4.416   3.060  11.981 -0.4973 -0.5316  0.3487
17872TIP3    H175031   4.471   3.070  11.903 -0.5438  0.5107  0.4313
17872TIP3    H275032   4.327   3.075  11.950 -0.4217  0.9509  0.7634
17873TIP3   OH275033   5.330   4.381   0.184 -0.0290 -0.4414 -0.2193
17873TIP3    H175034   5.363   4.437   0.113  0.1058 -0.1084  0.1061
17873TIP3    H275035   5.364   4.293   0.163 -0.5994 -0.4886 -0.9629
17874TIP3   OH275036   3.784   0.302   5.081  0.2238  0.1589  0.9200
17874TIP3    H175037   3.843   0.377   5.081 -0.5419  0.9197 -1.8584
17874TIP3    H275038   3.792   0.264   5.168  2.0333  2.3639  1.8158
17875TIP3   OH275039   6.541   6.119  14.526 -0.0031  0.6052 -1.0045
17875TIP3    H175040   6.624   6.115  14.573 -0.8778 -0.2538  0.5412
17875TIP3    H275041   6.558   6.072  14.445  1.4243  1.7590 -1.4273
17876TIP3   OH275042   2.972   6.463   2.126 -0.1095 -0.2107  0.1760
17876TIP3    H175043   3.023   6.502   2.197 -0.1394 -0.5809  0.4081
17876TIP3    H275044   2.882   6.462   2.159 -0.0444 -0.8584  0.3510
17877TIP3   OH275045   1.694   5.021  16.549  0.0808 -0.4580 -0.3340
17877TIP3    H175046   1.754   5.002  16.477 -1.2582 -0.9828 -1.3645
17877TIP3    H275047   1.650   5.102  16.523 -1.5357 -1.4816 -0.9072
17878TIP3   OH275048   1.255   4.039  15.103 -0.1874 -1.2816  0.9838
17878TIP3    H175049   1.164   4.035  15.073  0.4931 -3.2388 -1.1215
17878TIP3    H275050   1.273   3.952  15.138  0.6926 -0.6904  2.0802
17879TIP3   OH275051   0.108   3.774  12.301 -0.1085 -0.3595 -0.7036
17879TIP3    H175052   0.193   3.751  12.340  0.3528  0.2880 -1.3014
17879TIP3    H275053   0.067   3.690  12.281  1.1219 -0.6847 -1.9750
17880TIP3   OH275054   1.965   5.278  14.373 -0.0389  0.1201  0.2229
17880TIP3    H175055   2.000   5.216  14.437 -0.6686 -0.2363  0.2352
17880TIP3    H275056   1.877   5.297  14.405 -1.3743 -2.0119 -1.8417
17881TIP3   OH275057   5.557   3.603  13.636 -0.6582  0.3301 -0.2676
17881TIP3    H175058   5.598   3.543  13.698  0.1608  3.0632  2.0672
17881TIP3    H275059   5.614   3.600  13.559 -0.2031 -1.2365  0.0892
17882TIP3   OH275060   4.054   5.981   1.938  0.1270  0.4756 -0.2208
17882TIP3    H175061   3.961   5.967   1.958  0.3188 -2.6831 -0.9786
17882TIP3    H275062   4.057   5.991   1.843  0.6200 -0.6876 -0.3495
17883TIP3   OH275063   0.169   6.506  12.722 -0.2233 -0.1406  0.2903
17883TIP3    H175064   0.108   6.442  12.686  0.9852  0.1826 -2.6379
17883TIP3    H275065   0.122   6.589  12.719 -0.2557 -0.1769 -0.2453
17884TIP3   OH275066   2.301   2.867   2.914  0.5614  0.3996  0.4299
17884TIP3    H175067   2.275   2.955   2.940  2.2353  1.0611  0.0230
17884TIP3    H275068   2.259   2.810   2.978 -0.8503  1.4438  0.4900
17885TIP3   OH275069   0.374   5.848   5.445  0.3321 -0.4328  0.0859
17885TIP3    H175070   0.350   5.850   5.352  0.8812 -0.3542 -0.0531
17885TIP3    H275071   0.326   5.773   5.480 -1.5280  0.7448  0.1997
17886TIP3   OH275072   4.579   5.863   4.931  0.3066 -0.0854 -0.0932
17886TIP3    H175073   4.548   5.830   5.016  0.5841  0.3449  0.1810
17886TIP3    H275074   4.505   5.914   4.898  0.5996  0.6863  0.4190
17887TIP3   OH275075   1.056   1.307   4.701 -0.4033 -0.1656 -0.5167
17887TIP3    H175076   1.058   1.387   4.648  1.2624 -0.1254 -0.4428
17887TIP3    H275077   1.026   1.240   4.641  1.9765 -0.2311 -1.7636
17888TIP3   OH275078   4.208   3.592  13.381 -0.4102 -0.1046 -0.2454
17888TIP3    H175079   4.178   3.645  13.455 -0.6742  1.0973 -1.1816
17888TIP3    H275080   4.274   3.534  13.418  0.6134  1.5681  0.6406
17889TIP3   OH275081   3.677   5.583  11.468 -0.1380  0.0898  0.7134
17889TIP3    H175082   3.593   5.538  11.476 -0.0519 -0.3841 -0.7494
17889TIP3    H275083   3.738   5.515  11.438  0.3986  0.7695  0.2209
17890TIP3   OH275084   6.454   6.214  13.514  0.5027 -0.2811 -0.6221
17890TIP3    H175085   6.496   6.298  13.492  0.0949  0.0785 -0.0486
17890TIP3    H275086   6.472   6.158  13.439  0.8028  0.3143 -1.0009
17891TIP3   OH275087   6.563   4.737  15.654  0.3767 -0.0046 -0.6292
17891TIP3    H175088   6.610   4.809  15.697 -0.3820  0.3976 -0.4612
17891TIP3    H275089   6.566   4.759  15.561 -1.4014  1.2047 -0.4362
17892TIP3   OH275090   4.528   5.976  14.314  0.0829 -0.1329  0.1425
17892TIP3    H175091   4.452   5.941  14.268 -0.4855  2.7290 -1.2647
17892TIP3    H275092   4.601   5.922  14.284 -0.9378 -1.0323 -0.7987
17893TIP3   OH275093   5.099   3.645  13.091  0.0493 -0.1348  0.3020
17893TIP3    H175094   5.018   3.610  13.054 -0.6421  1.4829  0.1939
17893TIP3    H275095   5.130   3.708  13.026  0.5924  0.3399  1.0046
17894TIP3   OH275096   3.513   2.837  14.840  0.2937 -0.0433  0.1721
17894TIP3    H175097   3.432   2.787  14.831 -0.7736  1.7932 -1.1883
17894TIP3    H275098   3.565   2.813  14.763  0.2501  0.1110  0.0938
17895TIP3   OH275099   4.634   5.560  15.068 -0.2285 -0.0932  0.0361
17895TIP3    H175100   4.581   5.481  15.060  1.1591 -0.9907 -0.6266
17895TIP3    H275101   4.709   5.535  15.121 -0.8736  1.4187  1.7898
17896TIP3   OH275102   1.311   5.373   3.489 -0.1487 -0.6346 -0.2811
17896TIP3    H175103   1.233   5.429   3.493  1.0871  1.0797  0.8074
17896TIP3    H275104   1.338   5.376   3.397 -0.0255  0.6771 -0.2169
17897TIP3   OH275105   0.852   1.960  13.717 -0.1841 -0.4722  0.1118
17897TIP3    H175106   0.848   1.880  13.665  2.4937  0.0162 -1.0207
17897TIP3    H275107   0.786   2.018  13.679  0.4079 -0.8252 -1.5093
17898TIP3   OH275108   5.386   2.286   5.131 -0.1052 -0.1369 -0.1234
17898TIP3    H175109   5.398   2.378   5.154 -0.6020 -0.5309  1.9059
17898TIP3    H275110   5.291   2.277   5.121  0.0783  0.0279 -2.6338
17899TIP3   OH275111   4.550   4.168   2.624  0.3912  0.0273 -0.0210
17899TIP3    H175112   4.604   4.247   2.630  0.4008 -0.0884  2.0888
17899TIP3    H275113   4.612   4.096   2.625  0.4502 -0.0881 -2.9092
17900TIP3   OH275114   5.784   3.628  12.229  0.0450 -0.4805  0.1178
17900TIP3    H175115   5.772   3.721  12.214 -1.8997 -0.3029  2.2163
17900TIP3    H275116   5.877   3.619  12.250  0.5723  0.7137 -1.5525
17901TIP3   OH275117   5.033   2.620  15.092  0.5794 -0.2077 -0.2955
17901TIP3    H175118   5.076   2.654  15.171  0.5807 -2.8791  0.9736
17901TIP3    H275119   5.066   2.675  15.021  2.7017  0.5838  1.2023
17902TIP3   OH275120   2.802   0.609  13.506 -0.2008  0.3820 -0.4663
17902TIP3    H175121   2.792   0.549  13.580  0.1650 -0.6119 -1.2000
17902TIP3    H275122   2.756   0.688  13.533  0.8811  0.4815  1.3003
17903TIP3   OH275123   1.609   5.938  13.261  0.0835 -0.1396  0.0665
17903TIP3    H175124   1.556   6.016  13.245  1.6773  1.1236  0.6515
17903TIP3    H275125   1.593   5.881  13.186 -2.4376 -0.0523  0.4571
17904TIP3   OH275126   6.394   1.533  16.019  0.2519  0.0662 -0.5831
17904TIP3    H175127   6.382   1.507  16.110 -0.2541 -0.6856 -0.8488
17904TIP3    H275128   6.487   1.550  16.010  0.3493 -0.1429  0.0088
17905TIP3   OH275129   0.629   1.084  15.773 -0.4174 -0.0379  0.0409
17905TIP3    H175130   0.547   1.128  15.749  0.4893  0.9066 -1.5650
17905TIP3    H275131   0.640   1.102  15.866 -0.3061  2.9203 -0.4408
17906TIP3   OH275132   0.632   0.197  15.347  0.7911  0.1372  0.3130
17906TIP3    H175133   0.648   0.136  15.419 -0.3222 -2.1614 -1.2616
17906TIP3    H275134   0.702   0.178  15.284 -1.3192 -1.9121 -1.5903
17907TIP3   OH275135   0.405   0.361  16.800 -0.7907 -0.3324 -0.5573
17907TIP3    H175136   0.383   0.274  16.766 -0.8126 -1.2962  1.7861
17907TIP3    H275137   0.478   0.347  16.859  0.6531  1.6159 -1.7399
17908TIP3   OH275138   6.004   5.239  10.753  0.1027 -0.3698  0.1251
17908TIP3    H175139   5.956   5.157  10.747  0.6741 -0.6657 -0.4223
17908TIP3    H275140   5.961   5.297  10.690 -1.2184  0.2492  1.5038
17909TIP3   OH275141   2.898   3.046   4.610 -0.4198  0.4609 -0.4945
17909TIP3    H175142   2.850   3.112   4.660 -0.3365  1.3783 -1.5858
17909TIP3    H275143   2.990   3.068   4.622 -0.3733  0.2858 -0.5222
17910TIP3   OH275144   6.250   2.000   0.016 -0.6341 -0.0716  0.6693
17910TIP3    H175145   6.251   1.905   0.003 -0.3515  0.0271 -0.0721
17910TIP3    H275146   6.241   2.036  -0.072  2.2550  0.6769  0.6031
17911TIP3   OH275147   0.978   3.820   6.413 -0.1499  0.1765 -0.0838
17911TIP3    H175148   0.970   3.908   6.449  2.1363  0.5114 -0.2837
17911TIP3    H275149   0.972   3.832   6.318 -0.4139  0.0233 -0.0895
17912TIP3   OH275150   5.145   6.694   0.515  0.2484 -0.1086 -0.5210
17912TIP3    H175151   5.092   6.654   0.446 -0.6136  1.9336 -1.1161
17912TIP3    H275152   5.192   6.764   0.472  1.5790 -0.3174  0.5221
17913TIP3   OH275153   5.106   6.634   4.790 -0.4675  0.6019 -0.5310
17913TIP3    H175154   5.057   6.566   4.836  0.5758  1.5022  2.0737
17913TIP3    H275155   5.198   6.607   4.797 -0.2376  0.9264 -1.8934
17914TIP3   OH275156   3.789   4.450  12.736 -0.0365  0.1653  0.3283
17914TIP3    H175157   3.715   4.462  12.794  1.1101  0.4966  1.7857
17914TIP3    H275158   3.753   4.404  12.660 -1.6429  0.0235  1.1381
17915TIP3   OH275159   0.819   3.564   0.131  0.0391  0.5698  0.3119
17915TIP3    H175160   0.823   3.478   0.091  0.4452  0.5867  0.3205
17915TIP3    H275161   0.735   3.564   0.178 -0.3658  0.4999 -0.4043
17916TIP3   OH275162   1.392   6.118   6.466 -0.4251  0.2444  0.1882
17916TIP3    H175163   1.393   6.050   6.533  0.1279 -1.3836 -1.3944
17916TIP3    H275164   1.300   6.129   6.444 -0.4058 -1.3404 -0.8031
17917TIP3   OH275165   3.123   0.715  13.108  0.6707  0.0084  0.3735
17917TIP3    H175166   3.075   0.751  13.034  1.1652  1.7125  0.8219
17917TIP3    H275167   3.077   0.635  13.131  0.0098 -0.0982 -1.2237
17918TIP3   OH275168   5.331   4.686   2.718  0.2252 -0.1983 -0.4561
17918TIP3    H175169   5.378   4.696   2.801  0.4568  1.9777 -0.7868
17918TIP3    H275170   5.302   4.595   2.717  0.2296 -0.2784  2.0027
17919TIP3   OH275171   5.921   1.786  12.209  0.0647  0.4432  0.3538
17919TIP3    H175172   5.936   1.875  12.242 -0.0295  0.8055 -0.5396
17919TIP3    H275173   5.851   1.751  12.264 -1.7059  1.8618 -0.8638
17920TIP3   OH275174   4.963   6.035  11.357  0.3770  0.0836  0.7701
17920TIP3    H175175   4.976   6.087  11.436 -0.7750  2.9105 -0.7753
17920TIP3    H275176   4.966   6.098  11.285  0.3603 -2.2161 -1.4104
17921TIP3   OH275177   4.096   0.817   5.884  0.2334 -0.3031  0.1782
17921TIP3    H175178   4.022   0.820   5.823  0.6937  1.0001 -0.3621
17921TIP3    H275179   4.059   0.786   5.966 -0.8435 -0.0268 -0.1849
17922TIP3   OH275180   3.194   2.027   1.582 -0.4445  0.2030  0.2686
17922TIP3    H175181   3.286   2.035   1.554 -0.8339  0.4403 -0.9916
17922TIP3    H275182   3.190   1.944   1.629  0.4840  0.3459  0.6211
17923TIP3   OH275183   3.109   3.100   4.036  0.0234 -0.7335 -0.3636
17923TIP3    H175184   3.075   3.161   4.102  2.1899 -2.1800  2.2905
17923TIP3    H275185   3.075   3.015   4.063 -0.5571 -1.1542 -2.2877
17924TIP3   OH275186   5.815   3.290   5.231  0.0298 -0.1395  0.2297
17924TIP3    H175187   5.777   3.366   5.188 -0.5565 -0.3825  0.3039
17924TIP3    H275188   5.805   3.307   5.324 -0.2965 -0.4020  0.2443
17925TIP3   OH275189   2.617   4.874   5.739 -0.0989 -0.0521  0.0498
17925TIP3    H175190   2.576   4.885   5.824 -0.9194  0.3837 -0.3991
17925TIP3    H275191   2.674   4.951   5.729  0.1623 -0.2132  0.2931
17926TIP3   OH275192   3.814   5.116  17.098 -0.0373  0.1245  0.1167
17926TIP3    H175193   3.879   5.106  17.028  0.4669 -1.3847  0.7468
17926TIP3    H275194   3.747   5.050  17.078  0.0794 -0.2750  0.9969
17927TIP3   OH275195   5.789   3.773  14.060  0.0729 -0.3204 -0.7120
17927TIP3    H175196   5.699   3.743  14.043  0.1763 -0.1697 -1.5561
17927TIP3    H275197   5.816   3.725  14.138 -0.8869 -0.0813 -0.2189
17928TIP3   OH275198   2.854   1.393  11.633 -0.1729  0.3712  0.0940
17928TIP3    H175199   2.920   1.349  11.686 -1.2447 -1.3395  0.0870
17928TIP3    H275200   2.849   1.342  11.553 -1.7488  0.2062  0.2540
17929TIP3   OH275201   0.058   1.744  13.372 -0.5189  0.3685  0.6232
17929TIP3    H175202   0.124   1.717  13.436  0.2977 -0.3222 -0.4903
17929TIP3    H275203  -0.012   1.781  13.426 -0.7387 -1.9417  2.1015
17930TIP3   OH275204   0.616   0.899  12.529  0.2404 -0.3841  0.2334
17930TIP3    H175205   0.549   0.873  12.592  0.2822 -2.5061 -0.5299
17930TIP3    H275206   0.568   0.948  12.463  0.1984  1.8902  1.8349
17931TIP3   OH275207   5.141   2.683   4.248 -0.9570 -0.1667 -0.3234
17931TIP3    H175208   5.085   2.686   4.170  0.1333 -1.7159 -1.2026
17931TIP3    H275209   5.079   2.692   4.321 -1.9717  1.7176 -1.3062
17932TIP3   OH275210   6.156   4.474   2.552  0.2444  0.6229 -0.5941
17932TIP3    H175211   6.173   4.568   2.558  1.0625  0.5929 -1.9312
17932TIP3    H275212   6.096   4.455   2.624 -1.2356  2.4720 -1.2722
17933TIP3   OH275213   4.210   0.471  15.556  0.3101  0.3231 -0.6252
17933TIP3    H175214   4.139   0.407  15.550 -0.7560  1.1209  1.9761
17933TIP3    H275215   4.290   0.419  15.566 -0.0685 -0.5711 -2.0156
17934TIP3   OH275216   2.538   1.403  14.429 -0.1709 -0.4802 -0.3613
17934TIP3    H175217   2.633   1.402  14.413 -0.4820  1.4428 -3.0393
17934TIP3    H275218   2.527   1.467  14.500  0.4130  1.3230 -1.8249
17935TIP3   OH275219   2.362   0.470   5.647  0.1027  0.2319  0.3109
17935TIP3    H175220   2.400   0.454   5.561  1.8493 -0.7473  1.2109
17935TIP3    H275221   2.428   0.523   5.693 -0.3291 -0.1487  1.3930
17936TIP3   OH275222   2.137   1.493   0.422 -0.3526 -0.6066  0.1190
17936TIP3    H175223   2.117   1.516   0.513  0.3960  0.0596  0.1205
17936TIP3    H275224   2.217   1.541   0.402 -1.0237  0.0040 -1.2051
17937TIP3   OH275225   1.608   5.837   4.147 -0.7911 -0.3808 -0.2581
17937TIP3    H175226   1.605   5.820   4.241  1.3420  0.6158  0.0411
17937TIP3    H275227   1.671   5.909   4.137  0.9903 -2.0952 -2.6303
17938TIP3   OH275228   6.738   5.604   5.362 -0.2213  0.3397  0.4286
17938TIP3    H175229   6.760   5.685   5.407 -0.8802  0.1068  1.2058
17938TIP3    H275230   6.743   5.625   5.269 -1.0532  1.4604  0.6189
17939TIP3   OH275231   6.758   3.863   0.771  0.0309 -0.4741  0.0811
17939TIP3    H175232   6.823   3.888   0.837 -0.5033 -0.7985  0.7517
17939TIP3    H275233   6.674   3.888   0.810 -0.2169  0.4895 -1.0336
17940TIP3   OH275234   3.203   6.681  15.460 -0.3823 -0.1923 -0.1458
17940TIP3    H175235   3.293   6.661  15.434 -0.3992 -0.9209  0.3119
17940TIP3    H275236   3.186   6.768  15.424  0.9428  0.5270  0.8536
17941TIP3   OH275237   0.707   3.864   5.504  0.2659  0.0237 -0.0248
17941TIP3    H175238   0.768   3.895   5.570  0.3490  3.3649 -1.4689
17941TIP3    H275239   0.621   3.868   5.547  0.5162  0.4450  0.4493
17942TIP3   OH275240   0.738   3.181  14.300  0.6588  0.2162 -0.0367
17942TIP3    H175241   0.794   3.143  14.233  1.5880  0.9628  0.2867
17942TIP3    H275242   0.794   3.188  14.377 -0.3809 -0.5987  0.8290
17943TIP3   OH275243   4.381   0.582   5.487 -0.2402 -0.1407  0.0624
17943TIP3    H175244   4.432   0.650   5.531 -0.7485 -1.1597  2.3902
17943TIP3    H275245   4.291   0.599   5.514 -0.1906 -2.7492  2.3273
17944TIP3   OH275246   4.591   4.171  14.267 -0.0006 -0.0124 -0.2600
17944TIP3    H175247   4.606   4.235  14.337  0.4379 -1.0951  0.6548
17944TIP3    H275248   4.547   4.098  14.310  0.9543 -1.0218 -0.9325
17945TIP3   OH275249   1.741   0.853  15.347  0.6368 -0.1124 -0.0689
17945TIP3    H175250   1.781   0.931  15.308 -0.0472  0.2033 -0.1455
17945TIP3    H275251   1.658   0.884  15.384  0.1279 -0.8905 -0.5262
17946TIP3   OH275252   3.959   2.047  11.722  0.5093  0.2641 -1.0227
17946TIP3    H175253   3.983   2.065  11.631 -0.2571  2.3593 -0.8532
17946TIP3    H275254   3.884   2.104  11.740  1.8206  1.3874  1.4782
17947TIP3   OH275255   3.227   0.107  13.480 -0.4737  0.2023  0.0254
17947TIP3    H175256   3.166   0.157  13.534  0.1445  0.9976  0.0040
17947TIP3    H275257   3.186   0.105  13.393 -0.2441  1.1593 -0.1134
17948TIP3   OH275258   2.190   3.916   0.536 -0.5287  0.0477  0.1678
17948TIP3    H175259   2.237   3.877   0.610  2.6601  1.1688 -1.0649
17948TIP3    H275260   2.169   3.841   0.480 -0.5559 -0.5483  0.9547
17949TIP3   OH275261   2.161   1.684  13.365  0.5729  0.1308 -0.4739
17949TIP3    H175262   2.254   1.677  13.385  0.5068  0.0955 -0.1669
17949TIP3    H275263   2.117   1.638  13.437  0.2897  0.7596 -0.2311
17950TIP3   OH275264   0.855   6.638   0.505  0.6174  0.3813  0.2470
17950TIP3    H175265   0.787   6.575   0.482  1.8239 -1.3144  1.0397
17950TIP3    H275266   0.928   6.617   0.447  1.9197 -0.6658  2.1673
17951TIP3   OH275267   0.363   5.520   2.710 -0.1103  0.0618  0.0633
17951TIP3    H175268   0.431   5.554   2.769 -0.1321  0.1813  0.0209
17951TIP3    H275269   0.404   5.447   2.665  0.2472  0.6198 -0.5375
17952TIP3   OH275270   6.416   1.107   4.502  0.2554 -0.4311  0.6833
17952TIP3    H175271   6.370   1.176   4.455 -1.5776 -2.9758 -1.6130
17952TIP3    H275272   6.482   1.152   4.554 -0.4663  2.9274 -1.0718
17953TIP3   OH275273   2.822   6.590   3.780  0.0725  0.3830 -0.2300
17953TIP3    H175274   2.744   6.541   3.753 -0.0587  0.5931 -0.2348
17953TIP3    H275275   2.789   6.677   3.801  0.1333  0.1588  0.8499
17954TIP3   OH275276   5.380   2.237  13.184 -0.8421  0.1973  0.0088
17954TIP3    H175277   5.339   2.252  13.098  1.9772 -0.5511 -1.6093
17954TIP3    H275278   5.448   2.305  13.190 -0.2283 -0.4818  1.1010
17955TIP3   OH275279   1.657   4.717   2.164 -0.1023  0.1888  0.3538
17955TIP3    H175280   1.606   4.761   2.231 -0.0766  2.6159 -1.0970
17955TIP3    H275281   1.602   4.644   2.135 -2.3629  2.0652 -0.4135
17956TIP3   OH275282   3.787   5.091   0.148 -0.2380 -0.0670  0.5873
17956TIP3    H175283   3.730   5.145   0.202 -0.0337  1.8285 -0.9973
17956TIP3    H275284   3.772   5.121   0.058  2.4940 -0.1356  0.0001
17957TIP3   OH275285   5.997   3.473  11.423  0.0346 -0.4430 -0.7101
17957TIP3    H175286   6.069   3.536  11.424  0.2796 -0.7204  0.3524
17957TIP3    H275287   5.933   3.511  11.363  0.4749  0.4784 -0.6228
17958TIP3   OH275288   2.944   2.308   1.102  0.3329 -0.5567  0.4484
17958TIP3    H175289   2.849   2.302   1.089  0.2360 -3.0674  1.7411
17958TIP3    H275290   2.980   2.311   1.014 -0.8589 -2.1339 -0.1348
17959TIP3   OH275291   3.606   5.203  11.655 -0.0022 -0.0795  0.6440
17959TIP3    H175292   3.548   5.128  11.653  0.6798 -0.6005 -0.0034
17959TIP3    H275293   3.569   5.264  11.592  0.3523 -0.5705 -0.0491
17960TIP3   OH275294   5.719   4.708  12.792  0.1549  0.5513  0.2648
17960TIP3    H175295   5.750   4.696  12.882  0.5676 -0.4689 -0.0015
17960TIP3    H275296   5.797   4.702  12.738 -0.1170  0.9662 -0.1905
17961TIP3   OH275297   3.747   3.378  10.205  0.5324 -0.1150 -0.0360
17961TIP3    H175298   3.692   3.384  10.283  1.4445  0.8056  0.5803
17961TIP3    H275299   3.688   3.393  10.131 -0.0494  0.7920  0.5982
17962TIP3   OH275300   5.362   3.586  13.399 -0.1348  0.0606  0.6464
17962TIP3    H175301   5.458   3.585  13.404 -0.0639  0.3457 -0.4165
17962TIP3    H275302   5.334   3.591  13.490  0.8724  0.2699  0.9636
17963TIP3   OH275303   6.235   3.317  12.064 -0.5321  0.4824  0.0950
17963TIP3    H175304   6.290   3.273  12.128 -0.7909  1.4119  0.9920
17963TIP3    H275305   6.254   3.273  11.981  0.1507 -0.4437  0.7197
17964TIP3   OH275306   6.048   2.565  15.185 -0.1961 -0.2299  0.0795
17964TIP3    H175307   6.073   2.651  15.218  0.8864 -0.6987  0.5264
17964TIP3    H275308   6.090   2.503  15.244  0.3130 -1.0778 -1.1130
17965TIP3   OH275309   5.787   0.934  16.408  0.3198 -0.0678 -0.4654
17965TIP3    H175310   5.851   0.983  16.356 -1.6032  2.0183 -1.0347
17965TIP3    H275311   5.754   0.867  16.348  0.8946 -0.2013 -0.6391
17966TIP3   OH275312   1.767   5.555  16.539  0.3577  0.5091 -0.0091
17966TIP3    H175313   1.759   5.563  16.444  0.3627 -1.8927 -0.2675
17966TIP3    H275314   1.761   5.645  16.571  0.1772  1.3594 -2.2559
17967TIP3   OH275315   4.516   6.609   1.726 -0.2244 -0.1698  0.4614
17967TIP3    H175316   4.509   6.516   1.709  2.3003 -0.1980 -0.8266
17967TIP3    H275317   4.465   6.650   1.656  0.5054 -0.5483 -0.3022
17968TIP3   OH275318   4.443   2.977  13.200 -0.3035  0.0882  0.0234
17968TIP3    H175319   4.474   3.048  13.143  0.1363 -0.6937 -0.7161
17968TIP3    H275320   4.523   2.942  13.240 -0.6643  1.1356  1.7526
17969TIP3   OH275321   6.781   4.156   3.965 -0.2328  0.3978 -0.3063
17969TIP3    H175322   6.789   4.061   3.959 -0.9715  0.2377  0.8654
17969TIP3    H275323   6.861   4.184   4.008 -0.6893  0.1187  0.7505
17970TIP3   OH275324   5.052   5.013   0.663  0.2332  0.6590  0.9299
17970TIP3    H175325   4.970   5.014   0.713 -0.5693 -1.0761 -0.2706
17970TIP3    H275326   5.060   5.102   0.630 -0.5536  1.1654  2.0217
17971TIP3   OH275327   1.860   0.276   0.756  0.1351  0.1577 -0.1916
17971TIP3    H175328   1.838   0.324   0.836 -0.9589  0.7323 -0.8150
17971TIP3    H275329   1.854   0.342   0.687  0.4748 -0.4738 -0.8267
17972TIP3   OH275330   0.153   0.276  15.213 -0.0529  0.2777 -0.3112
17972TIP3    H175331   0.122   0.185  15.215 -0.0010  0.2644  0.0313
17972TIP3    H275332   0.231   0.274  15.158 -0.8538  0.3741 -1.4669
17973TIP3   OH275333   3.964   2.542  14.451 -0.2556 -0.1892  0.0690
17973TIP3    H175334   4.010   2.536  14.368 -0.4704 -0.5322 -0.0290
17973TIP3    H275335   3.958   2.636  14.469 -1.3325 -0.0425 -0.9393
17974TIP3   OH275336   2.958   4.787  15.038  0.3693  0.3446  0.1417
17974TIP3    H175337   2.963   4.706  15.087  0.4940  1.9494  3.0134
17974TIP3    H275338   2.875   4.782  14.991 -0.6064 -0.6007  1.8872
17975TIP3   OH275339   0.850   0.979   6.388  0.5101 -0.0291 -0.3865
17975TIP3    H175340   0.815   1.067   6.379  1.4462  0.2862 -1.1482
17975TIP3    H275341   0.879   0.974   6.479  0.8457  0.6189 -0.4467
17976TIP3   OH275342   0.825   1.234  14.295 -0.1219  0.1744 -0.4417
17976TIP3    H175343   0.752   1.182  14.262 -1.3358  1.7168 -0.3506
17976TIP3    H275344   0.783   1.303  14.346  1.4019  1.2489 -0.5652
17977TIP3   OH275345   4.068   3.851   2.241  0.3454 -0.3282 -0.4145
17977TIP3    H175346   4.039   3.773   2.194  0.1485 -0.7536  0.3842
17977TIP3    H275347   4.162   3.854   2.228  0.2769 -0.3843 -0.9186
17978TIP3   OH275348   1.463   4.238   3.188 -0.4905  0.3674 -0.1597
17978TIP3    H175349   1.543   4.270   3.146 -0.0957 -1.3821 -0.8108
17978TIP3    H275350   1.392   4.275   3.136 -0.1686  2.4016  0.7569
17979TIP3   OH275351   4.594   1.463   1.603  0.2493 -0.1183  0.4632
17979TIP3    H175352   4.668   1.507   1.561 -0.2005 -0.9398 -1.2894
17979TIP3    H275353   4.516   1.500   1.561 -0.3830  0.6391  2.1911
17980TIP3   OH275354   2.870   2.571   2.624 -0.3544 -0.1289 -0.3073
17980TIP3    H175355   2.915   2.634   2.568 -0.9329 -1.8926 -2.9441
17980TIP3    H275356   2.789   2.615   2.649 -0.7172  0.2700 -2.0418
17981TIP3   OH275357   5.306   0.752  11.050  0.8243 -0.1354  0.5571
17981TIP3    H175358   5.379   0.774  10.992  0.9353  0.6009  0.9552
17981TIP3    H275359   5.235   0.810  11.021 -0.1778 -2.0086 -0.9263
17982TIP3   OH275360   1.021   6.114  13.229  0.4024  0.2233  0.4568
17982TIP3    H175361   1.038   6.137  13.138  0.0445  0.1879  0.3782
17982TIP3    H275362   1.020   6.198  13.275 -1.9340  0.5282 -0.0049
17983TIP3   OH275363   2.081   3.289   4.211 -0.6610 -0.4673 -0.0443
17983TIP3    H175364   2.051   3.210   4.256  0.1382  0.0392  1.4739
17983TIP3    H275365   2.045   3.361   4.264  2.9179  0.1766  1.8251
17984TIP3   OH275366   1.458   1.314  12.155 -0.2145  0.0313  0.1652
17984TIP3    H175367   1.504   1.235  12.126  0.2040  0.0894  0.6718
17984TIP3    H275368   1.524   1.367  12.198 -1.2047 -1.0613  3.2965
17985TIP3   OH275369   2.076   6.649  12.885  0.0957  0.6327  0.0794
17985TIP3    H175370   2.097   6.563  12.921  0.4653  1.2353  1.3347
17985TIP3    H275371   2.015   6.687  12.947  1.9421  2.3170  0.9515
17986TIP3   OH275372   2.249   2.000   2.952  0.2003 -0.1811 -0.2293
17986TIP3    H175373   2.307   1.962   2.887  0.0328 -1.5723  0.4022
17986TIP3    H275374   2.236   1.930   3.017 -1.1405  0.5301  0.3108
17987TIP3   OH275375   1.066   2.331   3.856 -0.2082 -0.1811  0.1783
17987TIP3    H175376   1.053   2.334   3.951  2.1373 -1.4750  0.6165
17987TIP3    H275377   1.068   2.423   3.829 -0.4382  0.2252  1.4581
17988TIP3   OH275378   0.844   6.190   0.880 -0.2869 -0.1515 -0.2620
17988TIP3    H175379   0.904   6.150   0.944  0.5580 -0.2473 -1.0800
17988TIP3    H275380   0.858   6.284   0.890 -1.0736 -0.1095  0.5387
17989TIP3   OH275381   2.107   2.328  12.646  0.1825  0.0822  0.4910
17989TIP3    H175382   2.098   2.420  12.622  1.7755 -0.4615 -2.6197
17989TIP3    H275383   2.019   2.292  12.632 -0.1398  0.8530  0.4282
17990TIP3   OH275384   0.954   1.725   0.237  0.3450  0.2999  0.2749
17990TIP3    H175385   1.018   1.767   0.180  1.2607 -1.4716 -0.0803
17990TIP3    H275386   0.941   1.787   0.309  1.8816  1.0328 -0.0527
17991TIP3   OH275387   2.750   2.169   1.824  0.0216  0.0652 -0.0104
17991TIP3    H175388   2.791   2.165   1.738 -1.9838 -1.1211 -1.0049
17991TIP3    H275389   2.819   2.146   1.885  0.8482 -1.9390 -1.5854
17992TIP3   OH275390   4.625   5.804  16.422  0.1977  0.0212  0.0356
17992TIP3    H175391   4.637   5.853  16.504 -0.0730 -2.1707  1.4606
17992TIP3    H275392   4.561   5.736  16.444  1.8412 -2.0861 -1.3185
17993TIP3   OH275393   1.241   3.596  14.881 -0.0050 -0.3376 -0.1852
17993TIP3    H175394   1.298   3.519  14.883  1.5461  0.7703  0.7613
17993TIP3    H275395   1.298   3.668  14.853 -0.2256  1.2768  2.9552
17994TIP3   OH275396   4.076   5.497   6.077 -0.3300  0.4868  0.3423
17994TIP3    H175397   3.986   5.506   6.109  0.0042  2.5653  0.8023
17994TIP3    H275398   4.124   5.460   6.151 -0.8283 -0.9906 -0.0249
17995TIP3   OH275399   3.276   1.393  12.376  0.6131  0.3331  0.1033
17995TIP3    H175400   3.259   1.339  12.298  0.4119 -0.4345  0.6604
17995TIP3    H275401   3.345   1.453  12.349  0.3400  0.2775 -0.7588
17996TIP3   OH275402   1.545   3.379   6.106 -0.4570  0.7287 -0.3319
17996TIP3    H175403   1.490   3.327   6.165 -0.1049 -1.3573 -1.7078
17996TIP3    H275404   1.483   3.437   6.061 -1.0966  0.4920  0.2168
17997TIP3   OH275405   0.268   4.896   5.900  0.7353  0.5230 -0.2851
17997TIP3    H175406   0.348   4.935   5.935 -0.0398  3.9937 -1.9803
17997TIP3    H275407   0.200   4.921   5.963  0.7246 -1.6707  0.6836
17998TIP3   OH275408   5.857   4.218  12.041  0.7708 -0.5283  0.0477
17998TIP3    H175409   5.838   4.273  11.965  2.0110  0.7118  0.5828
17998TIP3    H275410   5.838   4.273  12.117  2.3370 -0.6763  0.5972
17999TIP3   OH275411   0.781   3.962   6.179 -0.2245  0.1197 -0.2299
17999TIP3    H175412   0.712   3.934   6.239  0.9063  0.1759  1.1380
17999TIP3    H275413   0.827   4.032   6.226  0.4704  0.4045 -1.3069
18000TIP3   OH275414   6.448   6.024  16.143 -0.5010  0.3831  0.0329
18000TIP3    H175415   6.388   5.974  16.198 -1.1554  0.2004 -0.8341
18000TIP3    H275416   6.403   6.032  16.059 -0.1956  2.0132 -0.0050
18001TIP3   OH275417   6.204   6.714   3.336  0.1572 -0.1629  0.6120
18001TIP3    H175418   6.118   6.688   3.369 -0.3235  1.2968  0.5978
18001TIP3    H275419   6.250   6.749   3.413  0.0839  0.6422  0.3022
18002TIP3   OH275420   5.331   4.610   3.687 -0.0574 -0.5847  0.2119
18002TIP3    H175421   5.274   4.547   3.643  2.0201 -3.2450  1.0552
18002TIP3    H275422   5.319   4.592   3.781  0.4270  0.4078  0.4763
18003TIP3   OH275423   4.900   2.642  12.670  0.2718 -0.2004  0.5778
18003TIP3    H175424   4.949   2.560  12.676 -0.5932 -0.8623 -0.8706
18003TIP3    H275425   4.878   2.650  12.577  0.4133  1.7366  0.6608
18004TIP3   OH275426   1.466   3.181  16.643 -0.1677  0.7055 -0.1421
18004TIP3    H175427   1.420   3.208  16.723 -0.0441  2.9366 -0.7355
18004TIP3    H275428   1.411   3.114  16.604  0.0383 -0.8663  2.0485
18005TIP3   OH275429   1.744   2.615   4.554 -0.0362  0.3901  0.5105
18005TIP3    H175430   1.655   2.636   4.580 -0.0893  2.7416 -1.1601
18005TIP3    H275431   1.797   2.686   4.590  1.2389 -1.0447  1.6109
18006TIP3   OH275432   5.937   0.957   0.092  0.0530  0.2202  0.0258
18006TIP3    H175433   5.949   0.884   0.031  0.2631 -0.4174  0.8187
18006TIP3    H275434   5.852   0.994   0.068  0.1044 -0.0611 -0.6103
18007TIP3   OH275435   4.885   2.384  14.613 -0.5788 -0.3383 -0.1634
18007TIP3    H175436   4.871   2.349  14.525  1.8459  1.4765 -1.3922
18007TIP3    H275437   4.954   2.330  14.650 -0.9385 -0.5095  0.2605
18008TIP3   OH275438   0.093   1.921   4.945 -0.8347 -0.6120 -0.5856
18008TIP3    H175439   0.036   1.974   4.890 -0.2016 -1.3858 -2.0555
18008TIP3    H275440   0.182   1.941   4.914 -0.3217  0.0764  1.2005
18009TIP3   OH275441   4.744   5.646   2.982  0.0940 -0.5894 -0.3799
18009TIP3    H175442   4.777   5.722   2.934 -2.4207  2.0801  1.6827
18009TIP3    H275443   4.649   5.657   2.980 -0.2488 -0.4304  4.5690
18010TIP3   OH275444   0.665   5.438  13.037  0.0299 -0.1967  0.7179
18010TIP3    H175445   0.758   5.428  13.019 -0.3143  1.4922 -2.6826
18010TIP3    H275446   0.621   5.394  12.964 -1.8742 -0.4561  1.9261
18011TIP3   OH275447   2.357   3.990   3.444 -0.7534  0.1372  0.0255
18011TIP3    H175448   2.361   4.026   3.532  1.1246  0.8352 -0.3100
18011TIP3    H275449   2.268   4.009   3.414 -0.9887  1.0759  1.2671
18012TIP3   OH275450   6.138   2.031   1.092 -0.1962  0.3730  0.5171
18012TIP3    H175451   6.091   1.985   1.162 -1.0676 -0.6781 -0.7005
18012TIP3    H275452   6.214   2.069   1.135 -0.3208 -0.8477  1.9047
18013TIP3   OH275453   5.551   4.255  15.195 -0.3264 -0.1667 -0.1920
18013TIP3    H175454   5.552   4.165  15.228 -0.3874 -0.5729 -1.2743
18013TIP3    H275455   5.594   4.306  15.264 -1.0718 -0.8748  0.8199
18014TIP3   OH275456   0.467   6.357  16.217  0.6052 -0.2832 -0.7465
18014TIP3    H175457   0.548   6.389  16.178 -0.1366 -0.1950 -2.2769
18014TIP3    H275458   0.420   6.436  16.245  0.6057 -0.2707 -0.7816
18015TIP3   OH275459   1.737   0.710  14.660 -0.0677 -0.4801 -0.1787
18015TIP3    H175460   1.718   0.726  14.568 -0.3561  2.4932  0.2822
18015TIP3    H275461   1.654   0.678  14.696 -0.7261  0.7379 -0.5344
18016TIP3   OH275462   3.247   6.315   2.788 -0.1656 -0.4877 -0.0484
18016TIP3    H175463   3.172   6.273   2.744 -0.9755  0.1571  0.6703
18016TIP3    H275464   3.209   6.391   2.832  1.0232  0.1580 -0.1019
18017TIP3   OH275465   2.448   0.636   0.357  0.0698 -0.1627 -0.0733
18017TIP3    H175466   2.450   0.677   0.444 -1.7858  0.6167 -0.3429
18017TIP3    H275467   2.443   0.710   0.296 -0.9440 -0.7140 -0.6957
18018TIP3   OH275468   4.739   2.064  13.107 -0.8776 -0.3686 -0.2955
18018TIP3    H175469   4.674   2.002  13.141 -0.2625  0.8375  3.5111
18018TIP3    H275470   4.688   2.141  13.083 -1.0713 -0.2191  0.5903
18019TIP3   OH275471   0.007   0.617  15.803 -0.5540 -0.3496  0.1807
18019TIP3    H175472  -0.048   0.540  15.816 -0.9854 -0.1294 -0.2740
18019TIP3    H275473  -0.053   0.691  15.814 -0.5681 -0.1221 -1.2327
18020TIP3   OH275474   6.675   2.517   3.246 -0.3194 -0.7336  0.1077
18020TIP3    H175475   6.704   2.481   3.329  0.3038 -1.3846 -0.3736
18020TIP3    H275476   6.744   2.493   3.184 -0.1756  0.7901 -0.3720
18021TIP3   OH275477   5.896   6.555  14.986 -1.0224 -0.2076  0.3237
18021TIP3    H175478   5.978   6.595  14.956 -1.4761  2.1749  1.9246
18021TIP3    H275479   5.895   6.468  14.946  2.7894 -0.7751  1.0590
18022TIP3   OH275480   5.816   0.628  12.103 -0.2693 -0.1175  0.6484
18022TIP3    H175481   5.841   0.683  12.029  0.1123  1.1559  1.6888
18022TIP3    H275482   5.832   0.538  12.073  1.7248  0.4595 -0.1370
18023TIP3   OH275483   3.208   4.225   6.579  0.1048 -0.2467 -0.1116
18023TIP3    H175484   3.257   4.160   6.529 -0.2386  0.6897 -1.7450
18023TIP3    H275485   3.123   4.230   6.534  0.0717  1.1986  0.0878
18024TIP3   OH275486   6.786   0.576  11.569  0.2351  0.1819  0.5436
18024TIP3    H175487   6.746   0.552  11.653  0.7233  0.3004  0.8179
18024TIP3    H275488   6.715   0.567  11.505  0.0832 -0.7423  0.8304
18025TIP3   OH275489   0.345   2.097  10.270  0.3329  0.5822  0.5082
18025TIP3    H175490   0.268   2.148  10.247  0.1151  0.9030  1.8739
18025TIP3    H275491   0.328   2.010  10.235 -1.1113  0.3771  1.6585
18026TIP3   OH275492   5.315   4.195   3.515 -0.2273  0.4393 -0.4126
18026TIP3    H175493   5.331   4.100   3.511 -0.8477  0.3750 -1.6315
18026TIP3    H275494   5.337   4.227   3.428 -0.0216  1.4297 -0.0083
18027TIP3   OH275495   3.274   4.932   2.931 -0.6358 -0.1314 -0.2999
18027TIP3    H175496   3.238   5.011   2.972 -1.4570 -0.6763  0.0803
18027TIP3    H275497   3.360   4.922   2.971 -1.5777 -0.8741  1.6760
18028TIP3   OH275498   1.373   3.248  12.389  0.7509 -0.1187  0.1429
18028TIP3    H175499   1.371   3.244  12.293  1.0593  0.8130  0.0836
18028TIP3    H275500   1.464   3.269  12.410  0.5792  0.1801  0.6118
18029TIP3   OH275501   6.164   1.242   5.402 -0.1924 -0.4016  0.4420
18029TIP3    H175502   6.156   1.181   5.476 -0.3631 -1.3836 -0.3680
18029TIP3    H275503   6.091   1.302   5.413  1.1329  0.9592  2.3967
18030TIP3   OH275504   0.269   1.658  13.556  0.3490  0.1452 -0.0325
18030TIP3    H175505   0.332   1.729  13.547  0.2019  0.5776  1.7734
18030TIP3    H275506   0.269   1.639  13.650  0.4788 -2.3560 -0.4785
18031TIP3   OH275507   3.297   4.344  15.180  0.1808  0.1593  0.1395
18031TIP3    H175508   3.272   4.395  15.257 -2.2694 -1.3998  0.5021
18031TIP3    H275509   3.245   4.381  15.109 -2.7766 -2.4405  0.6791
18032TIP3   OH275510   5.935   4.448   5.314  0.1182  0.4483 -0.2720
18032TIP3    H175511   5.910   4.442   5.222  0.1430 -1.3739 -0.2077
18032TIP3    H275512   5.962   4.359   5.337 -0.3718  0.7436  1.6245
18033TIP3   OH275513   4.899   3.454   4.196 -0.2898  0.0922  0.8021
18033TIP3    H175514   4.977   3.398   4.197  0.8854  1.4656 -2.4021
18033TIP3    H275515   4.836   3.406   4.250  1.5562 -2.8872  0.5793
18034TIP3   OH275516   2.151   5.441  15.210  0.2805  0.0423  0.6622
18034TIP3    H175517   2.244   5.456  15.225 -0.0636  0.0092  3.2671
18034TIP3    H275518   2.114   5.528  15.197  0.7136  0.0178 -0.8802
18035TIP3   OH275519   1.337   5.395  12.918 -0.3073  0.0792  0.5376
18035TIP3    H175520   1.327   5.401  12.823  0.0424 -0.4382  0.4668
18035TIP3    H275521   1.430   5.409  12.934 -0.5368  1.3082  0.9078
18036TIP3   OH275522   0.342   2.915  16.038  0.0544  0.0333 -0.2046
18036TIP3    H175523   0.392   2.996  16.048 -2.4337  1.4123  2.2119
18036TIP3    H275524   0.371   2.860  16.110 -3.6672  2.0386  3.2323
18037TIP3   OH275525   4.713   1.971  14.319  0.1708 -0.1931  0.1019
18037TIP3    H175526   4.635   1.993  14.269 -0.3962 -1.8243  0.2224
18037TIP3    H275527   4.681   1.948  14.406  0.6181 -2.0908 -0.2002
18038TIP3   OH275528   1.870   4.478   2.057 -0.3287  0.0739 -0.4024
18038TIP3    H175529   1.944   4.525   2.020  0.2313  0.5642  1.2856
18038TIP3    H275530   1.841   4.531   2.131 -0.2818 -1.7236  0.9862
18039TIP3   OH275531   1.501   1.246   1.564  0.2146  0.9220  0.0390
18039TIP3    H175532   1.502   1.282   1.653  0.5877  1.2754 -0.1043
18039TIP3    H275533   1.512   1.152   1.576 -3.3885  0.4216  0.5897
18040TIP3   OH275534   3.522   1.329   5.545 -0.1171 -0.2387  0.2048
18040TIP3    H175535   3.537   1.390   5.617 -1.2232  0.0171  0.2352
18040TIP3    H275536   3.604   1.280   5.537  0.7894  1.2490  0.1660
18041TIP3   OH275537   0.233   6.542  11.651 -0.4146 -0.0860 -0.2504
18041TIP3    H175538   0.165   6.477  11.667 -0.0799 -0.6556 -1.0602
18041TIP3    H275539   0.257   6.529  11.559 -0.6142  1.4550 -0.5450
18042TIP3   OH275540   1.769   4.010   3.958  0.4755 -0.3535 -0.5339
18042TIP3    H175541   1.811   4.042   4.037 -0.1760 -2.1136  0.5816
18042TIP3    H275542   1.711   3.939   3.988 -0.5796 -0.3755 -2.4431
18043TIP3   OH275543   3.045   6.528   2.855  0.0874  0.4631  0.3036
18043TIP3    H175544   3.080   6.594   2.795  1.3009  0.8557  1.3896
18043TIP3    H275545   3.005   6.578   2.926  0.8527  0.0462  1.0427
18044TIP3   OH275546   4.743   0.387  15.715 -0.4501 -0.6593 -0.3952
18044TIP3    H175547   4.760   0.337  15.795 -0.8615  0.1431  0.2157
18044TIP3    H275548   4.650   0.371  15.696 -0.9513  0.8939  0.5710
18045TIP3   OH275549   4.726   2.787   3.020 -0.1943 -0.7438 -0.3561
18045TIP3    H175550   4.759   2.760   2.934 -0.4993 -0.5743 -0.5286
18045TIP3    H275551   4.777   2.736   3.083  0.8497 -0.0263 -0.5964
18046TIP3   OH275552   1.310   2.781   5.091  0.2302  0.6453  0.1998
18046TIP3    H175553   1.327   2.846   5.159  3.6601  0.9486 -0.8040
18046TIP3    H275554   1.239   2.818   5.040  0.7103  2.6197  0.8790
18047TIP3   OH275555   2.987   3.616   5.688 -0.0251 -0.7390 -0.0115
18047TIP3    H175556   3.046   3.553   5.646 -0.2166 -0.5620 -0.5561
18047TIP3    H275557   2.973   3.581   5.776 -0.7117 -1.8437 -0.5415
18048TIP3   OH275558   5.158   2.845  11.977  0.3914 -0.0257  0.1096
18048TIP3    H175559   5.157   2.792  11.897 -0.9663 -0.0740  0.1444
18048TIP3    H275560   5.107   2.923  11.956  1.0241  0.5208  0.5627
18049TIP3   OH275561   6.406   1.964  14.243  0.5620  0.1189  0.0360
18049TIP3    H175562   6.420   2.002  14.329  0.3091  1.2678 -0.4168
18049TIP3    H275563   6.448   2.024  14.182 -2.0614  1.1281 -0.9171
18050TIP3   OH275564   5.449   5.621   0.519  0.0764 -0.2204 -0.3068
18050TIP3    H175565   5.385   5.688   0.494  0.9125  0.0702 -1.8070
18050TIP3    H275566   5.399   5.539   0.519 -0.9010  0.3277  1.3082
18051TIP3   OH275567   0.959   0.531  11.311 -0.4536 -0.3770 -0.1983
18051TIP3    H175568   0.956   0.458  11.373 -0.3497  1.5400  2.1971
18051TIP3    H275569   0.893   0.592  11.343 -0.1661  0.8414 -1.8196
18052TIP3   OH275570   4.475   5.735   2.750  0.3501  0.1410  0.2945
18052TIP3    H175571   4.503   5.739   2.841  1.0828 -0.2256  0.0974
18052TIP3    H275572   4.451   5.644   2.736  0.1085  0.2255  0.1606
18053TIP3   OH275573   5.959   1.395   0.208 -0.0753  0.0542 -0.1734
18053TIP3    H175574   5.945   1.341   0.131 -1.7884 -1.4466  1.1006
18053TIP3    H275575   5.938   1.484   0.179  0.4557 -0.2884 -1.6941
18054TIP3   OH275576   5.302   5.662  13.701  0.0681 -0.0052  0.6338
18054TIP3    H175577   5.218   5.699  13.729 -1.7393 -1.9901 -1.6041
18054TIP3    H275578   5.340   5.729  13.644 -0.0304  0.8880  1.6012
18055TIP3   OH275579   6.713   4.987  13.640 -0.1630 -0.5045  0.3881
18055TIP3    H175580   6.701   5.077  13.668  2.8597  0.4582 -1.0213
18055TIP3    H275581   6.635   4.968  13.586 -1.4135  0.7875  1.6621
18056TIP3   OH275582   5.689   2.754  13.384  0.1213  0.2354 -0.0617
18056TIP3    H175583   5.617   2.698  13.416  0.6425 -0.3847  0.0531
18056TIP3    H275584   5.676   2.837  13.429 -1.1110  0.4690 -0.8095
18057TIP3   OH275585   0.455   6.248  15.954  0.7667  0.9911 -0.0396
18057TIP3    H175586   0.520   6.316  15.935  1.0871  1.0711  1.2949
18057TIP3    H275587   0.461   6.233  16.048  0.1570 -0.3451 -0.1828
18058TIP3   OH275588   3.181   5.352  12.488 -0.9322 -0.0582 -0.0928
18058TIP3    H175589   3.097   5.377  12.528 -0.5190  0.3904  0.5185
18058TIP3    H275590   3.188   5.409  12.412  0.0337  1.8788  1.3320
18059TIP3   OH275591   6.084   2.014   5.447 -0.8234 -0.0089 -0.3825
18059TIP3    H175592   6.077   2.028   5.542 -0.8597  1.6215 -0.6059
18059TIP3    H275593   6.126   1.928   5.439 -1.3480 -0.4428  1.1000
18060TIP3   OH275594   2.134   0.694   2.300 -0.6599  0.0525  0.1578
18060TIP3    H175595   2.227   0.672   2.308 -0.9222 -1.4288 -0.4409
18060TIP3    H275596   2.093   0.656   2.378 -0.7245  1.0541  0.6276
18061TIP3   OH275597   3.036   3.518   2.025  0.1558 -0.1014 -0.4755
18061TIP3    H175598   3.114   3.467   2.007 -0.0682 -0.3690 -0.7046
18061TIP3    H275599   2.970   3.453   2.050 -0.1818  0.0532 -0.9475
18062TIP3   OH275600   2.714   4.942  14.215 -0.5329  0.3235  0.4532
18062TIP3    H175601   2.640   4.924  14.274 -0.1657 -1.4285  0.4350
18062TIP3    H275602   2.770   5.002  14.265 -1.5726  1.0560  0.7754
18063TIP3   OH275603   0.365   1.412  11.950  0.4526 -0.4654  0.4075
18063TIP3    H175604   0.443   1.357  11.956  0.4620 -0.4805  0.1481
18063TIP3    H275605   0.308   1.366  11.889  0.5861 -0.0340 -0.0426
18064TIP3   OH275606   2.670   6.433   4.663 -0.2618  0.4612  0.4528
18064TIP3    H175607   2.663   6.399   4.573  0.7286 -0.6352  0.7634
18064TIP3    H275608   2.756   6.475   4.665 -1.1033  2.2766  0.3397
18065TIP3   OH275609   3.809   4.120  15.417 -0.0713 -0.2692 -0.2047
18065TIP3    H175610   3.814   4.128  15.322 -1.1399 -0.0302 -0.2486
18065TIP3    H275611   3.849   4.200  15.450  0.2133 -0.3088 -0.4491
18066TIP3   OH275612   6.732   2.165  10.808  0.3859 -0.0899  0.2772
18066TIP3    H175613   6.719   2.148  10.715 -1.1379 -1.2313  0.6588
18066TIP3    H275614   6.772   2.252  10.811  0.4123 -0.0148 -1.4332
18067TIP3   OH275615   2.812   2.986  12.781  0.6721 -0.3405 -0.2781
18067TIP3    H175616   2.815   3.073  12.743  0.8441 -0.6300 -0.9497
18067TIP3    H275617   2.904   2.959  12.786  0.6160 -0.5061 -0.1290
18068TIP3   OH275618   5.941   2.969  16.307  0.0718  0.0159 -0.5462
18068TIP3    H175619   5.991   2.967  16.225 -0.1812 -1.4670 -0.6992
18068TIP3    H275620   5.962   2.886  16.350 -1.4259 -0.1801 -0.1189
18069TIP3   OH275621   5.413   1.442  16.737 -0.1445  0.3608 -0.7398
18069TIP3    H175622   5.374   1.466  16.821  0.2883  2.6265 -1.1118
18069TIP3    H275623   5.353   1.478  16.671 -1.7871 -3.4714 -1.5839
18070TIP3   OH275624   3.642   4.901  14.369  0.3345  0.0256  0.1160
18070TIP3    H175625   3.620   4.953  14.446  1.2024 -1.8519  1.7081
18070TIP3    H275626   3.736   4.883  14.378  0.1004 -1.6194 -0.4722
18071TIP3   OH275627   2.345   5.441   6.337 -0.0015  0.0655  0.2047
18071TIP3    H175628   2.309   5.383   6.270 -1.2527 -2.3976  2.7713
18071TIP3    H275629   2.437   5.417   6.343 -0.2191 -0.7449  0.3495
18072TIP3   OH275630   1.758   1.279   1.374  0.1456 -0.0361 -0.2988
18072TIP3    H175631   1.695   1.208   1.391 -1.2833  0.7422 -1.9889
18072TIP3    H275632   1.741   1.343   1.443 -0.5220 -0.1112 -0.3857
18073TIP3   OH275633   3.898   1.517  17.161 -0.5195 -0.0310 -0.3481
18073TIP3    H175634   3.914   1.565  17.080  0.2700 -0.5506 -0.5115
18073TIP3    H275635   3.952   1.439  17.153 -0.2615  0.0186  0.7742
18074TIP3   OH275636   3.650   6.615  13.829  0.3763  0.4193 -0.3678
18074TIP3    H175637   3.561   6.620  13.864  0.5448 -1.1561  0.3955
18074TIP3    H275638   3.650   6.673  13.753 -1.1163  0.9224 -0.0123
18075TIP3   OH275639   5.204   2.934  12.443  0.0899 -0.7766  0.5835
18075TIP3    H175640   5.207   2.847  12.404  0.7215 -0.4643 -0.0733
18075TIP3    H275641   5.171   2.919  12.532 -0.0223 -1.6519  0.4036
18076TIP3   OH275642   0.243   3.201   4.345  0.5040  0.2575 -0.4903
18076TIP3    H175643   0.328   3.200   4.389 -0.6204  0.6805  1.8064
18076TIP3    H275644   0.255   3.141   4.271  2.8756  0.5507 -0.4405
18077TIP3   OH275645   4.719   0.907   5.531  0.0629 -0.0249 -0.3562
18077TIP3    H175646   4.779   0.832   5.535 -0.0920 -0.2152 -1.2577
18077TIP3    H275647   4.637   0.874   5.566  0.0620 -0.2182 -0.5360
18078TIP3   OH275648   3.898   3.729  12.393  0.1799 -0.0343 -0.2130
18078TIP3    H175649   3.982   3.758  12.429 -0.6353 -0.0279  1.8007
18078TIP3    H275650   3.921   3.655  12.337  1.7063  1.0814 -1.1465
18079TIP3   OH275651   5.370   0.121  12.809 -0.3009  0.3698  0.5563
18079TIP3    H175652   5.274   0.116  12.808 -0.4467  2.3631 -0.5713
18079TIP3    H275653   5.398   0.045  12.758 -1.2819 -0.1428  0.7456
18080TIP3   OH275654   4.972   4.719   2.903 -0.1830  0.0240  0.1644
18080TIP3    H175655   4.933   4.806   2.896 -0.5294 -0.1420 -0.0142
18080TIP3    H275656   5.048   4.731   2.960  0.0262  0.5252 -0.2176
18081TIP3   OH275657   1.953   0.817  13.465 -0.3248  0.2625 -0.2613
18081TIP3    H175658   1.858   0.820  13.476 -0.2246  0.0165  0.8366
18081TIP3    H275659   1.980   0.908  13.457 -0.5373  0.4187  0.6700
18082TIP3   OH275660   2.230   2.019  11.940  0.4166 -0.0450  0.0081
18082TIP3    H175661   2.149   2.042  11.984  1.0064  0.9056  0.6470
18082TIP3    H275662   2.227   2.066  11.857  0.2370 -0.1487 -0.0432
18083TIP3   OH275663   2.180   4.687   2.559  0.3075  0.5107 -0.4894
18083TIP3    H175664   2.267   4.690   2.520  1.5101  0.9679  2.0219
18083TIP3    H275665   2.187   4.742   2.637 -2.0201 -0.1131  0.2461
18084TIP3   OH275666   4.278   6.783   3.163  0.7092  0.2997  0.1928
18084TIP3    H175667   4.320   6.862   3.128  1.0784  0.8348  1.7763
18084TIP3    H275668   4.283   6.792   3.258 -2.2541 -0.0299  0.4768
18085TIP3   OH275669   0.626   4.901  15.714  0.1324  0.4674  0.1029
18085TIP3    H175670   0.538   4.927  15.742  0.2353  0.6034  0.3045
18085TIP3    H275671   0.663   4.858  15.791 -1.1959 -3.2827 -1.1508
18086TIP3   OH275672   4.449   4.753   5.498  0.7300 -0.3415  0.1320
18086TIP3    H175673   4.524   4.697   5.477  0.4019 -1.0446  0.7924
18086TIP3    H275674   4.373   4.695   5.492  0.4583 -0.1751  1.5584
18087TIP3   OH275675   2.810   1.736   3.203 -0.1581 -0.1005 -0.4189
18087TIP3    H175676   2.904   1.741   3.184 -0.2984  0.1939 -1.0938
18087TIP3    H275677   2.770   1.793   3.137 -1.0866 -2.7160 -2.3150
18088TIP3   OH275678   2.035   5.225  16.703  0.2863 -0.2200  0.3133
18088TIP3    H175679   1.945   5.246  16.678  0.1509 -0.7125  0.3776
18088TIP3    H275680   2.037   5.130  16.710  1.1287 -0.3174 -0.8835
18089TIP3   OH275681   1.969   6.297  15.231 -0.6144 -0.0603 -0.2272
18089TIP3    H175682   2.052   6.252  15.246 -0.5750 -0.3461 -1.2351
18089TIP3    H275683   1.966   6.366  15.298  1.4632  1.3882 -1.5337
18090TIP3   OH275684   4.113   2.252  15.974  0.0441  0.1603 -0.7028
18090TIP3    H175685   4.080   2.342  15.975 -0.0984  0.2016 -2.9818
18090TIP3    H275686   4.125   2.232  15.881  1.9544 -1.5071 -0.1730
18091TIP3   OH275687   5.996   4.254   2.757  0.9797  0.8131 -0.0480
18091TIP3    H175688   5.945   4.226   2.833  1.5527 -0.8038 -0.2127
18091TIP3    H275689   6.068   4.306   2.793  0.6353  0.9829  0.4022
18092TIP3   OH275690   1.990   2.864  16.899 -0.3723 -0.0853  0.0010
18092TIP3    H175691   1.927   2.836  16.966  0.1900 -1.1942  0.1031
18092TIP3    H275692   2.034   2.939  16.938 -0.7145 -0.1225  0.4780
18093TIP3   OH275693   2.160   0.237  11.325 -0.2709  0.4310  0.5581
18093TIP3    H175694   2.113   0.319  11.343 -1.0749  0.2184 -0.4592
18093TIP3    H275695   2.191   0.248  11.235 -1.3889 -0.8200 -0.0138
18094TIP3   OH275696   0.997   1.134  11.255  0.1894  0.1968  0.3309
18094TIP3    H175697   0.914   1.182  11.253 -1.1384 -1.9555 -2.0102
18094TIP3    H275698   1.049   1.173  11.185  1.1506  1.3396  1.6011
18095TIP3   OH275699   5.190   3.152  10.981 -0.2358  0.4819 -0.4898
18095TIP3    H175700   5.154   3.137  10.893 -2.7711 -1.6498  0.7791
18095TIP3    H275701   5.231   3.068  11.004 -2.3681 -0.1060  1.4824
18096TIP3   OH275702   1.075   3.047  16.264  0.4574 -0.0311  0.3502
18096TIP3    H175703   1.093   3.120  16.205  1.9279  0.9061  1.8866
18096TIP3    H275704   1.029   3.087  16.338 -2.6187 -1.3965 -0.6398
18097TIP3   OH275705   1.800   4.356   1.031  0.1284  0.2273  0.0054
18097TIP3    H175706   1.809   4.430   0.972  0.4367 -1.1959 -1.8319
18097TIP3    H275707   1.724   4.308   0.999  0.9960 -1.2209 -0.0054
18098TIP3   OH275708   5.663   3.728   5.936 -0.4860  0.0522 -0.7402
18098TIP3    H175709   5.660   3.639   5.972 -1.5406  0.2897 -0.2206
18098TIP3    H275710   5.632   3.784   6.007 -1.1209  0.6978 -1.5034
18099TIP3   OH275711   4.141   6.510   6.081  0.6553  0.8073 -0.6684
18099TIP3    H175712   4.217   6.523   6.137 -0.7468  2.6286  0.9504
18099TIP3    H275713   4.073   6.479   6.140 -0.6549  2.0010 -1.4992
18100TIP3   OH275714   2.900   6.339   5.480  0.4027 -0.2828  0.6657
18100TIP3    H175715   2.965   6.405   5.505 -0.6209  1.5464 -1.2004
18100TIP3    H275716   2.945   6.284   5.416  0.4088  0.4509  0.0187
18101TIP3   OH275717   5.234   2.413   4.399  0.1686  0.6252  0.8222
18101TIP3    H175718   5.261   2.491   4.446 -0.9436  0.3839  1.9159
18101TIP3    H275719   5.213   2.349   4.467  1.2425 -0.7210 -0.0475
18102TIP3   OH275720   5.784   2.281   1.965 -0.3229  0.6483  0.2461
18102TIP3    H175721   5.745   2.365   1.989  0.3031  0.5069  1.8665
18102TIP3    H275722   5.732   2.217   2.013 -0.1195  0.1935 -0.1387
18103TIP3   OH275723   6.205   3.436   1.814  0.3331  0.1434 -0.1783
18103TIP3    H175724   6.271   3.462   1.879  0.4279  0.9251 -0.5749
18103TIP3    H275725   6.148   3.375   1.861  1.0270 -0.1401  0.3245
18104TIP3   OH275726   4.327   0.288  12.004  0.7263  0.0296 -0.1750
18104TIP3    H175727   4.261   0.352  12.029  1.8860  1.0963  0.3249
18104TIP3    H275728   4.306   0.210  12.055  0.5623  0.7710  0.9431
18105TIP3   OH275729   3.738   0.712  12.261  0.0249 -0.0705 -0.2376
18105TIP3    H175730   3.680   0.639  12.284  0.0665 -0.3088 -0.8711
18105TIP3    H275731   3.704   0.746  12.179  1.4121 -0.9269 -1.2107
18106TIP3   OH275732   4.475   0.093  12.936  0.4590  0.3423 -0.2492
18106TIP3    H175733   4.502   0.179  12.968 -0.5142  0.7994 -0.6151
18106TIP3    H275734   4.519   0.031  12.994  1.0169  1.0909  0.1436
18107TIP3   OH275735   4.682   6.211   6.538  0.3267  0.9240  0.1833
18107TIP3    H175736   4.662   6.291   6.587 -0.9113  1.6228 -1.3837
18107TIP3    H275737   4.602   6.192   6.489  1.0776 -0.5045 -0.5424
18108TIP3   OH275738   5.562   4.991   1.532 -0.1975  0.6900 -0.3687
18108TIP3    H175739   5.592   4.915   1.582  1.4172  1.0665 -0.7216
18108TIP3    H275740   5.471   4.970   1.510  0.4233 -1.5102 -1.1386
18109TIP3   OH275741   4.605   5.506  16.178  0.6255 -0.6718  0.8549
18109TIP3    H175742   4.614   5.459  16.095 -1.4968 -0.5512  0.5198
18109TIP3    H275743   4.694   5.505  16.215  0.7967 -4.8791  0.8614
18110TIP3   OH275744   3.040   2.559  14.473  0.0303 -0.6181  0.7766
18110TIP3    H175745   2.959   2.528  14.433 -0.4414  1.6095 -0.1295
18110TIP3    H275746   3.025   2.652  14.491  1.9505 -0.4310  1.7615
18111TIP3   OH275747   1.607   5.910  17.239  0.1409 -0.1605  0.2696
18111TIP3    H175748   1.565   5.996  17.241 -0.0252 -0.1592 -1.4896
18111TIP3    H275749   1.668   5.911  17.313  1.5280  2.1969 -0.8114
18112TIP3   OH275750   2.683   1.016  11.578 -0.4654  0.0977  0.7619
18112TIP3    H175751   2.704   0.927  11.608 -1.8170 -0.5006  0.0400
18112TIP3    H275752   2.593   1.010  11.546 -0.1726  1.4437 -0.4419
18113TIP3   OH275753   2.558   4.606   5.933 -0.0015 -0.5313  0.3603
18113TIP3    H175754   2.480   4.636   5.978  0.0064 -1.5946  1.1345
18113TIP3    H275755   2.629   4.618   5.997  0.3179 -0.4115 -0.0095
18114TIP3   OH275756   6.721   0.703  12.255  0.2628 -0.2340 -0.1581
18114TIP3    H175757   6.730   0.626  12.199  1.7013  0.4902 -0.9706
18114TIP3    H275758   6.714   0.776  12.194  1.5344  0.5384  0.5775
18115TIP3   OH275759   4.262   5.906   3.067  0.1094  0.3675 -0.2431
18115TIP3    H175760   4.343   5.855   3.071  0.7674  1.2729 -1.3696
18115TIP3    H275761   4.193   5.841   3.058  0.9989 -0.3685 -2.6212
18116TIP3   OH275762   5.508   1.418  10.617 -0.0540  0.0686  0.3574
18116TIP3    H175763   5.601   1.392  10.615  0.1339  0.7504 -0.2217
18116TIP3    H275764   5.507   1.504  10.574 -1.1480 -0.5415 -0.8953
18117TIP3   OH275765   4.694   2.437   1.179 -0.7272  0.0075  0.4033
18117TIP3    H175766   4.669   2.525   1.149 -2.1764 -0.4623  0.1479
18117TIP3    H275767   4.722   2.392   1.100  1.2648  0.6101  0.7274
18118TIP3   OH275768   3.296   3.173   5.469 -0.6935  0.0908  0.2742
18118TIP3    H175769   3.220   3.137   5.515  1.0113 -2.8366  1.0735
18118TIP3    H275770   3.278   3.154   5.376 -2.8139  3.4217 -0.1605
18119TIP3   OH275771   3.873   2.295   0.488  0.4344  0.2688  0.4539
18119TIP3    H175772   3.885   2.218   0.544  0.1133 -0.3407 -0.2949
18119TIP3    H275773   3.956   2.302   0.441 -0.4576 -1.3031 -1.4954
18120TIP3   OH275774   4.013   0.200   0.613 -0.6849  0.4720 -0.1831
18120TIP3    H175775   3.923   0.231   0.605 -0.3678  1.3112 -0.5571
18120TIP3    H275776   4.045   0.196   0.523  0.0626  1.4255  0.0240
18121TIP3   OH275777   2.342   1.907   1.469  0.0268 -0.3957  0.0965
18121TIP3    H175778   2.319   1.870   1.554 -2.7241  0.8911  0.0316
18121TIP3    H275779   2.422   1.957   1.485 -1.7583  1.9129  2.6195
18122TIP3   OH275780   5.860   0.006   4.745  0.4801  0.4943  0.3177
18122TIP3    H175781   5.875   0.078   4.684 -0.3438  0.4459  0.0395
18122TIP3    H275782   5.784  -0.040   4.709  0.3734  0.0862  1.0431
18123TIP3   OH275783   0.669   0.464  16.132  0.7020 -0.3244 -0.0631
18123TIP3    H175784   0.756   0.496  16.155  1.4275 -1.2966 -1.3093
18123TIP3    H275785   0.670   0.457  16.036 -1.4673  1.5762 -0.3039
18124TIP3   OH275786   5.292   4.187  12.885  0.0476 -0.2093  0.1699
18124TIP3    H175787   5.298   4.117  12.821 -1.4741 -2.0011  1.8576
18124TIP3    H275788   5.227   4.248  12.848 -2.2785 -2.1877  0.7414
18125TIP3   OH275789   0.359   5.870  15.996  0.8363 -0.5804 -0.4814
18125TIP3    H175790   0.398   5.785  16.016  1.6632 -0.2300 -0.5593
18125TIP3    H275791   0.379   5.924  16.073 -2.0671 -1.2047  0.8144
18126TIP3   OH275792   1.835   2.411   4.994 -0.5253 -0.5656  0.0640
18126TIP3    H175793   1.751   2.432   4.954 -0.0733 -0.5720 -0.9106
18126TIP3    H275794   1.819   2.330   5.043 -2.0663  1.4202  3.1506
18127TIP3   OH275795   1.970   3.275  13.430 -0.2459  0.3356  0.1520
18127TIP3    H175796   1.974   3.342  13.499  0.4777  1.0746 -0.5910
18127TIP3    H275797   2.039   3.212  13.453  0.5174  0.9928 -0.3054
18128TIP3   OH275798   1.741   1.064   2.540  0.0613 -0.2115  0.1126
18128TIP3    H175799   1.698   1.036   2.459 -2.4359  1.1277  0.8506
18128TIP3    H275800   1.826   1.098   2.512  0.1120 -1.6230 -1.6493
18129TIP3   OH275801   6.074   5.012   3.575  0.6886 -0.0984 -0.6154
18129TIP3    H175802   6.062   4.948   3.505  0.6038  0.9491 -1.5892
18129TIP3    H275803   6.145   5.069   3.543 -1.4350  2.3086 -1.3367
18130TIP3   OH275804   5.074   5.073   1.337  0.1013 -0.3103 -0.6548
18130TIP3    H175805   5.043   5.144   1.280  0.7814  1.8963  1.5384
18130TIP3    H275806   4.995   5.025   1.362 -0.3886 -0.3127 -2.1096
18131TIP3   OH275807   1.939   5.248  15.977 -0.2726 -0.2927 -0.1207
18131TIP3    H175808   2.005   5.281  15.915 -0.4129 -1.5455 -0.9889
18131TIP3    H275809   1.943   5.308  16.051  4.2661 -2.1275  1.4475
18132TIP3   OH275810   2.513   1.025   0.305 -0.2671 -0.3427 -0.5583
18132TIP3    H175811   2.435   1.062   0.347  0.2708  1.7012 -1.2404
18132TIP3    H275812   2.477   0.968   0.236 -1.2495  1.5695 -1.7265
18133TIP3   OH275813   4.942   5.946   1.801  0.8708 -0.2016 -0.0713
18133TIP3    H175814   4.873   5.905   1.853  0.1452 -0.8040 -1.4571
18133TIP3    H275815   4.955   6.031   1.842  0.0629 -0.5124  0.8682
18134TIP3   OH275816   3.543   4.999   2.670  0.0805  0.1901 -0.0029
18134TIP3    H175817   3.604   5.044   2.728 -1.5977  1.7148  0.7049
18134TIP3    H275818   3.457   5.012   2.711 -0.9720 -0.0978 -1.9696
18135TIP3   OH275819   4.060   4.428   1.130  0.1579  0.1643 -0.0731
18135TIP3    H175820   4.082   4.374   1.207  0.9537  2.2066  1.2126
18135TIP3    H275821   3.966   4.417   1.119  0.3716 -1.9128 -0.2316
18136TIP3   OH275822   3.459   4.004   3.556  0.2529 -0.6162 -0.0381
18136TIP3    H175823   3.449   4.081   3.500 -1.2600 -0.2909  0.6332
18136TIP3    H275824   3.406   3.936   3.513  1.1881 -1.1690 -0.3655
18137TIP3   OH275825   2.156   2.251   1.638 -0.5605 -0.5643  0.0553
18137TIP3    H175826   2.074   2.226   1.681 -0.6849  2.7672  2.1962
18137TIP3    H275827   2.224   2.224   1.700 -0.3884  0.2081  0.2160
18138TIP3   OH275828   6.571   2.083  13.658 -0.0986  0.3447  0.0916
18138TIP3    H175829   6.575   2.176  13.679  1.5108  0.5421 -0.9233
18138TIP3    H275830   6.657   2.062  13.622 -1.0200 -1.1137 -1.4344
18139TIP3   OH275831   1.368   5.478   3.211  0.5870 -0.1671 -1.0094
18139TIP3    H175832   1.424   5.466   3.134  0.8307 -2.1537 -0.5854
18139TIP3    H275833   1.288   5.431   3.190  0.4069 -0.1919 -0.3033
18140TIP3   OH275834   0.097   1.234   0.025 -0.4855 -0.5273 -0.4237
18140TIP3    H175835   0.085   1.314   0.078 -1.5096 -1.8720  1.5199
18140TIP3    H275836   0.010   1.217  -0.012 -0.2014 -0.5874 -1.0702
18141TIP3   OH275837   3.359   0.546  14.197  0.0161 -0.0153  0.2256
18141TIP3    H175838   3.272   0.571  14.227 -0.3006 -1.8949  0.9778
18141TIP3    H275839   3.417   0.573  14.267 -0.1002  0.1738  0.2501
18142TIP3   OH275840   1.372   5.737  12.923 -0.2751 -0.2287  0.6589
18142TIP3    H175841   1.358   5.643  12.931  0.6707 -0.3302  1.2003
18142TIP3    H275842   1.293   5.777  12.960 -0.3754 -0.7994  1.0590
18143TIP3   OH275843   1.849   5.282   2.576  0.0983  0.4240  0.0839
18143TIP3    H175844   1.760   5.316   2.573 -0.4420 -0.6359  2.0678
18143TIP3    H275845   1.901   5.346   2.528 -1.6065  1.4517 -0.4823
18144TIP3   OH275846   1.546   0.565   0.026 -0.4758  0.3183  0.1482
18144TIP3    H175847   1.460   0.583  -0.013 -1.1789  0.0683  1.5080
18144TIP3    H275848   1.548   0.618   0.105 -0.3382 -1.3610  1.3263
18145TIP3   OH275849   2.955   3.204  12.672 -0.1001  0.4138  0.5865
18145TIP3    H175850   2.990   3.186  12.584 -0.2063  0.4900  0.5276
18145TIP3    H275851   3.031   3.199  12.729 -0.0641  0.1626  0.5189
18146TIP3   OH275852   1.592   3.033   4.724  0.3771  0.0242 -0.1511
18146TIP3    H175853   1.594   3.020   4.819  1.2142  0.5295 -0.0930
18146TIP3    H275854   1.524   2.973   4.693  1.0021 -1.0923  0.6074
18147TIP3   OH275855   5.120   3.696  12.391  0.3164  0.1692 -0.0977
18147TIP3    H175856   5.030   3.664  12.388  0.6035 -0.9615  1.4543
18147TIP3    H275857   5.173   3.618  12.373  1.0074  0.9794 -1.7881
18148TIP3   OH275858   6.285   1.344   2.510 -0.7010  0.0747  0.3836
18148TIP3    H175859   6.344   1.376   2.579  0.1672  0.9046 -0.7100
18148TIP3    H275860   6.311   1.393   2.432 -1.2563 -1.2883 -0.6920
18149TIP3   OH275861   3.475   3.973  13.903 -0.1197  0.8874 -0.1195
18149TIP3    H175862   3.443   3.903  13.845 -0.3411  1.5170 -0.7860
18149TIP3    H275863   3.426   3.962  13.984  1.2600 -0.9252  0.5233
18150TIP3   OH275864   3.167   3.421  11.607 -0.4219  0.0165  0.1218
18150TIP3    H175865   3.240   3.395  11.664  0.4908  0.4263 -0.8332
18150TIP3    H275866   3.176   3.516  11.597 -0.2646 -0.1083 -1.0979
18151TIP3   OH275867   0.738   2.931  16.641 -0.2640  0.2428 -0.2708
18151TIP3    H175868   0.761   2.996  16.707  0.4928 -2.0524  1.8569
18151TIP3    H275869   0.755   2.846  16.683  1.2915 -1.3786 -3.7239
18152TIP3   OH275870   2.486   2.623  11.358 -0.5215 -0.6755 -0.4401
18152TIP3    H175871   2.392   2.613  11.340 -0.5305 -2.5791  0.4744
18152TIP3    H275872   2.501   2.573  11.438  1.0358  0.7962  0.2600
18153TIP3   OH275873   3.014   4.982  12.583 -0.0382 -0.0484 -0.0529
18153TIP3    H175874   2.934   4.930  12.575 -0.1341  0.1697 -0.5571
18153TIP3    H275875   3.055   4.978  12.497 -0.1403  0.8524 -0.1558
18154TIP3   OH275876   1.675   5.859  14.199  0.7750  0.1798  0.0978
18154TIP3    H175877   1.650   5.809  14.121  0.5090  2.1329 -1.1474
18154TIP3    H275878   1.622   5.938  14.195  0.3865  0.1128  2.5865
18155TIP3   OH275879   2.528   2.860   2.316 -0.0588  0.3348 -0.3265
18155TIP3    H175880   2.563   2.771   2.316 -0.8999 -0.0267  0.7285
18155TIP3    H275881   2.587   2.910   2.259 -0.2219 -1.1276 -1.8305
18156TIP3   OH275882   3.224   6.742  11.344  0.1979 -0.0872  0.0168
18156TIP3    H175883   3.293   6.678  11.322 -0.6871 -1.0476 -0.0615
18156TIP3    H275884   3.246   6.771  11.432  1.5770  0.8148 -0.5899
18157TIP3   OH275885   3.492   5.289   0.043 -0.6054 -0.0664 -0.2444
18157TIP3    H175886   3.530   5.360   0.095 -0.7236  0.0984 -0.3812
18157TIP3    H275887   3.519   5.308  -0.046 -0.6650 -0.1779 -0.2853
18158TIP3   OH275888   1.289   3.742  11.540  0.2947  0.0563  0.4265
18158TIP3    H175889   1.267   3.710  11.453  1.7326 -0.2364  0.1381
18158TIP3    H275890   1.310   3.663  11.590  1.4362  0.3484  0.4349
18159TIP3   OH275891   0.585   6.372   1.010  0.2630 -0.3107 -0.1054
18159TIP3    H175892   0.679   6.361   1.022  0.1082 -0.9306  0.6006
18159TIP3    H275893   0.546   6.309   1.070 -0.6098  0.3396  0.0199
18160TIP3   OH275894   6.245   1.478   3.083  0.3204 -0.0298  0.4633
18160TIP3    H175895   6.210   1.445   3.000  0.0761 -0.9267  0.9147
18160TIP3    H275896   6.168   1.498   3.136  0.4246  2.2928 -0.1548
18161TIP3   OH275897   2.939   4.199  16.908  0.1002 -0.2509  0.1367
18161TIP3    H175898   2.896   4.114  16.908 -0.6553  0.1195 -0.6171
18161TIP3    H275899   3.033   4.178  16.910 -0.0808 -1.0699  1.2109
18162TIP3   OH275900   6.411   2.484   4.401 -0.2581  0.1992 -0.2983
18162TIP3    H175901   6.422   2.485   4.306 -0.8890 -0.8808 -0.3933
18162TIP3    H275902   6.352   2.557   4.419 -2.1132 -1.0650 -1.0192
18163TIP3   OH275903   4.265   1.015   5.774 -0.0021 -0.0463 -0.1473
18163TIP3    H175904   4.232   1.089   5.825 -1.0688  0.4925 -1.5467
18163TIP3    H275905   4.215   0.939   5.806 -0.0222  0.1171  0.2118
18164TIP3   OH275906   1.556   6.568   0.326  0.3404  0.1788  0.9309
18164TIP3    H175907   1.634   6.548   0.378 -0.4359 -2.7143  1.1362
18164TIP3    H275908   1.523   6.650   0.362  2.6789  0.9420  1.5058
18165TIP3   OH275909   0.945   0.645  12.614 -0.4757  0.6068  0.0109
18165TIP3    H175910   1.029   0.610  12.644  0.2612  1.1255 -1.3491
18165TIP3    H275911   0.900   0.569  12.576 -1.2703  0.0201  1.9839
18166TIP3   OH275912   6.023   6.584   2.192 -0.1391 -0.2063 -0.4685
18166TIP3    H175913   5.989   6.673   2.185 -1.7599 -0.7816 -0.3847
18166TIP3    H275914   6.091   6.590   2.259  0.7474  1.2129 -1.4310
18167TIP3   OH275915   2.107   4.719   0.149  0.1880  0.1264  0.0325
18167TIP3    H175916   2.151   4.670   0.080 -2.1249 -2.5002  0.2361
18167TIP3    H275917   2.040   4.771   0.103  0.6338  0.7479  0.0744
18168TIP3   OH275918   1.082   0.454  11.883 -0.0012  0.1588  0.7512
18168TIP3    H175919   1.002   0.413  11.917  0.0847 -1.4373 -0.8072
18168TIP3    H275920   1.151   0.390  11.901  0.1680 -0.3995 -1.6491
18169TIP3   OH275921   1.832   5.006  16.086 -0.3869  0.2346 -0.2960
18169TIP3    H175922   1.890   5.080  16.067 -0.9795  1.3085  1.7311
18169TIP3    H275923   1.797   4.980  16.001  0.2036  1.9872 -1.1221
18170TIP3   OH275924   0.322   2.604  11.120  0.3759 -0.2205 -0.1547
18170TIP3    H175925   0.372   2.616  11.200 -0.9965  0.4901  0.6342
18170TIP3    H275926   0.306   2.693  11.088 -2.1681 -0.2437  0.8046
18171TIP3   OH275927   4.692   5.266   1.329  0.0316  0.7259  0.0575
18171TIP3    H175928   4.625   5.272   1.398  1.2373 -0.4755  1.4094
18171TIP3    H275929   4.652   5.209   1.262 -0.7284  0.9711  0.2884
18172TIP3   OH275930   0.911   6.598   6.177  0.1769  0.0455  0.1091
18172TIP3    H175931   0.870   6.616   6.261  1.4863 -1.9712  1.2448
18172TIP3    H275932   0.914   6.684   6.133 -0.9506  1.0514  1.8892
18173TIP3   OH275933   1.201   1.819   1.608  0.2568 -0.0481 -0.4522
18173TIP3    H175934   1.224   1.874   1.533  0.1057  1.2404  0.4111
18173TIP3    H275935   1.131   1.867   1.653 -0.3163 -1.2616 -0.0061
18174TIP3   OH275936   5.967   1.188  12.941  0.4701  0.3906 -0.0040
18174TIP3    H175937   5.902   1.193  13.011  1.6809  0.0464  1.1732
18174TIP3    H275938   5.940   1.113  12.888 -0.6048  0.8156 -0.0787
18175TIP3   OH275939   4.992   2.873  11.192  0.0556 -0.6794 -0.0468
18175TIP3    H175940   5.046   2.952  11.181 -2.1028  0.9156  0.1064
18175TIP3    H275941   4.959   2.855  11.104  1.0638 -1.8704 -0.2104
18176TIP3   OH275942   5.652   5.466  16.816  0.6797 -0.0167  0.4835
18176TIP3    H175943   5.729   5.482  16.870 -0.5165 -0.1557  2.3366
18176TIP3    H275944   5.589   5.426  16.877 -0.4319 -1.0151 -1.2530
18177TIP3   OH275945   2.162   0.851  15.237 -0.0983  0.7543  0.2430
18177TIP3    H175946   2.251   0.835  15.208  0.1127  1.1005  0.6863
18177TIP3    H275947   2.146   0.785  15.305 -0.5552  0.0098 -0.5693
18178TIP3   OH275948   2.046   2.540  15.600  0.0066 -0.3731  0.4698
18178TIP3    H175949   2.075   2.537  15.509  0.8340 -0.0618  0.7196
18178TIP3    H275950   2.060   2.631  15.627 -0.8652 -0.3044  0.7082
18179TIP3   OH275951   0.757   5.418   5.602  1.2288  0.4033  0.5043
18179TIP3    H175952   0.730   5.334   5.565 -0.8135  0.9691  0.5502
18179TIP3    H275953   0.839   5.400   5.646  0.9874 -1.5059  0.2589
18180TIP3   OH275954   4.889   3.677   5.283 -1.0758  0.1553 -0.1186
18180TIP3    H175955   4.853   3.763   5.263 -2.4690 -0.7131 -1.5231
18180TIP3    H275956   4.849   3.618   5.219 -2.0289 -1.9744  2.2653
18181TIP3   OH275957   4.576   3.405  15.499 -0.3266 -0.0099  0.2365
18181TIP3    H175958   4.646   3.426  15.560 -0.8913  0.1897  0.8228
18181TIP3    H275959   4.508   3.365  15.553 -0.6990 -0.1307 -0.3126
18182TIP3   OH275960   3.962   6.484   1.055  0.5951 -0.6680 -0.0643
18182TIP3    H175961   3.905   6.412   1.084  0.3845 -0.5275 -0.1261
18182TIP3    H275962   3.952   6.485   0.960 -0.3792  0.2397  0.0256
18183TIP3   OH275963   1.182   5.818   0.203 -0.2511 -0.4324  0.6614
18183TIP3    H175964   1.222   5.878   0.266  0.3243  0.8489 -0.8692
18183TIP3    H275965   1.221   5.841   0.119  0.0118 -2.9903 -0.0091
18184TIP3   OH275966   0.426   4.638   5.398 -0.3657  0.0124 -0.0203
18184TIP3    H175967   0.500   4.615   5.341  0.0715  0.1153  0.5024
18184TIP3    H275968   0.358   4.576   5.374 -0.6801  0.9297 -1.6379
18185TIP3   OH275969   4.743   6.195   1.487 -0.5032  0.1055  0.0866
18185TIP3    H175970   4.759   6.105   1.460  0.9099  0.2971  0.1859
18185TIP3    H275971   4.692   6.187   1.568  2.9149 -0.8303  2.3461
18186TIP3   OH275972   6.042   3.321   5.526 -0.1586  0.2067 -0.2074
18186TIP3    H175973   5.961   3.371   5.539 -0.1012  0.2589 -0.0505
18186TIP3    H275974   6.022   3.234   5.560  0.1107  0.4490  0.5744
18187TIP3   OH275975   6.790   6.680   3.929 -0.2711 -0.0933 -0.0694
18187TIP3    H175976   6.820   6.768   3.906  0.9286 -0.3330  0.4784
18187TIP3    H275977   6.797   6.677   4.025 -2.1790 -0.1509  0.1053
18188TIP3   OH275978   1.292   3.905  14.660  0.2602  0.2038 -0.5892
18188TIP3    H175979   1.200   3.896  14.632  0.2627  0.5744 -0.7233
18188TIP3    H275980   1.341   3.911  14.578  0.6052 -1.6693 -0.5779
18189TIP3   OH275981   6.464   3.600   1.475  0.4385 -0.5649 -0.2586
18189TIP3    H175982   6.374   3.600   1.508  1.2399  0.0213  2.1804
18189TIP3    H275983   6.516   3.570   1.550  2.4568  1.1598 -0.8778
18190TIP3   OH275984   2.928   1.945   3.767 -0.7901  0.7782  0.3073
18190TIP3    H175985   2.897   1.989   3.688 -0.6502  0.4803  0.0837
18190TIP3    H275986   2.855   1.889   3.793 -0.6137  0.4223  0.0430
18191TIP3   OH275987   0.137   6.442  16.004  0.1891 -0.5497  0.3323
18191TIP3    H175988   0.213   6.479  16.050  1.8192  2.0008 -3.8401
18191TIP3    H275989   0.062   6.485  16.043  1.2619  0.0513  1.8316
18192TIP3   OH275990   3.374   1.490  14.789  0.2858 -0.1656  0.1060
18192TIP3    H175991   3.380   1.585  14.794  0.1676 -0.0692 -1.2239
18192TIP3    H275992   3.286   1.473  14.757 -0.2747 -0.8121  1.8878
18193TIP3   OH275993   0.556   6.286   2.887  0.4301  0.8068  0.3220
18193TIP3    H175994   0.621   6.347   2.922  1.5389 -0.4109  0.4595
18193TIP3    H275995   0.581   6.201   2.922 -2.4562  0.5453  2.0459
18194TIP3   OH275996   4.542   5.961  13.527 -0.0785  0.2643 -0.0763
18194TIP3    H175997   4.620   6.016  13.525  0.0213  0.1169 -0.2602
18194TIP3    H275998   4.470   6.022  13.512  0.1716  0.1061 -2.2184
18195TIP3   OH275999   3.614   0.977  17.023 -0.6692 -0.3438 -0.2942
18195TIP3    H176000   3.557   1.048  17.053 -0.6021 -0.2160 -0.4717
18195TIP3    H276001   3.616   0.916  17.097 -0.6715 -0.1285 -0.1144
18196TIP3   OH276002   5.039   1.065  14.018  0.2335  0.1062  0.1580
18196TIP3    H176003   4.961   1.012  14.033  0.8388 -0.3989  1.8291
18196TIP3    H276004   5.083   1.067  14.103  1.8018  0.7641 -0.6196
18197TIP3   OH276005   6.427   6.556   2.115  0.6126 -0.6377 -0.3230
18197TIP3    H176006   6.513   6.556   2.074  0.9888 -0.5415  0.4456
18197TIP3    H276007   6.444   6.533   2.207  0.2095  2.0937  0.5498
18198TIP3   OH276008   6.329   4.744  16.173  0.3887 -0.0351  0.6637
18198TIP3    H176009   6.240   4.768  16.145  0.1665 -0.3190  1.1193
18198TIP3    H276010   6.372   4.715  16.093 -0.2561 -0.8853  0.6166
18199TIP3   OH276011   4.529   2.800   4.405 -0.5134 -0.1062 -0.3541
18199TIP3    H176012   4.579   2.733   4.358  0.0573 -1.3481  1.8771
18199TIP3    H276013   4.446   2.756   4.427 -0.7169  0.3991 -0.0959
18200TIP3   OH276014   5.967   1.996  15.778 -0.0396 -0.0973 -0.1041
18200TIP3    H176015   5.911   2.027  15.849 -0.6266 -0.6056 -0.3466
18200TIP3    H276016   5.921   2.020  15.698  1.6083  2.4219 -0.4189
18201TIP3   OH276017   6.633   4.108  12.578 -0.1514 -0.1642  0.2675
18201TIP3    H176018   6.674   4.179  12.530 -0.2822  0.4009  0.9699
18201TIP3    H276019   6.553   4.146  12.613 -1.0574 -1.1194 -0.6922
18202TIP3   OH276020   6.275   6.722  15.358  0.0542 -0.1770  0.2890
18202TIP3    H176021   6.267   6.779  15.434  1.2376 -0.5673  0.7422
18202TIP3    H276022   6.275   6.782  15.283 -2.0633  0.1420  0.4956
18203TIP3   OH276023   3.340   2.694  14.090  0.1098 -0.0393 -0.0521
18203TIP3    H176024   3.390   2.614  14.074  1.3358  0.9532 -1.5238
18203TIP3    H276025   3.392   2.743  14.153  1.5064  1.3500 -2.1763
18204TIP3   OH276026   4.039   6.028  12.293  0.1336  0.1351  0.3263
18204TIP3    H176027   3.985   5.989  12.362 -1.9659  0.5895 -0.9558
18204TIP3    H276028   4.012   6.119  12.290 -0.2457  0.0073 -1.4310
18205TIP3   OH276029   4.945   1.698  13.314 -0.2403 -0.0245  0.2950
18205TIP3    H176030   4.902   1.767  13.364 -3.3555 -1.4443 -0.2352
18205TIP3    H276031   4.931   1.722  13.223  0.8296 -0.1575  0.0757
18206TIP3   OH276032   3.719   0.502   5.783  0.4236  0.0211  0.2329
18206TIP3    H176033   3.746   0.473   5.696  1.5458 -1.1308  0.9342
18206TIP3    H276034   3.697   0.422   5.830 -1.9581  0.7329  0.4972
18207TIP3   OH276035   3.372   5.748   2.645 -0.1992  0.3106 -0.2392
18207TIP3    H176036   3.400   5.657   2.630  0.8543  0.5174  0.3703
18207TIP3    H276037   3.277   5.742   2.656 -0.0581 -0.8579  0.6482
18208TIP3   OH276038   5.917   5.557  12.908  0.0411 -0.8191 -0.2556
18208TIP3    H176039   5.903   5.478  12.960 -0.3515 -0.5982 -0.0247
18208TIP3    H276040   5.905   5.529  12.817 -0.3357 -0.9750 -0.1594
18209TIP3   OH276041   2.587   3.500   3.557  0.7348  0.0278  0.2541
18209TIP3    H176042   2.656   3.565   3.565  0.9267  0.2645 -2.3928
18209TIP3    H276043   2.625   3.431   3.503 -0.7364 -0.3222 -0.3987
18210TIP3   OH276044   4.031   0.502  16.857 -0.2691  0.2053  0.0356
18210TIP3    H176045   3.962   0.445  16.890  2.2081 -1.6356  2.4506
18210TIP3    H276046   4.098   0.443  16.824  0.7210  1.8938 -1.1639
18211TIP3   OH276047   1.697   6.309  14.893  0.3019  0.0268  0.7636
18211TIP3    H176048   1.736   6.394  14.911 -0.9373  0.6572  0.5963
18211TIP3    H276049   1.605   6.319  14.917  0.1125 -1.2440  0.6624
18212TIP3   OH276050   6.676   4.264  13.299 -0.5276 -0.2525 -0.3374
18212TIP3    H176051   6.641   4.177  13.319 -0.9566 -0.1366 -0.5650
18212TIP3    H276052   6.661   4.315  13.378  0.1582 -0.5116 -0.0314
18213TIP3   OH276053   2.804   0.421   0.939 -0.0657  0.2999  0.2495
18213TIP3    H176054   2.758   0.401   0.858  2.1975  1.2513 -1.3899
18213TIP3    H276055   2.884   0.368   0.935  1.0863  1.9013  0.7673
18214TIP3   OH276056   1.376   4.521   3.749 -0.3443 -0.0973 -0.1449
18214TIP3    H176057   1.376   4.577   3.827 -1.1652 -0.7259  0.3264
18214TIP3    H276058   1.433   4.566   3.687  2.3206 -0.7181  1.6287
18215TIP3   OH276059   2.687   4.271  16.249  0.2027 -0.0769 -0.5429
18215TIP3    H176060   2.654   4.347  16.297  0.7708 -1.0241  1.4580
18215TIP3    H276061   2.619   4.254  16.183 -1.3554  0.4285  0.8399
18216TIP3   OH276062   1.170   2.380  15.630 -0.0107 -0.2412  0.5216
18216TIP3    H176063   1.143   2.330  15.553  0.3040  1.5579 -0.8193
18216TIP3    H276064   1.104   2.448  15.639  0.0143 -0.3580  1.8202
18217TIP3   OH276065   5.595   4.035  15.368 -0.1637  0.4676 -0.0476
18217TIP3    H176066   5.688   4.051  15.357  0.0368 -0.2860  0.4800
18217TIP3    H276067   5.584   4.018  15.462 -0.7415  0.0175 -0.1896
18218TIP3   OH276068   1.286   1.391   5.781 -0.0498 -0.1772  0.2650
18218TIP3    H176069   1.205   1.360   5.820 -0.1497 -0.4813 -0.1682
18218TIP3    H276070   1.329   1.312   5.749  0.8536 -0.1272  1.2818
18219TIP3   OH276071   1.839   5.650  15.576 -0.1135  0.1471 -0.0666
18219TIP3    H176072   1.835   5.555  15.584 -2.0395  0.1947 -0.0560
18219TIP3    H276073   1.759   5.674  15.530  1.3300  1.6149 -1.9911
18220TIP3   OH276074   1.012   5.827   1.670  0.1517  0.1791  0.5845
18220TIP3    H176075   1.075   5.879   1.720 -0.2301 -0.7082  2.0268
18220TIP3    H276076   0.931   5.879   1.673 -0.0311 -0.1341  1.4144
18221TIP3   OH276077   6.422   5.543   3.686 -0.0802  0.3397 -0.6225
18221TIP3    H176078   6.478   5.511   3.757 -1.5135 -2.2277 -0.5128
18221TIP3    H276079   6.474   5.530   3.607  0.0711 -0.5800 -0.3833
18222TIP3   OH276080   6.788   4.475   0.915  0.2509 -0.2328  0.9179
18222TIP3    H176081   6.775   4.550   0.973  0.4529 -0.2143  0.9391
18222TIP3    H276082   6.738   4.496   0.836 -0.7216 -0.6275  1.4126
18223TIP3   OH276083   6.239   1.780  15.930  0.0649  0.0093 -0.0324
18223TIP3    H176084   6.261   1.759  16.021  0.3941  0.8615  0.0976
18223TIP3    H276085   6.250   1.698  15.883  1.2037 -0.1506  0.4698
18224TIP3   OH276086   4.882   2.099  11.288 -0.4845 -0.1089 -0.0676
18224TIP3    H176087   4.855   2.051  11.210 -2.9201  2.0365 -0.6660
18224TIP3    H276088   4.948   2.161  11.256  0.0129 -0.5878  0.0104
18225TIP3   OH276089   4.559   2.163  15.654 -0.4673 -0.1951  0.2425
18225TIP3    H176090   4.502   2.129  15.586 -1.7078  0.8643  0.7252
18225TIP3    H276091   4.551   2.258  15.647  0.4496 -0.0459  0.9875
18226TIP3   OH276092   5.481   6.071  12.692  0.0311  0.7494 -0.0851
18226TIP3    H176093   5.486   5.984  12.730  0.5244  1.3405  1.2617
18226TIP3    H276094   5.445   6.057  12.604 -0.3879 -0.7364  0.2985
18227TIP3   OH276095   3.266   5.691  16.496 -0.5030  0.4032 -0.7709
18227TIP3    H176096   3.260   5.634  16.573 -3.6938 -1.4335 -2.2213
18227TIP3    H276097   3.230   5.775  16.526 -1.2679 -0.1416 -0.1213
18228TIP3   OH276098   1.714   6.508   5.778  0.2726 -0.0458 -0.3018
18228TIP3    H176099   1.716   6.458   5.860  1.2727  1.3074  0.5438
18228TIP3    H276100   1.793   6.480   5.731  0.3075  0.0190 -0.2813
18229TIP3   OH276101   0.328   1.139  14.249 -0.0117 -0.5407 -0.2013
18229TIP3    H176102   0.337   1.235  14.250  1.8399 -0.6769  1.3327
18229TIP3    H276103   0.321   1.117  14.156  0.3030  1.0286 -0.6246
18230TIP3   OH276104   3.430   0.596   2.119  0.0529 -0.3409 -0.4275
18230TIP3    H176105   3.393   0.683   2.104  0.7601  0.0243 -0.1354
18230TIP3    H276106   3.464   0.599   2.208  0.7715 -0.6496 -0.6758
18231TIP3   OH276107   4.793   2.194  11.894  0.6443 -0.3616 -0.0682
18231TIP3    H176108   4.884   2.177  11.870 -0.0606  0.1006 -3.6602
18231TIP3    H276109   4.743   2.176  11.814 -2.2466  0.9351  1.2818
18232TIP3   OH276110   5.778   4.326  11.801  0.1110 -0.1847 -0.7772
18232TIP3    H176111   5.734   4.409  11.786  0.1799  0.2179  1.0708
18232TIP3    H276112   5.714   4.260  11.776 -0.8415  0.4136  0.0273
18233TIP3   OH276113   2.965   5.293   1.615  0.0367 -0.6327  0.5768
18233TIP3    H176114   2.909   5.248   1.552  0.3426 -1.0627  0.6036
18233TIP3    H276115   2.933   5.264   1.700 -0.0533 -0.4501  0.6038
18234TIP3   OH276116   3.437   5.381   0.499 -0.1112  0.0102  0.2538
18234TIP3    H176117   3.379   5.430   0.557 -0.3037  1.0878 -0.8130
18234TIP3    H276118   3.516   5.435   0.494  0.6004 -0.9427  0.8816
18235TIP3   OH276119   4.987   2.168  14.031 -0.1034 -0.0205 -0.0666
18235TIP3    H176120   4.986   2.155  14.126 -0.5883  1.1371  0.1026
18235TIP3    H276121   5.079   2.153  14.006 -0.2415 -1.7750  0.3441
18236TIP3   OH276122   3.365   3.245  15.701 -0.1608 -0.6352  0.4152
18236TIP3    H176123   3.278   3.222  15.733 -0.4126 -0.9326 -0.4341
18236TIP3    H276124   3.413   3.162  15.703  0.3026 -0.3632  1.4327
18237TIP3   OH276125   5.491   2.000   1.874  0.1854  0.6293  0.6112
18237TIP3    H176126   5.476   2.090   1.844 -0.2267  0.6238  0.7964
18237TIP3    H276127   5.475   1.946   1.796  1.3676  0.7773  0.2439
18238TIP3   OH276128   0.003   1.941  14.701 -0.3640  0.2892 -0.0445
18238TIP3    H176129   0.073   2.006  14.700 -1.1156  1.2001  1.4279
18238TIP3    H276130  -0.029   1.938  14.611  0.2006  1.3936 -0.3038
18239TIP3   OH276131   5.154   0.728   6.394  0.8433 -0.2659  0.2924
18239TIP3    H176132   5.156   0.639   6.429  2.0749 -0.1602  0.5342
18239TIP3    H276133   5.088   0.774   6.448 -0.3091 -1.1879 -0.2883
18240TIP3   OH276134   5.188   1.902  14.826  0.3650 -0.1162  0.8136
18240TIP3    H176135   5.274   1.945  14.834 -0.1511  1.0296  0.4048
18240TIP3    H276136   5.157   1.895  14.916  0.2591  0.8158  0.8617
18241TIP3   OH276137   0.438   5.324   2.544  0.0490  0.4261  0.0482
18241TIP3    H176138   0.463   5.265   2.472 -1.4103 -1.4995  1.0290
18241TIP3    H276139   0.402   5.401   2.500 -0.2641 -0.4472 -1.2901
18242TIP3   OH276140   3.349   2.455   1.392 -0.6830  0.3874  0.0039
18242TIP3    H176141   3.389   2.433   1.476  2.2609 -0.3752 -1.4654
18242TIP3    H276142   3.293   2.380   1.372  0.4745 -0.5714  0.2282
18243TIP3   OH276143   3.791   6.725  16.822 -0.7652 -0.2859 -0.4003
18243TIP3    H176144   3.765   6.651  16.877  0.7808 -0.6518 -0.1372
18243TIP3    H276145   3.863   6.692  16.769  1.0057  1.4348  0.8122
18244TIP3   OH276146   5.781   5.102  16.274 -0.5552 -0.3381  0.0505
18244TIP3    H176147   5.789   5.198  16.270  0.5336 -0.4599 -1.0485
18244TIP3    H276148   5.860   5.069  16.231 -1.4346 -1.7279 -0.5697
18245TIP3   OH276149   6.080   6.291  15.045  0.5004  0.1976 -0.0123
18245TIP3    H176150   6.088   6.386  15.047  0.2669  0.2104  1.4361
18245TIP3    H276151   6.170   6.259  15.031  1.0970  0.6056  2.4095
18246TIP3   OH276152   1.297   3.771  17.203 -0.1596  1.0603  0.0918
18246TIP3    H176153   1.387   3.804  17.204 -0.2942  1.4396 -0.1665
18246TIP3    H276154   1.248   3.834  17.257 -0.1173  0.3986  0.9372
18247TIP3   OH276155   3.472   4.700   2.747 -0.2203 -0.2053  0.4073
18247TIP3    H176156   3.565   4.692   2.770 -0.0487 -0.3479 -0.3115
18247TIP3    H276157   3.441   4.773   2.800  0.3022 -0.1578  0.6574
18248TIP3   OH276158   2.655   1.011  15.943  0.3208  0.2848 -0.0070
18248TIP3    H176159   2.591   1.040  15.878  1.5313 -0.2423 -1.4966
18248TIP3    H276160   2.736   1.055  15.918  1.2734 -1.4103 -0.0032
18249TIP3   OH276161   0.521   3.757  12.672 -0.1576  0.5128  0.5063
18249TIP3    H176162   0.557   3.805  12.598 -1.6767  2.2120  0.7893
18249TIP3    H276163   0.595   3.709  12.708  1.0686  1.3130 -0.8331
18250TIP3   OH276164   3.615   0.569  16.524 -0.0186 -0.1611  0.1208
18250TIP3    H176165   3.608   0.486  16.572 -0.0193  0.0129  0.4208
18250TIP3    H276166   3.708   0.590  16.526 -0.3131  1.2443  2.4356
18251TIP3   OH276167   2.868   3.110  13.862  0.5924  0.2376 -0.0893
18251TIP3    H176168   2.910   3.147  13.940 -0.2509 -3.3349  2.2715
18251TIP3    H276169   2.776   3.101  13.886  0.0284  0.3173 -2.0712
18252TIP3   OH276170   3.617   5.216  16.779  0.1655 -0.0654 -0.6373
18252TIP3    H176171   3.659   5.277  16.718 -0.2699  1.0695  0.1606
18252TIP3    H276172   3.630   5.256  16.865 -1.8317 -0.0578 -0.2868
18253TIP3   OH276173   2.971   3.039  16.381 -0.0741  0.2303  0.1862
18253TIP3    H176174   3.024   2.975  16.429 -0.8532  0.2284  1.0869
18253TIP3    H276175   2.920   3.084  16.450  0.6948  2.0513 -0.3720
18254TIP3   OH276176   3.922   1.827  13.267  0.3046  0.4260 -0.2492
18254TIP3    H176177   3.884   1.813  13.354 -0.5970  1.0003 -0.5406
18254TIP3    H276178   3.891   1.752  13.215 -2.4579  2.0426 -1.1262
18255TIP3   OH276179   4.559   6.738   4.464  0.0233 -0.3122  0.1652
18255TIP3    H176180   4.599   6.651   4.459  0.1864 -0.2523  0.4335
18255TIP3    H276181   4.616   6.788   4.522  0.6348  0.3676 -0.9790
18256TIP3   OH276182   5.284   4.169   0.767 -0.0849 -0.0831  0.2351
18256TIP3    H176183   5.221   4.123   0.711  0.6753 -0.8190 -0.0557
18256TIP3    H276184   5.234   4.239   0.808 -0.9424 -0.2725 -0.4535
18257TIP3   OH276185   4.234   4.622  15.606 -0.2075 -0.0281 -0.0923
18257TIP3    H176186   4.317   4.641  15.649  0.5028 -1.4574 -0.7870
18257TIP3    H276187   4.257   4.572  15.528 -1.6537  0.3817 -0.8317
18258TIP3   OH276188   1.319   3.997   5.145 -0.0549 -0.0322  0.2184
18258TIP3    H176189   1.280   4.084   5.151  1.0981  0.4383  1.3072
18258TIP3    H276190   1.404   4.012   5.105 -1.1344 -1.1351 -2.7982
18259TIP3   OH276191   6.044   0.261  14.921 -0.0868 -0.1113 -0.3690
18259TIP3    H176192   6.071   0.340  14.874 -0.6501  0.5323  0.3660
18259TIP3    H276193   5.981   0.219  14.863 -0.3966  0.4110 -0.4144
18260TIP3   OH276194   6.379   5.284   5.759  0.0275  0.0782 -0.1754
18260TIP3    H176195   6.303   5.270   5.815 -0.9014  1.6485 -0.9839
18260TIP3    H276196   6.344   5.282   5.669  0.8268  1.2577 -0.5455
18261TIP3   OH276197   3.459   0.595   4.879  0.2427  0.3847  0.5295
18261TIP3    H176198   3.372   0.623   4.849 -1.2277 -2.6053  1.5577
18261TIP3    H276199   3.479   0.519   4.825  2.7364  1.5430 -0.2972
18262TIP3   OH276200   3.596   0.010   1.079  0.2079  0.2238 -0.3257
18262TIP3    H176201   3.663   0.043   1.139  0.0871 -1.4569  0.8035
18262TIP3    H276202   3.537  -0.040   1.135  0.5955 -2.1869 -1.9658
18263TIP3   OH276203   4.155   5.263  15.161 -0.0782  0.1461  0.8504
18263TIP3    H176204   4.149   5.168  15.155  0.6507  0.1153  0.4133
18263TIP3    H276205   4.085   5.296  15.105  0.2388 -0.1377  0.2823
18264TIP3   OH276206   1.729   4.646   1.806  0.4001 -0.7218  0.6062
18264TIP3    H176207   1.812   4.652   1.759 -0.2198 -0.3851 -0.4679
18264TIP3    H276208   1.728   4.724   1.863  0.4845 -0.3082  0.0497
18265TIP3   OH276209   0.197   5.135  15.008 -0.0778  0.4243  0.1009
18265TIP3    H176210   0.154   5.087  14.938 -0.0852  0.7359 -0.1082
18265TIP3    H276211   0.196   5.074  15.083 -0.5161  0.2785 -0.0194
18266TIP3   OH276212   0.443   5.182   5.435 -0.3187  0.2220 -0.4077
18266TIP3    H176213   0.364   5.195   5.486 -0.7442 -1.0038 -0.7199
18266TIP3    H276214   0.511   5.165   5.500 -0.9581 -1.8430 -0.2101
18267TIP3   OH276215   1.034   2.730   3.718 -0.2726  0.1708  0.4526
18267TIP3    H176216   0.953   2.707   3.763  0.2637  0.1156  1.4195
18267TIP3    H276217   1.022   2.822   3.694 -1.0390 -0.1259 -0.3703
18268TIP3   OH276218   4.489   1.835  16.972  0.4738 -0.2928  0.1842
18268TIP3    H176219   4.419   1.803  17.029 -0.1364  0.2194 -0.2527
18268TIP3    H276220   4.518   1.758  16.924  1.1450 -0.7653  1.3428
18269TIP3   OH276221   0.831   1.197  12.078 -0.3188  0.1404  0.3907
18269TIP3    H176222   0.829   1.137  12.152 -0.5757 -0.7813 -0.3547
18269TIP3    H276223   0.924   1.219  12.067  0.0929 -1.8703 -0.6901
18270TIP3   OH276224   4.009   6.420   3.328  0.4198  0.3057 -0.3943
18270TIP3    H176225   3.994   6.327   3.311  2.5951 -0.1303 -0.3016
18270TIP3    H276226   4.053   6.452   3.249  1.4986  0.7399  0.3570
18271TIP3   OH276227   1.339   2.543  13.515  0.9469 -0.3065  0.0878
18271TIP3    H176228   1.390   2.561  13.436  0.9389 -1.8005 -0.2787
18271TIP3    H276229   1.364   2.455  13.540 -1.5067 -1.1454 -0.1462
18272TIP3   OH276230   1.581   2.884   1.006  0.1713  0.3829 -0.1907
18272TIP3    H176231   1.486   2.890   1.017  0.1006 -0.0145 -0.5343
18272TIP3    H276232   1.598   2.790   0.992  0.7335  0.3135  0.8618
18273TIP3   OH276233   4.266   0.956   0.524 -0.2058 -0.4254 -0.3409
18273TIP3    H176234   4.358   0.943   0.546  0.0419  1.5635  0.0053
18273TIP3    H276235   4.264   0.957   0.428  0.1328 -0.4569 -0.3486
18274TIP3   OH276236   1.385   5.803   0.823  0.4218  0.2300 -0.4578
18274TIP3    H176237   1.373   5.896   0.841  1.5472  0.1456  0.9109
18274TIP3    H276238   1.311   5.760   0.868 -0.2079  0.4483 -1.2544
18275TIP3   OH276239   3.742   3.354  15.394  0.1288 -0.2039  0.0621
18275TIP3    H176240   3.813   3.391  15.341 -0.4689  0.2544 -0.4457
18275TIP3    H276241   3.663   3.391  15.356 -0.3208  0.2150  1.3520
18276TIP3   OH276242   1.686   1.130   3.617  0.2739 -0.0272  0.6392
18276TIP3    H176243   1.662   1.152   3.706 -1.0231  1.0160  0.0676
18276TIP3    H276244   1.649   1.200   3.564 -0.5570 -1.5396 -0.8947
18277TIP3   OH276245   1.106   2.284  11.501  0.2591  0.2072 -0.2740
18277TIP3    H176246   1.091   2.312  11.592  0.1431 -0.3040 -0.1269
18277TIP3    H276247   1.167   2.210  11.509 -0.8434 -0.7668 -0.4752
18278TIP3   OH276248   4.297   4.539  16.725  0.1026  0.3789  0.4972
18278TIP3    H176249   4.347   4.605  16.772  1.1960 -0.4193  0.5008
18278TIP3    H276250   4.213   4.580  16.706  0.5392  1.5371  1.0397
18279TIP3   OH276251   0.632   1.750  15.633  0.0530  0.2437  0.7890
18279TIP3    H176252   0.607   1.658  15.624  1.1461  0.0019  0.1125
18279TIP3    H276253   0.682   1.769  15.554  3.1273  0.3212  2.6184
18280TIP3   OH276254   2.054   6.388   1.875  0.4175 -0.5606  0.4641
18280TIP3    H176255   1.973   6.400   1.826  0.8509 -1.2406 -0.4590
18280TIP3    H276256   2.032   6.412   1.965 -0.3804  0.7853 -0.0678
18281TIP3   OH276257   5.368   3.556  16.748  0.5045 -0.4153 -0.2261
18281TIP3    H176258   5.301   3.578  16.813 -0.5522 -1.5203 -0.8875
18281TIP3    H276259   5.451   3.575  16.792 -0.2200  1.7170  0.3599
18282TIP3   OH276260   3.741   0.774  12.815  0.1308  0.2281  0.1038
18282TIP3    H176261   3.716   0.735  12.731 -2.4880  0.3290  0.7494
18282TIP3    H276262   3.754   0.698  12.873  0.1132  0.1913  0.0599
18283TIP3   OH276263   5.082   3.817  15.047  0.5870  0.4433  0.2229
18283TIP3    H176264   5.166   3.849  15.015  1.2941 -1.6298 -0.1310
18283TIP3    H276265   5.104   3.767  15.125 -0.5201  1.1132  0.9883
18284TIP3   OH276266   2.285   6.099   4.925  0.2173 -0.1379  0.3067
18284TIP3    H176267   2.306   6.122   4.834 -1.7151 -1.1951 -0.4746
18284TIP3    H276268   2.350   6.032   4.947 -0.4847 -1.3651 -1.0747
18285TIP3   OH276269   4.545   2.861   4.679 -0.1050 -0.2981 -0.1744
18285TIP3    H176270   4.475   2.799   4.695 -0.3654 -0.0628 -0.3778
18285TIP3    H276271   4.557   2.859   4.584  0.1143 -0.2869 -0.1471
18286TIP3   OH276272   2.408   5.042   4.414  0.2591 -0.0464  0.0228
18286TIP3    H176273   2.327   5.093   4.422  0.6689  0.9404 -1.6351
18286TIP3    H276274   2.473   5.093   4.463  0.3712  0.3759 -0.5477
18287TIP3   OH276275   4.347   6.200   0.124  0.0719  0.9969 -0.0878
18287TIP3    H176276   4.304   6.285   0.137 -1.1344  0.2716  0.8709
18287TIP3    H276277   4.308   6.143   0.190 -1.1709 -1.0609 -2.4399
18288TIP3   OH276278   2.537   2.196  16.365  0.0461  0.0616 -0.0263
18288TIP3    H176279   2.510   2.201  16.273 -0.8610 -0.2591  0.2110
18288TIP3    H276280   2.501   2.113  16.396  0.5748  0.0413  0.5465
18289TIP3   OH276281   6.614   6.414  17.178  0.3602  0.5909 -0.5142
18289TIP3    H176282   6.685   6.350  17.176  0.1375  0.3508 -1.0402
18289TIP3    H276283   6.643   6.481  17.239  0.8327  0.2567 -0.3676
18290TIP3   OH276284   4.064   3.018   2.709 -0.1679 -0.3714  0.2154
18290TIP3    H176285   3.971   3.030   2.688 -0.0462 -0.9398 -0.7104
18290TIP3    H276286   4.107   3.095   2.674  0.0606 -1.4015 -1.9150
18291TIP3   OH276287   2.090   5.101  15.651  0.0636 -1.1572 -0.1257
18291TIP3    H176288   2.022   5.051  15.697 -0.4445 -1.0754 -0.7745
18291TIP3    H276289   2.170   5.085  15.702 -0.9239  1.0505  2.3773
18292TIP3   OH276290   2.962   4.732   2.817  0.1507 -0.2362 -0.8005
18292TIP3    H176291   3.027   4.782   2.767  0.6268 -1.1425 -1.1227
18292TIP3    H276292   2.956   4.649   2.770 -0.1623 -0.7075  0.0695
18293TIP3   OH276293   1.960   5.996  16.703  0.2016 -0.2493  0.5148
18293TIP3    H176294   1.956   6.086  16.671  0.1542 -0.6530 -0.6306
18293TIP3    H276295   2.041   5.961  16.668 -0.6889 -1.2373 -0.6601
18294TIP3   OH276296   5.969   0.380  15.510  0.0620  0.0076  0.1618
18294TIP3    H176297   6.024   0.434  15.453 -0.6935  2.4844  1.6365
18294TIP3    H276298   5.881   0.388  15.474  0.0857 -1.1646 -0.2077
18295TIP3   OH276299   4.615   5.376   4.376 -0.4601 -0.3263 -0.0868
18295TIP3    H176300   4.643   5.287   4.352 -0.5274 -0.5086  0.5048
18295TIP3    H276301   4.696   5.422   4.396 -0.5593 -1.0668  2.3652
18296TIP3   OH276302   2.062   1.370   3.715 -0.2888  0.1385  0.4974
18296TIP3    H176303   2.062   1.466   3.714  1.7738  0.1981  0.8023
18296TIP3    H276304   2.149   1.347   3.747 -0.3595 -1.8534 -0.5854
18297TIP3   OH276305   2.840   2.768   5.103 -0.2263  0.3041 -0.8429
18297TIP3    H176306   2.876   2.833   5.043  1.6902 -0.0819 -0.1740
18297TIP3    H276307   2.846   2.810   5.189  1.4968 -0.8906 -0.3373
18298TIP3   OH276308   0.471   5.189   5.154  0.3065  0.0895  0.5348
18298TIP3    H176309   0.472   5.212   5.247  1.0912  0.9167  0.3355
18298TIP3    H276310   0.462   5.094   5.153 -1.1468  0.1853  1.4245
18299TIP3   OH276311   5.257   2.379   6.087 -0.2545 -0.0076 -0.2643
18299TIP3    H176312   5.297   2.316   6.147  2.2378  0.9930 -0.7652
18299TIP3    H276313   5.330   2.432   6.056 -2.0926  2.4563 -0.6837
18300TIP3   OH276314   1.315   3.175   1.866  0.8197 -0.3117 -0.3254
18300TIP3    H176315   1.300   3.091   1.822  0.3447  0.7886 -2.4270
18300TIP3    H276316   1.246   3.181   1.931 -0.7385 -0.4930 -1.8801
18301TIP3   OH276317   0.754   5.863   2.048  0.5997 -0.0987 -0.4189
18301TIP3    H176318   0.681   5.923   2.034  0.2621 -0.3172  0.3577
18301TIP3    H276319   0.801   5.900   2.124  1.1361 -0.1125 -0.7398
18302TIP3   OH276320   5.425   1.317  12.662 -0.1022 -0.1553 -0.3572
18302TIP3    H176321   5.424   1.337  12.568  2.4626  0.1992 -0.3977
18302TIP3    H276322   5.417   1.402  12.705  0.4686 -0.1171 -0.3152
18303TIP3   OH276323   0.780   6.096   5.301 -0.1558 -0.3460 -0.2587
18303TIP3    H176324   0.689   6.081   5.274 -0.0245 -0.5800 -0.5736
18303TIP3    H276325   0.832   6.076   5.223  0.0123  2.2108 -0.8884
18304TIP3   OH276326   5.397   0.936   4.408 -0.2657 -0.2418  0.7548
18304TIP3    H176327   5.453   0.867   4.442 -0.1129  0.0303  1.0586
18304TIP3    H276328   5.436   1.017   4.440 -0.1766  0.0175  0.0174
18305TIP3   OH276329   4.930   5.268   0.028 -0.4693 -0.0412 -0.5479
18305TIP3    H176330   5.013   5.258   0.076 -0.7289  1.1881  0.2137
18305TIP3    H276331   4.954   5.315  -0.051 -0.3217 -0.4407 -0.7462
18306TIP3   OH276332   1.391   6.559   4.124 -0.6276 -0.0865 -0.0476
18306TIP3    H176333   1.384   6.476   4.075 -1.1177 -0.2181  0.2344
18306TIP3    H276334   1.482   6.563   4.151 -0.3964 -0.1228 -0.7815
18307TIP3   OH276335   5.828   2.168  12.969 -0.3135  0.6859 -0.0764
18307TIP3    H176336   5.900   2.186  13.029  0.7230 -0.0616 -1.0588
18307TIP3    H276337   5.858   2.202  12.885 -1.0277  0.1864 -0.5413
18308TIP3   OH276338   4.258   1.541  16.949  0.3228  0.1878 -0.0726
18308TIP3    H176339   4.234   1.571  17.036  0.4272  1.5921 -0.5105
18308TIP3    H276340   4.214   1.456  16.940  0.4967 -0.0810  1.4174
18309TIP3   OH276341   4.147   4.138   4.065 -0.2085  0.2061  0.0214
18309TIP3    H176342   4.085   4.086   4.115 -0.7076  0.5388 -0.2410
18309TIP3    H276343   4.099   4.218   4.044 -0.0247  0.0403 -1.0465
18310TIP3   OH276344   5.501   6.322   2.453  0.1780  0.3105  0.1564
18310TIP3    H176345   5.503   6.245   2.509  1.1213 -0.9793 -1.5564
18310TIP3    H276346   5.446   6.296   2.379  0.3611  1.3633 -0.3707
18311TIP3   OH276347   2.088   4.326   0.098 -0.1214  0.3686 -0.2905
18311TIP3    H176348   2.131   4.379   0.165  0.1425 -1.4574  1.0766
18311TIP3    H276349   2.044   4.257   0.148 -0.6486 -0.5574 -1.9689
18312TIP3   OH276350   0.059   4.610  15.782  0.3403  0.1439  0.2231
18312TIP3    H176351   0.082   4.701  15.801 -0.2540  0.4829 -0.5943
18312TIP3    H276352   0.119   4.585  15.711  0.8018 -0.2517  0.7472
18313TIP3   OH276353   6.323   2.066  15.439  0.0461  0.3684  0.2180
18313TIP3    H176354   6.284   1.990  15.396  0.4632  0.6870 -0.7497
18313TIP3    H276355   6.296   2.059  15.531 -0.6365 -0.4698 -0.0422
18314TIP3   OH276356   0.466   1.617   1.898 -0.0275 -0.4130 -0.2320
18314TIP3    H176357   0.374   1.643   1.907 -0.2012 -1.0344 -0.1830
18314TIP3    H276358   0.464   1.522   1.891  0.7578 -0.6843  2.1110
18315TIP3   OH276359   4.244   3.576  11.652 -0.5328  0.0634  0.0775
18315TIP3    H176360   4.227   3.555  11.560  2.6113 -0.5651 -0.4818
18315TIP3    H276361   4.231   3.494  11.698  1.5440 -0.6462 -0.4793
18316TIP3   OH276362   6.085   3.610   2.087  0.2866  0.5898 -0.2876
18316TIP3    H176363   6.019   3.647   2.146  0.6621  0.5760  0.1465
18316TIP3    H276364   6.160   3.669   2.095 -0.0426  1.2390 -1.6103
18317TIP3   OH276365   2.713   2.561  15.129  0.1837 -0.5000 -0.1415
18317TIP3    H176366   2.752   2.492  15.183 -0.9438 -0.4784  0.7540
18317TIP3    H276367   2.745   2.643  15.166 -2.2018 -0.3779  1.9757
18318TIP3   OH276368   6.409   5.017  16.205  0.1065  0.3170 -0.2584
18318TIP3    H176369   6.360   4.946  16.247 -0.8221  1.1466  0.1167
18318TIP3    H276370   6.371   5.097  16.242  0.6670  1.0224 -1.1664
18319TIP3   OH276371   6.714   3.551  14.229  0.1413 -0.1072  0.2953
18319TIP3    H176372   6.689   3.459  14.239 -1.4005  0.0320 -1.6284
18319TIP3    H276373   6.645   3.589  14.174 -0.0767  2.5922  2.2080
18320TIP3   OH276374   1.220   3.325  12.608  0.0927  0.5201  0.1692
18320TIP3    H176375   1.269   3.262  12.661 -1.0510 -1.0060 -0.5270
18320TIP3    H276376   1.249   3.309  12.518  0.8029  1.9629  0.1075
18321TIP3   OH276377   5.182   3.084  15.368  0.5285  0.3627  0.0194
18321TIP3    H176378   5.197   3.145  15.296 -1.3648  0.5041 -0.3151
18321TIP3    H276379   5.125   3.131  15.429  1.5501 -0.0017  1.2829
18322TIP3   OH276380   3.904   2.954   4.261 -0.2147  0.2340 -0.1124
18322TIP3    H176381   3.995   2.957   4.292  0.1407  0.3298 -1.1334
18322TIP3    H276382   3.859   3.022   4.312 -0.0827 -0.8066  1.4825
18323TIP3   OH276383   4.119   6.457  16.756 -0.4820  0.6733  0.2204
18323TIP3    H176384   4.191   6.482  16.814 -0.3787  0.1891  0.3091
18323TIP3    H276385   4.120   6.521  16.686  1.0079 -0.2100 -0.6035
18324TIP3   OH276386   5.224   4.482   0.672 -0.2142  0.2480 -0.2858
18324TIP3    H176387   5.170   4.420   0.721 -1.6140  0.6856 -1.2146
18324TIP3    H276388   5.247   4.550   0.736 -0.0061 -0.3930  0.3362
18325TIP3   OH276389   0.828   1.716  13.579  0.3870  0.4626 -0.5481
18325TIP3    H176390   0.830   1.636  13.632 -0.9301  0.4513 -0.4680
18325TIP3    H276391   0.905   1.710  13.523  1.7158  0.3706  1.2046
18326TIP3   OH276392   5.597   6.321  11.736 -0.1516  0.2957 -0.3029
18326TIP3    H176393   5.530   6.253  11.728  0.4406 -0.2028 -1.1353
18326TIP3    H276394   5.586   6.354  11.825 -0.5006 -0.8453  0.0997
18327TIP3   OH276395   1.502   6.545  14.363  0.2734  0.2197  0.3757
18327TIP3    H176396   1.532   6.634  14.347  0.0730  0.2467  0.1415
18327TIP3    H276397   1.538   6.522  14.448 -0.4260  0.8445  0.8443
18328TIP3   OH276398   3.552   2.517  13.112 -0.0726 -0.4905  0.0611
18328TIP3    H176399   3.512   2.595  13.072  0.6700 -0.1369 -0.0106
18328TIP3    H276400   3.602   2.478  13.041  1.9637  0.6152  0.8234
18329TIP3   OH276401   2.886   5.203  16.935  0.2060  0.2522  0.7146
18329TIP3    H176402   2.839   5.214  17.017 -0.1983 -0.1980  0.5473
18329TIP3    H276403   2.828   5.150  16.881 -2.1385  4.7870 -1.9007
18330TIP3   OH276404   4.710   4.222  12.939  0.4001  0.4053 -0.5078
18330TIP3    H176405   4.687   4.139  12.981 -0.6241  0.5238 -0.7860
18330TIP3    H276406   4.749   4.275  13.009 -0.3152  0.2188  0.0490
18331TIP3   OH276407   2.373   4.641   3.242  0.1978 -0.8063  0.3331
18331TIP3    H176408   2.330   4.561   3.271 -0.4698 -0.2554  0.9202
18331TIP3    H276409   2.364   4.640   3.147 -2.1907 -0.1627  0.4787
18332TIP3   OH276410   0.813   2.550   3.226  0.6635  0.1006 -0.0397
18332TIP3    H176411   0.744   2.608   3.256 -0.1175 -0.5502 -0.5259
18332TIP3    H276412   0.883   2.558   3.291 -1.0508 -1.4590  2.1159
18333TIP3   OH276413   0.757   0.866  12.914 -0.1072  0.0429 -0.2791
18333TIP3    H176414   0.723   0.778  12.897  0.4638  0.2063 -2.5910
18333TIP3    H276415   0.849   0.851  12.938 -0.8032 -0.1554  2.5721
18334TIP3   OH276416   3.314   4.264   5.479 -0.3783  0.0574  0.7182
18334TIP3    H176417   3.248   4.275   5.411 -0.7493 -0.4519  0.9909
18334TIP3    H276418   3.280   4.194   5.535 -0.7698  1.3888  2.2346
18335TIP3   OH276419   2.969   0.427  14.969  0.3050  0.1662  0.7050
18335TIP3    H176420   2.945   0.335  14.975 -0.2108  0.3391  1.3991
18335TIP3    H276421   2.885   0.473  14.964  0.5620  0.5904  0.2455
18336TIP3   OH276422   2.002   0.063  17.016 -0.2561 -0.0651 -0.5480
18336TIP3    H176423   2.021  -0.031  17.013  2.1989  0.3515 -3.2682
18336TIP3    H276424   1.983   0.080  17.108 -0.4596 -3.1407  0.1111
18337TIP3   OH276425   3.897   4.309   3.724  0.3212 -0.0135 -0.4637
18337TIP3    H176426   3.899   4.240   3.791  0.0363 -0.2404 -0.6855
18337TIP3    H276427   3.847   4.270   3.652 -1.0728  0.9393 -0.0380
18338TIP3   OH276428   1.725   5.064  17.126  0.1300 -0.7606 -0.7909
18338TIP3    H176429   1.681   5.011  17.193  0.1746 -2.4979 -2.0795
18338TIP3    H276430   1.664   5.065  17.052  0.6489 -0.0026 -1.2133
18339TIP3   OH276431   4.966   1.864  11.423 -0.5211  0.0892  0.1064
18339TIP3    H176432   4.909   1.934  11.390  0.1698  0.7954  0.3974
18339TIP3    H276433   4.982   1.887  11.514 -0.7982 -0.7962  0.3927
18340TIP3   OH276434   1.776   1.582   4.434  0.1982  0.1355  0.0041
18340TIP3    H176435   1.714   1.553   4.501 -0.8461  1.6088 -0.2683
18340TIP3    H276436   1.732   1.564   4.351  0.4717  0.4653 -0.2176
18341TIP3   OH276437   5.352   2.510  16.728 -0.0424  0.1563 -0.1053
18341TIP3    H176438   5.350   2.434  16.671 -0.6583 -0.6034  0.8968
18341TIP3    H276439   5.310   2.481  16.809 -0.9938  1.7687  0.0438
18342TIP3   OH276440   1.828   0.403   3.118  0.0424  0.3317 -0.4651
18342TIP3    H176441   1.903   0.462   3.113  1.9049 -1.9814 -2.8069
18342TIP3    H276442   1.773   0.428   3.043  0.3409 -0.2609 -0.8862
18343TIP3   OH276443   6.649   1.008   0.189  0.0071  0.0956 -0.5719
18343TIP3    H176444   6.588   0.947   0.229  0.9329  0.0632  0.8760
18343TIP3    H276445   6.734   0.964   0.194  1.3424  2.6078  3.5005
18344TIP3   OH276446   1.626   6.720  10.700  0.3727 -0.3472  0.4606
18344TIP3    H176447   1.587   6.736  10.785 -0.6420 -3.2230  0.6384
18344TIP3    H276448   1.717   6.697  10.718  0.4342  0.0309  0.6437
18345TIP3   OH276449   5.996   3.318  12.934 -0.3127 -0.2301  0.1348
18345TIP3    H176450   6.041   3.401  12.919  0.3696 -0.8525 -1.5493
18345TIP3    H276451   5.919   3.341  12.985 -0.2899  1.4850 -0.5326
18346TIP3   OH276452   4.994   3.045   0.689  0.6186  0.9245  0.1201
18346TIP3    H176453   4.905   3.012   0.678  0.9327 -0.1390  0.5812
18346TIP3    H276454   5.026   3.058   0.599  0.8419 -1.1144 -0.1374
18347TIP3   OH276455   5.186   4.398   2.358 -0.8039 -0.0825  0.0597
18347TIP3    H176456   5.242   4.462   2.315 -2.0035  0.0398 -1.4051
18347TIP3    H276457   5.234   4.316   2.352  0.1609  0.3970  0.7920
18348TIP3   OH276458   1.025   5.711  16.750 -0.0691  0.4553  0.5037
18348TIP3    H176459   1.062   5.632  16.711  0.2956  0.4280  0.8945
18348TIP3    H276460   1.051   5.707  16.842  2.1618  2.2587  0.0503
18349TIP3   OH276461   5.886   5.459  13.260 -0.1782 -0.0277 -0.4552
18349TIP3    H176462   5.894   5.402  13.336 -1.4483  0.0030 -0.2699
18349TIP3    H276463   5.858   5.401  13.189 -0.9174  0.2592 -0.4051
18350TIP3   OH276464   3.978   0.502  13.638  0.3486  0.1629  0.4775
18350TIP3    H176465   3.916   0.573  13.652  0.9674  1.9549 -4.1157
18350TIP3    H276466   4.060   0.533  13.676 -0.1603  0.3275  1.4773
18351TIP3   OH276467   3.385   2.568   1.986 -0.2003  0.0852  0.4100
18351TIP3    H176468   3.396   2.662   2.002 -0.7473  0.3506 -0.6543
18351TIP3    H276469   3.294   2.560   1.957 -0.4358 -0.9094  1.3788
18352TIP3   OH276470   0.741   2.994  15.065 -0.0104 -0.1009  0.3288
18352TIP3    H176471   0.826   3.039  15.070 -0.1934  0.1682  3.5026
18352TIP3    H276472   0.761   2.902  15.083 -0.2097 -0.4195 -0.9837
18353TIP3   OH276473   5.433   5.860  14.310  0.1150  0.9535 -0.0763
18353TIP3    H176474   5.444   5.829  14.220  1.9737 -1.2156  0.7797
18353TIP3    H276475   5.410   5.953  14.301  2.2009  1.3440 -2.7715
18354TIP3   OH276476   4.001   4.059  13.481 -0.0826 -0.4941  0.2112
18354TIP3    H176477   4.018   4.117  13.407 -1.8519 -0.5599 -0.2794
18354TIP3    H276478   3.951   3.986  13.444  2.3385 -2.5772  0.7398
18355TIP3   OH276479   4.133   4.007   5.797 -0.0990  0.0690 -0.1109
18355TIP3    H176480   4.091   3.922   5.805 -1.4624  0.8034  1.1266
18355TIP3    H276481   4.093   4.047   5.720  0.1461 -0.2076 -0.3790
18356TIP3   OH276482   1.168   5.484  15.728 -0.1848 -0.4349 -0.3054
18356TIP3    H176483   1.078   5.457  15.745 -0.2379 -0.1758 -0.1726
18356TIP3    H276484   1.213   5.472  15.812 -0.0123 -0.8789 -0.4543
18357TIP3   OH276485   4.897   0.744  15.139  0.6839 -0.0955 -0.4107
18357TIP3    H176486   4.874   0.718  15.050  0.3108 -1.2668  0.0103
18357TIP3    H276487   4.859   0.832  15.149  1.0712  0.2202 -1.5254
18358TIP3   OH276488   6.654   3.180   0.034 -0.7379  0.0205  0.5166
18358TIP3    H176489   6.670   3.219  -0.052  1.1619 -0.2057  0.7287
18358TIP3    H276490   6.584   3.233   0.072  0.3865  1.9681 -0.0085
18359TIP3   OH276491   4.944   5.513   3.330  0.2615  0.2554 -0.4682
18359TIP3    H176492   4.895   5.534   3.410  2.2653  3.7875  0.0302
18359TIP3    H276493   5.013   5.453   3.359  1.6536  2.3454  0.8489
18360TIP3   OH276494   6.143   4.338  10.928  0.1147  0.5427  0.4927
18360TIP3    H176495   6.202   4.405  10.893  1.8146 -0.3656  1.4557
18360TIP3    H276496   6.124   4.281  10.854  0.0921  1.0914  0.0728
18361TIP3   OH276497   0.566   0.891   1.084 -0.3063  0.4050  0.3209
18361TIP3    H176498   0.635   0.845   1.131 -0.8168 -2.6294 -1.5782
18361TIP3    H276499   0.612   0.941   1.016  0.1382  0.6874  0.8231
18362TIP3   OH276500   2.282   3.307   3.137  0.2654 -0.2460 -0.1608
18362TIP3    H176501   2.227   3.279   3.211 -1.3793 -1.1378 -1.6385
18362TIP3    H276502   2.371   3.307   3.172 -0.4069 -1.0432  1.7011
18363TIP3   OH276503   4.067   3.781   1.434 -0.3680  0.3100  0.3540
18363TIP3    H176504   4.129   3.725   1.480  0.5318  0.8280 -0.1783
18363TIP3    H276505   4.023   3.723   1.372  0.3977  0.1319 -0.0418
18364TIP3   OH276506   3.990   6.364  15.972 -0.1643  0.0766  0.2284
18364TIP3    H176507   4.021   6.453  15.992 -0.8145  0.4956 -0.5131
18364TIP3    H276508   3.896   6.375  15.956 -0.2305 -0.7267  0.0209
18365TIP3   OH276509   3.754   1.982   2.758 -0.0579 -0.1591 -0.4859
18365TIP3    H176510   3.755   2.073   2.787  0.5850 -0.0080 -0.9760
18365TIP3    H276511   3.782   1.985   2.666  0.0027 -0.8542 -0.4974
18366TIP3   OH276512   6.232   5.892  11.849 -0.0582  0.0574 -0.4541
18366TIP3    H176513   6.229   5.986  11.834  2.7815  0.3059  0.0016
18366TIP3    H276514   6.189   5.880  11.934  1.6222  1.3056  0.6258
18367TIP3   OH276515   1.730   3.513  16.285  0.1696 -0.0023 -0.0374
18367TIP3    H176516   1.765   3.557  16.208 -0.5162  2.2138  0.8261
18367TIP3    H276517   1.805   3.504  16.343  0.0617  1.5553  0.4021
18368TIP3   OH276518   2.502   3.342  13.499  0.1159  0.6514  0.3374
18368TIP3    H176519   2.447   3.313  13.426  0.8293 -0.6341  0.2855
18368TIP3    H276520   2.446   3.334  13.576 -0.3498  1.1424  0.0550
18369TIP3   OH276521   3.881   5.239   6.031 -0.0052  0.4416 -0.2070
18369TIP3    H176522   3.867   5.285   6.114  0.7305  0.1466  0.0860
18369TIP3    H276523   3.825   5.285   5.969 -1.7705 -0.2861  0.7775
18370TIP3   OH276524   6.130   5.510   5.948  0.3719  0.0020  0.4867
18370TIP3    H176525   6.077   5.432   5.966  1.1034 -0.2454  1.7173
18370TIP3    H276526   6.098   5.542   5.864  1.8115 -3.1197 -1.4211
18371TIP3   OH276527   1.814   1.299  12.812  0.4702 -0.3371  0.3949
18371TIP3    H176528   1.908   1.309  12.797  0.1528  1.2197 -0.8748
18371TIP3    H276529   1.784   1.247  12.737  0.3128 -0.8518  0.8105
18372TIP3   OH276530   6.363   5.482   4.501 -0.2198 -0.1730 -1.1256
18372TIP3    H176531   6.277   5.507   4.537  0.6021  2.1972 -0.6155
18372TIP3    H276532   6.372   5.536   4.422  0.5879 -0.7723 -1.4482
18373TIP3   OH276533   6.770   1.237   2.271 -0.2335  0.1209 -0.5773
18373TIP3    H176534   6.708   1.184   2.320 -0.0156 -0.0094 -0.4409
18373TIP3    H276535   6.820   1.175   2.218  0.2676  0.1441 -0.1459
18374TIP3   OH276536   5.622   6.091  13.600 -0.0041  0.3615  0.2785
18374TIP3    H176537   5.570   6.015  13.574  0.7896 -0.0821 -0.0706
18374TIP3    H276538   5.578   6.166  13.561  0.4493 -0.1613 -1.3082
18375TIP3   OH276539   0.625   2.595  13.830  0.2827  0.3307  0.2760
18375TIP3    H176540   0.574   2.567  13.906 -1.8242  1.3783 -0.6883
18375TIP3    H276541   0.669   2.516  13.799 -1.1927 -0.7337  0.8284
18376TIP3   OH276542   5.489   1.791   4.856 -0.1793 -0.5752 -0.4068
18376TIP3    H176543   5.441   1.715   4.823  0.5773 -1.1302 -0.2672
18376TIP3    H276544   5.505   1.771   4.948 -0.6991  0.1440 -0.1493
18377TIP3   OH276545   5.532   4.411   6.156  0.2128  0.8594  0.4702
18377TIP3    H176546   5.500   4.418   6.246  0.2437  0.7137  0.4934
18377TIP3    H276547   5.469   4.354   6.112  0.1871  0.9460  0.3946
18378TIP3   OH276548   3.404   2.099  14.707  0.1475  0.2934 -0.0333
18378TIP3    H176549   3.353   2.021  14.686  0.1525  0.3740 -0.3645
18378TIP3    H276550   3.488   2.086  14.661 -0.2096  0.9278 -0.9100
18379TIP3   OH276551   5.339   4.816   0.077  0.2301  0.8327 -0.0258
18379TIP3    H176552   5.292   4.811   0.161  1.4383  0.2809  0.6572
18379TIP3    H276553   5.284   4.870   0.021 -0.7685  0.9394  1.0236
18380TIP3   OH276554   0.056   6.642   5.739 -0.4207  0.1414  0.4988
18380TIP3    H176555  -0.026   6.685   5.759 -0.2366  0.4342  0.6257
18380TIP3    H276556   0.048   6.616   5.647 -0.4433  0.6370  0.3619
18381TIP3   OH276557   1.561   2.991   2.409  0.2905  0.4399 -0.1354
18381TIP3    H176558   1.625   2.999   2.480  0.5476  0.2714 -0.3458
18381TIP3    H276559   1.486   2.947   2.449  0.8753 -0.6871 -0.2316
18382TIP3   OH276560   5.036   0.850  17.241  0.2808 -0.8017 -0.1235
18382TIP3    H176561   5.121   0.813  17.216  0.6360  0.6475 -1.2084
18382TIP3    H276562   5.006   0.794  17.313  1.4341 -2.2707 -0.7253
18383TIP3   OH276563   2.777   0.082  15.446  0.2254 -0.6532 -0.0260
18383TIP3    H176564   2.845   0.097  15.511 -0.4031 -3.5471  1.4679
18383TIP3    H276565   2.706   0.141  15.471  0.3003 -1.1649  1.4907
18384TIP3   OH276566   0.111   4.050   4.641 -0.2073 -0.1472  0.2405
18384TIP3    H176567   0.020   4.056   4.671 -0.4755 -1.8875 -0.1211
18384TIP3    H276568   0.112   4.099   4.558 -1.3269 -1.6744 -0.7470
18385TIP3   OH276569   6.644   3.768   2.287 -0.3606 -0.3399 -0.1942
18385TIP3    H176570   6.740   3.771   2.277 -0.4965  1.1895 -1.2191
18385TIP3    H276571   6.629   3.687   2.336  1.4480 -0.6799 -0.1066
18386TIP3   OH276572   5.064   3.166  16.427 -0.2920  0.2542  0.0692
18386TIP3    H176573   4.978   3.131  16.406 -0.0594  0.2656 -0.9454
18386TIP3    H276574   5.053   3.261  16.427  0.1118  0.3528 -2.0204
18387TIP3   OH276575   2.537   6.424  15.883 -0.1960  0.5341 -0.2626
18387TIP3    H176576   2.493   6.347  15.845  0.9514  0.7019 -2.0451
18387TIP3    H276577   2.555   6.398  15.974  1.4607 -1.9325 -1.1870
18388TIP3   OH276578   3.873   3.506   5.048 -0.4894  0.5259  0.0323
18388TIP3    H176579   3.916   3.588   5.073  2.6670 -1.2777  1.1777
18388TIP3    H276580   3.862   3.459   5.131 -1.9710 -0.3376 -0.6267
18389TIP3   OH276581   2.241   3.443   2.149  0.4156 -0.0350  0.3565
18389TIP3    H176582   2.292   3.426   2.070  1.0865 -0.8510  0.9475
18389TIP3    H276583   2.261   3.370   2.207  1.3402  1.4319  1.9912
18390TIP3   OH276584   6.291   3.717  15.003 -0.0058 -0.0321 -0.0964
18390TIP3    H176585   6.270   3.741  14.913 -0.8290 -1.2507 -0.2490
18390TIP3    H276586   6.316   3.624  14.998 -0.6936 -0.3000  1.0096
18391TIP3   OH276587   2.130   0.953   0.535  0.2288 -0.0137  0.0262
18391TIP3    H176588   2.035   0.936   0.532 -0.0634  1.4147  0.2875
18391TIP3    H276589   2.146   0.982   0.624  0.3225  2.7228 -0.8041
18392TIP3   OH276590   3.563   3.247   1.209  0.4795 -0.2602  0.1411
18392TIP3    H176591   3.547   3.161   1.247  0.2839 -0.2271  0.1327
18392TIP3    H276592   3.593   3.229   1.120 -0.0799 -0.3051 -0.0440
18393TIP3   OH276593   4.436   2.258   2.441  0.8661 -0.7380  0.3918
18393TIP3    H176594   4.496   2.328   2.464 -2.1272  2.0627  0.4715
18393TIP3    H276595   4.394   2.234   2.524  0.9421 -1.6865  0.1624
18394TIP3   OH276596   5.502   2.395   0.968  0.1029  0.1450  0.2683
18394TIP3    H176597   5.522   2.319   0.913  1.0018  1.2008 -0.9316
18394TIP3    H276598   5.582   2.447   0.968 -0.4437  1.0261  1.1889
18395TIP3   OH276599   5.092   2.639   2.225 -0.4481  0.3755  0.2778
18395TIP3    H176600   5.154   2.586   2.274  0.7357  0.4310 -1.1097
18395TIP3    H276601   5.141   2.718   2.202 -0.7831  0.1018 -1.4585
18396TIP3   OH276602   5.485   3.538   3.743  0.0924 -0.0220 -0.3135
18396TIP3    H176603   5.476   3.596   3.668  2.2789 -0.5202 -1.0497
18396TIP3    H276604   5.423   3.572   3.808  0.1557  2.1376 -1.3061
18397TIP3   OH276605   5.856   4.261   3.005 -0.3964 -0.0403 -0.3387
18397TIP3    H176606   5.911   4.317   3.060  0.5450  0.2915 -1.5695
18397TIP3    H276607   5.812   4.202   3.066 -0.8015  1.5052  0.9258
18398TIP3   OH276608   4.449   2.008  16.094 -0.1504 -0.0856  0.1434
18398TIP3    H176609   4.478   2.087  16.050  0.6592 -1.1302 -1.2771
18398TIP3    H276610   4.529   1.969  16.129 -0.5714 -0.1713  1.0401
18399TIP3   OH276611   1.055   2.847  14.765  0.5045 -0.2420  0.0717
18399TIP3    H176612   1.091   2.817  14.682  1.7955 -0.0664  0.5597
18399TIP3    H276613   1.126   2.837  14.828 -0.6835 -1.1161  1.3436
18400TIP3   OH276614   5.246   3.120  10.427 -0.2560  0.5090  0.3621
18400TIP3    H176615   5.286   3.061  10.363  2.0842  0.3520  1.8474
18400TIP3    H276616   5.240   3.204  10.382 -0.0159  0.0546 -0.5340
18401TIP3   OH276617   1.584   2.446  12.790  0.2079 -0.3922  0.0992
18401TIP3    H176618   1.675   2.465  12.811  0.3876 -0.7353 -0.3602
18401TIP3    H276619   1.583   2.436  12.695 -0.2169 -0.8661  0.1482
18402TIP3   OH276620   4.364   6.355  13.682 -0.2814  0.2696  0.2346
18402TIP3    H176621   4.291   6.417  13.673 -0.3782  0.1035 -0.1157
18402TIP3    H276622   4.393   6.367  13.773 -0.9669  0.0855  0.4859
18403TIP3   OH276623   0.182   4.986  16.890 -0.7498 -0.1993  0.5576
18403TIP3    H176624   0.124   4.917  16.922 -0.0096 -0.5234  1.2420
18403TIP3    H276625   0.155   5.000  16.799 -1.2687 -1.0170  0.5789
18404TIP3   OH276626   0.399   6.015  11.354 -0.2002  0.3979 -0.4855
18404TIP3    H176627   0.438   6.064  11.282  1.0567 -0.7756 -0.6573
18404TIP3    H276628   0.380   6.081  11.421  3.2431  1.0260  0.1018
18405TIP3   OH276629   4.757   2.559  12.912 -0.0817  0.3104  0.9037
18405TIP3    H176630   4.661   2.556  12.913 -0.1404 -0.3882 -1.4481
18405TIP3    H276631   4.779   2.586  12.823  1.9436 -2.3473  0.4739
18406TIP3   OH276632   3.928   1.029   3.951 -0.1448 -0.6919 -0.0701
18406TIP3    H176633   3.930   1.076   3.868 -3.9042 -1.3955 -0.7352
18406TIP3    H276634   3.898   0.941   3.929  2.0871 -2.0404  1.7228
18407TIP3   OH276635   1.228   6.562  16.452  0.4001 -0.0464 -0.2132
18407TIP3    H176636   1.272   6.623  16.393  1.4313  0.0445  0.6216
18407TIP3    H276637   1.157   6.612  16.491  1.8350  0.9814  1.2142
18408TIP3   OH276638   4.386   0.245   3.220  0.3938 -0.2878 -0.4334
18408TIP3    H176639   4.356   0.309   3.285 -0.7056 -2.3372  1.1779
18408TIP3    H276640   4.370   0.288   3.136  1.5117  2.3063  0.5610
18409TIP3   OH276641   5.366   4.988  12.752  0.9771 -0.3462  0.5864
18409TIP3    H176642   5.308   4.918  12.722  2.4511 -1.2885 -0.2021
18409TIP3    H276643   5.338   5.006  12.842  0.4463 -1.8523  0.7467
18410TIP3   OH276644   3.623   1.539  16.104 -0.1477 -0.0039  0.0001
18410TIP3    H176645   3.718   1.546  16.112  0.2455 -1.6384 -2.2006
18410TIP3    H276646   3.606   1.555  16.011 -2.0859  0.5947  0.4181
18411TIP3   OH276647   5.886   1.322  14.832  0.2475  0.4332  0.4301
18411TIP3    H176648   5.819   1.318  14.764  0.0647 -0.0744  0.6296
18411TIP3    H276649   5.853   1.386  14.895 -0.0593  0.1773  0.5321
18412TIP3   OH276650   2.018   6.579  12.309 -0.5493  0.1164  0.6302
18412TIP3    H176651   1.986   6.517  12.374 -0.0321  1.3197  2.0830
18412TIP3    H276652   1.998   6.665  12.344 -1.8119  0.8417 -1.6329
18413TIP3   OH276653   5.402   2.499   3.928  0.3168  0.4110  0.4426
18413TIP3    H176654   5.408   2.531   4.019 -0.2508 -0.6316  0.8674
18413TIP3    H276655   5.408   2.404   3.936 -3.9608 -0.1329 -0.1157
18414TIP3   OH276656   0.152   0.617  13.306  0.0499 -0.7904  0.5809
18414TIP3    H176657   0.058   0.621  13.287 -0.1512  0.0449  1.6558
18414TIP3    H276658   0.158   0.633  13.400  1.3588  0.4634  0.3229
18415TIP3   OH276659   2.177   6.209   3.866 -0.0217 -0.0863 -0.2136
18415TIP3    H176660   2.131   6.126   3.867  1.5439 -1.0776  2.7588
18415TIP3    H276661   2.158   6.248   3.952  1.7564  1.0990 -0.2968
18416TIP3   OH276662   3.719   0.560  12.629 -0.0744  0.1207  0.1329
18416TIP3    H176663   3.697   0.495  12.695  0.9787  0.1472  0.5258
18416TIP3    H276664   3.803   0.531  12.593 -0.2008  0.5897 -0.5722
18417TIP3   OH276665   6.418   4.635   0.340 -0.2672  0.4953  0.1176
18417TIP3    H176666   6.494   4.681   0.375  1.2819 -0.8213 -1.3497
18417TIP3    H276667   6.443   4.610   0.251 -1.2099 -2.6067  0.5833
18418TIP3   OH276668   4.193   3.319  17.132 -0.2089 -0.5054  0.4925
18418TIP3    H176669   4.263   3.315  17.197 -0.9566  1.0407  1.4416
18418TIP3    H276670   4.120   3.271  17.171 -0.1415 -0.9267  0.1065
18419TIP3   OH276671   0.710   6.449  11.759 -0.0200  0.1392  0.4182
18419TIP3    H176672   0.641   6.482  11.817  0.4578 -0.2334  1.2088
18419TIP3    H276673   0.754   6.528  11.728 -1.1865  0.4261 -0.6082
18420TIP3   OH276674   5.991   5.374  12.346  0.4262 -0.0180 -0.0863
18420TIP3    H176675   5.975   5.336  12.259 -1.8331 -0.0462  0.2874
18420TIP3    H276676   6.018   5.300  12.400 -0.4019 -0.4394 -0.2334
18421TIP3   OH276677   0.234   0.059  12.008 -0.1327  0.0186  0.3554
18421TIP3    H176678   0.273   0.051  12.095 -2.3842 -0.0028  1.4382
18421TIP3    H276679   0.197   0.147  12.007  1.5267  0.7567 -1.3726
18422TIP3   OH276680   6.067   2.885   6.589 -0.1882  0.4541 -0.1267
18422TIP3    H176681   5.975   2.861   6.572  0.3063 -0.4164 -1.7962
18422TIP3    H276682   6.086   2.953   6.524  0.3480  0.6622  0.2447
18423TIP3   OH276683   2.146   1.010   3.573 -0.5294  0.0987  0.2965
18423TIP3    H176684   2.093   1.090   3.574  0.0280  0.4656  0.6121
18423TIP3    H276685   2.220   1.031   3.516 -0.0691  0.0060  0.8629
18424TIP3   OH276686   3.081   0.788  16.371 -0.6897  0.2661 -0.0293
18424TIP3    H176687   3.069   0.702  16.330 -0.2625  0.2864 -0.1956
18424TIP3    H276688   3.123   0.769  16.455  0.8105  0.4212 -0.7171
18425TIP3   OH276689   6.588   6.385   5.802 -0.7523 -0.9108  0.0930
18425TIP3    H176690   6.555   6.475   5.798 -0.1702 -0.7278 -1.2894
18425TIP3    H276691   6.535   6.338   5.737  0.2437 -1.1023 -0.6089
18426TIP3   OH276692   2.390   0.515   1.815  0.0432 -0.2712  0.0205
18426TIP3    H176693   2.401   0.441   1.875 -2.3293  0.2213  1.1863
18426TIP3    H276694   2.452   0.498   1.744 -0.8404 -3.7131 -0.0937
18427TIP3   OH276695   0.998   5.070  15.215 -0.1341  0.3823 -0.0940
18427TIP3    H176696   0.918   5.083  15.164 -0.0294 -0.2898 -0.4460
18427TIP3    H276697   1.064   5.045  15.150  0.3567  0.9044  0.1969
18428TIP3   OH276698   1.028   2.968  17.147  0.0836 -0.1449 -0.5199
18428TIP3    H176699   0.967   3.041  17.156 -0.7492 -0.9401  0.5623
18428TIP3    H276700   1.079   2.989  17.069 -0.9231  1.0148 -0.8972
18429TIP3   OH276701   2.991   5.427  13.899 -0.6418  0.0431  0.4828
18429TIP3    H176702   2.934   5.439  13.975 -0.4199  1.1571  0.4923
18429TIP3    H276703   3.077   5.411  13.937 -1.0706 -2.6602  0.4855
18430TIP3   OH276704   3.273   6.207   0.181  0.1599  0.1721 -0.1631
18430TIP3    H176705   3.292   6.120   0.215  0.1747  0.1454 -0.2388
18430TIP3    H276706   3.221   6.249   0.250  2.6354  1.1894  1.2277
18431TIP3   OH276707   0.047   3.328  16.784 -0.1876  0.3885  0.7151
18431TIP3    H176708   0.025   3.268  16.713  1.9866  1.2041 -0.7748
18431TIP3    H276709   0.021   3.414  16.750  0.6511  0.7558  0.9769
18432TIP3   OH276710   0.990   2.085   0.306  0.0733  0.2370 -0.3074
18432TIP3    H176711   0.981   2.021   0.375  1.4154  1.4326  1.0517
18432TIP3    H276712   0.911   2.140   0.313 -1.1015 -1.2163 -1.5103
18433TIP3   OH276713   0.178   4.512   4.733  0.5883  0.2876  0.4575
18433TIP3    H176714   0.160   4.604   4.752  0.7816  0.3129  0.5215
18433TIP3    H276715   0.092   4.471   4.729  0.2224  1.0471 -2.6040
18434TIP3   OH276716   4.294   5.831   2.577 -0.2144 -1.0142 -0.1873
18434TIP3    H176717   4.217   5.779   2.555  0.5176 -2.6961  0.9971
18434TIP3    H276718   4.328   5.790   2.657  1.6539 -0.0414 -0.4342
18435TIP3   OH276719   4.722   4.123   2.934  0.4129  0.1059  0.0131
18435TIP3    H176720   4.792   4.148   2.995  1.5327 -2.1399 -0.2827
18435TIP3    H276721   4.664   4.067   2.986  0.1577 -0.0246 -0.4109
18436TIP3   OH276722   2.488   4.435   2.573 -0.4280 -0.6810 -0.0099
18436TIP3    H176723   2.530   4.521   2.576  1.0844 -1.3999  1.5163
18436TIP3    H276724   2.473   4.413   2.665 -2.3566 -1.3493 -0.4479
18437TIP3   OH276725   5.472   6.077  14.141 -0.7725 -0.5412  0.2224
18437TIP3    H176726   5.474   6.034  14.055  0.2527 -1.8682  0.8761
18437TIP3    H276727   5.407   6.147  14.131 -0.2357 -0.2727 -1.8053
18438TIP3   OH276728   3.339   6.371  11.423  0.5136  0.6190 -0.2230
18438TIP3    H176729   3.407   6.433  11.450  0.4818 -0.1246  1.7551
18438TIP3    H276730   3.280   6.367  11.498 -1.3970  0.7614 -1.6515
18439TIP3   OH276731   0.594   0.776  15.522  0.2301 -0.3318 -0.2417
18439TIP3    H176732   0.523   0.723  15.485  1.2020 -0.8409 -1.4205
18439TIP3    H276733   0.674   0.737  15.487  1.0984  0.3708  0.8923
18440TIP3   OH276734   2.958   0.129   1.664  0.0206 -0.4543  0.3575
18440TIP3    H176735   3.005   0.188   1.724  1.0328 -0.3944 -0.4630
18440TIP3    H276736   2.938   0.183   1.588  1.2324 -1.2138 -0.5394
18441TIP3   OH276737   1.391   5.276   6.521  0.0151 -0.3264 -0.2943
18441TIP3    H176738   1.330   5.350   6.517 -1.6301 -1.4230  1.9284
18441TIP3    H276739   1.446   5.294   6.597 -0.0869 -1.1505 -0.0154
18442TIP3   OH276740   5.571   6.356   1.837 -0.2054  0.1496 -0.5894
18442TIP3    H176741   5.513   6.396   1.772 -0.8194 -0.9974 -0.7719
18442TIP3    H276742   5.656   6.399   1.822 -0.8706  1.4918 -0.6433
18443TIP3   OH276743   6.031   1.490   3.530  0.2175 -0.3539 -0.4268
18443TIP3    H176744   6.038   1.585   3.521  0.1255 -0.3642 -0.6302
18443TIP3    H276745   5.937   1.472   3.519  0.0283 -0.3299  1.0358
18444TIP3   OH276746   6.150   2.689  12.278  0.1337  0.5078  0.4117
18444TIP3    H176747   6.055   2.698  12.268  0.2339  2.2620  0.8721
18444TIP3    H276748   6.173   2.747  12.350  1.2729 -1.6787  1.9247
18445TIP3   OH276749   1.678   4.366   5.274  0.0462  0.0799 -0.1589
18445TIP3    H176750   1.663   4.423   5.199  1.1433  1.3486  0.5439
18445TIP3    H276751   1.653   4.279   5.244  0.6396  0.5229 -2.0578
18446TIP3   OH276752   6.360   0.142   5.852 -0.4474 -0.1104  0.3172
18446TIP3    H176753   6.407   0.189   5.783  1.2324  1.4119  2.3584
18446TIP3    H276754   6.340   0.209   5.917  0.6469 -1.8947  2.6444
18447TIP3   OH276755   5.630   3.339  13.538  0.1235  0.3634  0.0046
18447TIP3    H176756   5.704   3.355  13.596  0.5488 -1.6757  0.1167
18447TIP3    H276757   5.670   3.322  13.453  0.1476 -3.3606  0.5799
18448TIP3   OH276758   2.423   0.669  15.103  0.0787  0.1304  0.5202
18448TIP3    H176759   2.479   0.744  15.088  0.6283 -0.3324  0.2353
18448TIP3    H276760   2.412   0.629  15.017 -1.9447  1.0688  0.2704
18449TIP3   OH276761   0.311   0.087   0.550 -0.4575 -0.4673 -0.2285
18449TIP3    H176762   0.253   0.037   0.493  0.4338 -1.1587 -0.5626
18449TIP3    H276763   0.359   0.020   0.599 -3.0336  0.0227  3.3719
18450TIP3   OH276764   1.661   1.663  15.824 -0.5960 -0.2142  0.2967
18450TIP3    H176765   1.634   1.697  15.909  0.6988  1.7160 -0.0025
18450TIP3    H276766   1.581   1.628  15.785 -1.8528  1.7148  1.0172
18451TIP3   OH276767   4.839   3.547  11.883 -0.2502  0.1422  0.1564
18451TIP3    H176768   4.786   3.502  11.948 -1.9320 -1.9548 -2.4387
18451TIP3    H276769   4.927   3.509  11.893 -1.4755 -3.6985 -1.5760
18452TIP3   OH276770   3.007   0.241  16.329 -0.2164 -0.3094  0.0776
18452TIP3    H176771   2.946   0.248  16.255  2.0772 -0.6450 -1.9650
18452TIP3    H276772   2.995   0.152  16.362  0.0461 -0.8115 -1.1428
18453TIP3   OH276773   4.913   4.464  10.492 -0.2911 -0.4478  0.1400
18453TIP3    H176774   4.853   4.406  10.539  0.2402 -0.6285  0.6041
18453TIP3    H276775   4.892   4.450  10.400  0.3437 -1.9590  0.1956
18454TIP3   OH276776   5.006   1.738   2.943  0.0275 -0.1112  1.0335
18454TIP3    H176777   5.088   1.732   2.895 -0.6162  0.4105 -0.1577
18454TIP3    H276778   5.032   1.759   3.033  1.1583  0.7674  0.5200
18455TIP3   OH276779   0.452   3.079   5.176  0.0951 -0.2553 -0.4661
18455TIP3    H176780   0.386   3.029   5.225 -1.6356 -0.2010 -2.5817
18455TIP3    H276781   0.517   3.014   5.151 -0.4328 -0.8161 -0.4161
18456TIP3   OH276782   3.694   0.504   1.730 -0.4714  0.1877  0.0486
18456TIP3    H176783   3.707   0.418   1.690  0.4711 -0.0643  0.8556
18456TIP3    H276784   3.636   0.487   1.804  0.9723 -0.0668  1.1743
18457TIP3   OH276785   4.432   3.013  10.727  0.1956 -0.0350 -0.0373
18457TIP3    H176786   4.425   2.971  10.641  0.2931  0.2995 -0.2114
18457TIP3    H276787   4.523   2.997  10.753 -0.5261 -2.4982  1.2454
18458TIP3   OH276788   3.917   4.559  12.047  0.4948  0.3283 -0.5316
18458TIP3    H176789   3.931   4.646  12.011 -0.3626  0.2970 -0.9560
18458TIP3    H276790   4.005   4.523  12.056  0.8613  1.2658 -0.2618
18459TIP3   OH276791   5.625   2.545   1.469  0.5020 -0.2566 -0.2676
18459TIP3    H176792   5.696   2.608   1.476  3.1384 -2.9590 -0.3574
18459TIP3    H276793   5.611   2.515   1.559 -1.0454  0.7065 -0.1581
18460TIP3   OH276794   6.211   0.125   3.125  0.7106  0.2827  0.0696
18460TIP3    H176795   6.268   0.191   3.164 -1.3728  0.6144  2.8793
18460TIP3    H276796   6.216   0.050   3.185  0.8823 -1.0582 -1.5509
18461TIP3   OH276797   0.940   5.864  15.476 -0.2908 -0.1359 -0.2523
18461TIP3    H176798   0.847   5.841  15.475 -0.2807 -0.1721 -0.3380
18461TIP3    H276799   0.973   5.828  15.559 -0.0251 -1.4201 -0.8913
18462TIP3   OH276800   3.928   2.655   4.544  0.3510  0.5099  0.1718
18462TIP3    H176801   3.922   2.751   4.548 -0.2282  0.4523  0.8360
18462TIP3    H276802   3.896   2.625   4.629  2.4552 -0.2111  0.7807
18463TIP3   OH276803   0.956   2.856   3.178 -0.3202 -0.7209  0.1401
18463TIP3    H176804   1.021   2.918   3.211  0.8002 -0.4570 -2.3287
18463TIP3    H276805   0.963   2.781   3.237  0.9944 -0.0215  0.9403
18464TIP3   OH276806   3.844   3.055  13.565 -0.4667  0.0294  0.4018
18464TIP3    H176807   3.821   3.121  13.499 -0.0592  0.0731  0.2990
18464TIP3    H276808   3.882   3.106  13.637  1.3809 -0.2102 -0.3549
18465TIP3   OH276809   5.873   3.889  13.586 -0.4269  0.8236 -0.1412
18465TIP3    H176810   5.899   3.829  13.656  0.1716  1.2287 -0.0101
18465TIP3    H276811   5.906   3.974  13.614  1.7521  0.6598 -1.9018
18466TIP3   OH276812   0.581   4.819   6.147 -0.6973 -0.3697 -0.2863
18466TIP3    H176813   0.525   4.891   6.175  1.1263  0.6764  0.8669
18466TIP3    H276814   0.546   4.742   6.192 -0.9830  0.3237  0.7077
18467TIP3   OH276815   5.930   2.226  14.002  0.0483 -0.2046 -0.1017
18467TIP3    H176816   5.945   2.182  13.918  1.2601 -1.3901  0.6906
18467TIP3    H276817   5.983   2.305  13.997  0.2482 -0.3550 -0.3999
18468TIP3   OH276818   2.560   5.180   1.799 -0.4965 -0.2801 -0.0523
18468TIP3    H176819   2.467   5.160   1.790 -0.4992 -0.2363 -0.1247
18468TIP3    H276820   2.602   5.132   1.728 -0.3857 -0.8238  0.3767
18469TIP3   OH276821   4.678   6.252  14.410 -0.1435 -0.4605 -0.0945
18469TIP3    H176822   4.631   6.213  14.336 -0.6063  1.9199 -1.1450
18469TIP3    H276823   4.617   6.246  14.483 -1.3678  0.8001 -0.9591
18470TIP3   OH276824   6.224   5.444   0.039 -0.1668 -0.1697  0.0198
18470TIP3    H176825   6.148   5.501   0.028 -2.0330 -2.7627 -1.8211
18470TIP3    H276826   6.227   5.392  -0.042  2.5487 -1.3850  0.7709
18471TIP3   OH276827   5.489   5.461  14.762 -0.4869 -0.6037 -0.1624
18471TIP3    H176828   5.401   5.494  14.742 -1.1247 -2.2664 -0.2557
18471TIP3    H276829   5.482   5.422  14.849 -0.4175 -2.5952 -1.0042
18472TIP3   OH276830   2.955   0.256   1.404 -0.2645  0.3499 -0.2108
18472TIP3    H176831   3.042   0.221   1.387 -0.0627  0.6519  0.1951
18472TIP3    H276832   2.966   0.351   1.402 -0.6575  0.3947 -0.5234
18473TIP3   OH276833   6.206   6.526  16.473 -0.9506 -0.4574 -0.3925
18473TIP3    H176834   6.241   6.605  16.433 -0.1033 -0.2530  0.7090
18473TIP3    H276835   6.264   6.456  16.442 -0.3780 -0.3186  0.3377
18474TIP3   OH276836   6.696   2.642  11.659 -0.1614  0.4557  0.0153
18474TIP3    H176837   6.625   2.621  11.599  0.5672  1.8421 -1.3972
18474TIP3    H276838   6.654   2.689  11.731 -0.6200  1.9501 -1.1824
18475TIP3   OH276839   1.212   4.751  15.727 -0.3262 -0.5933  0.1746
18475TIP3    H176840   1.294   4.760  15.775 -0.7227 -0.2088  0.8003
18475TIP3    H276841   1.227   4.679  15.666  0.3194 -0.8304  0.6075
18476TIP3   OH276842   6.529   5.776  12.471  0.1747  0.3800  0.1367
18476TIP3    H176843   6.468   5.828  12.418  0.8209  0.2851 -0.7326
18476TIP3    H276844   6.609   5.830  12.474 -0.1073  0.7497  1.7127
18477TIP3   OH276845   0.076   1.926  11.816  0.2033 -0.0589 -0.3981
18477TIP3    H176846   0.124   1.941  11.735 -1.7112  0.2757 -1.5238
18477TIP3    H276847   0.028   1.845  11.801 -0.2226  0.0388  0.3730
18478TIP3   OH276848   1.713   4.992   3.372 -0.5841  0.2884  0.1244
18478TIP3    H176849   1.654   4.966   3.443 -0.2384 -1.9670 -0.3166
18478TIP3    H276850   1.798   5.003   3.414 -0.5326 -0.3241  0.1948
18479TIP3   OH276851   0.506   2.614  17.180  0.3260 -0.3583  0.3154
18479TIP3    H176852   0.585   2.624  17.127  1.0248  0.0602  1.4248
18479TIP3    H276853   0.436   2.603  17.115  1.2258 -0.3624 -0.6865
18480TIP3   OH276854   6.159   1.750  10.348  0.7715  0.1811  0.2410
18480TIP3    H176855   6.066   1.764  10.366  0.5602 -0.3573 -0.4080
18480TIP3    H276856   6.161   1.677  10.286  1.6064  0.4443 -0.0570
18481TIP3   OH276857   5.017   0.558  11.537  0.7105  0.4955 -0.3490
18481TIP3    H176858   4.947   0.584  11.597  1.3389  0.0694  0.6010
18481TIP3    H276859   4.986   0.584  11.451  0.0189  1.6443  0.2190
18482TIP3   OH276860   2.585   2.403   3.075 -0.0067 -0.0687 -0.5758
18482TIP3    H176861   2.496   2.370   3.089  1.0543 -3.3218 -0.6522
18482TIP3    H276862   2.623   2.407   3.163  0.0449  0.5555 -0.6210
18483TIP3   OH276863   2.585   4.919   6.469  0.4140  0.2798 -0.9302
18483TIP3    H176864   2.655   4.868   6.429  0.4972 -0.8604  0.5499
18483TIP3    H276865   2.626   4.960   6.546 -0.7972 -1.5500  0.7778
18484TIP3   OH276866   1.247   2.190   0.396 -0.5311  0.1580 -0.1375
18484TIP3    H176867   1.235   2.281   0.425 -1.4637  0.0130 -0.0292
18484TIP3    H276868   1.159   2.162   0.369 -0.5629 -1.1875  1.2313
18485TIP3   OH276869   3.698   6.763  16.317  0.0230  0.2426  0.3248
18485TIP3    H176870   3.638   6.774  16.243 -0.7126  1.0234  1.0149
18485TIP3    H276871   3.691   6.845  16.367  1.1313  0.0654  0.8134
18486TIP3   OH276872   0.022   0.356   5.511  0.3801 -0.7001  0.4733
18486TIP3    H176873   0.038   0.401   5.594 -0.7922 -0.7147  0.7233
18486TIP3    H276874  -0.063   0.388   5.482  1.1434 -0.0447 -1.1804
18487TIP3   OH276875   4.359   0.248  10.918 -0.1899 -0.2620  0.2608
18487TIP3    H176876   4.299   0.312  10.881  0.3164  0.4333  0.6213
18487TIP3    H276877   4.350   0.258  11.013 -1.3322 -1.8851  0.3713
18488TIP3   OH276878   1.205   2.095   5.746  0.0231 -0.1316  0.0933
18488TIP3    H176879   1.195   2.087   5.841  0.9922 -0.9019  0.1543
18488TIP3    H276880   1.247   2.179   5.733  3.7535 -1.6900  0.7436
18489TIP3   OH276881   4.315   3.837   5.634 -0.1517 -0.2280  0.7145
18489TIP3    H176882   4.293   3.834   5.541 -0.3986 -1.4384  0.8040
18489TIP3    H276883   4.257   3.905   5.670 -0.6376 -0.3354  0.1457
18490TIP3   OH276884   5.564   6.657  11.791  0.0588  0.3162  0.0407
18490TIP3    H176885   5.626   6.641  11.719  0.3083 -2.9661  0.8314
18490TIP3    H276886   5.480   6.625  11.757  0.2408 -1.5620  1.2110
18491TIP3   OH276887   3.467   1.555   3.677  0.6354 -0.4841  0.6404
18491TIP3    H176888   3.523   1.515   3.610  2.2502  1.5826  0.6446
18491TIP3    H276889   3.516   1.632   3.706 -1.2102  0.1329  2.3501
18492TIP3   OH276890   2.762   0.052   0.824  0.7114 -0.3204  0.1713
18492TIP3    H176891   2.797  -0.027   0.784 -0.2061  0.2505 -1.8816
18492TIP3    H276892   2.791   0.123   0.768  1.0371  0.7830  1.6617
18493TIP3   OH276893   5.595   4.309   2.570 -0.4072 -0.5120  0.3634
18493TIP3    H176894   5.629   4.345   2.652  0.8995 -1.0447  0.0799
18493TIP3    H276895   5.662   4.248   2.541 -0.6718 -0.0648 -1.2996
18494TIP3   OH276896   4.313   3.333  12.843 -0.1243  0.1376  0.0883
18494TIP3    H176897   4.320   3.388  12.921  0.9945 -0.6352  0.5578
18494TIP3    H276898   4.220   3.338  12.819  0.0718  2.9202 -0.4416
18495TIP3   OH276899   5.543   5.708   6.085 -0.5256 -0.0105  0.7547
18495TIP3    H176900   5.472   5.745   6.139 -0.9358 -1.4850  1.2959
18495TIP3    H276901   5.509   5.622   6.058  0.7767 -0.4306  0.4109
18496TIP3   OH276902   0.573   2.674   0.738 -0.1798 -0.2743 -0.2648
18496TIP3    H176903   0.510   2.733   0.779 -0.9887 -1.2344 -0.1166
18496TIP3    H276904   0.597   2.612   0.807 -0.5143 -1.0603 -0.8392
18497TIP3   OH276905   4.388   4.484   2.641 -0.0867  0.4222 -0.4598
18497TIP3    H176906   4.358   4.511   2.554  0.9380  0.8373 -0.6914
18497TIP3    H276907   4.480   4.461   2.630  0.0949  0.5956  0.5284
18498TIP3   OH276908   4.301   4.080  13.753  0.3550  0.0903 -0.7700
18498TIP3    H176909   4.243   4.148  13.720 -0.3202 -0.1120 -0.0244
18498TIP3    H276910   4.278   4.001  13.705 -0.6483 -0.2116  0.1650
18499TIP3   OH276911   0.826   4.838  12.369  0.6095  0.0941 -0.1570
18499TIP3    H176912   0.907   4.836  12.420  0.6970 -0.2030 -0.3047
18499TIP3    H276913   0.854   4.821  12.279  0.0773 -3.2890  0.2021
18500TIP3   OH276914   2.831   2.734   4.320 -0.3246 -0.1254  0.2266
18500TIP3    H176915   2.784   2.763   4.242  0.2573 -0.5647 -0.2961
18500TIP3    H276916   2.834   2.639   4.313  0.6983 -0.1042  0.2040
18501TIP3   OH276917   1.525   0.921   0.749  0.3295  0.0398 -0.1317
18501TIP3    H176918   1.457   0.859   0.775  0.4629 -0.1057 -0.1256
18501TIP3    H276919   1.478   0.992   0.705  0.3165 -0.7884 -1.4996
18502TIP3   OH276920   2.969   5.898   3.807 -0.4790 -0.4728 -0.2079
18502TIP3    H176921   2.955   5.956   3.883 -1.8128 -0.3505 -0.5248
18502TIP3    H276922   3.003   5.956   3.739 -1.8977 -0.0238 -0.5534
18503TIP3   OH276923   1.163   4.225  16.159 -0.0730  0.0871  0.7434
18503TIP3    H176924   1.240   4.187  16.202 -0.6382 -0.0594  1.6401
18503TIP3    H276925   1.090   4.171  16.188 -0.7041  1.0353  0.9614
18504TIP3   OH276926   0.935   0.062  12.976 -0.1872  0.6318  0.2784
18504TIP3    H176927   0.847   0.102  12.977 -0.2184  1.3016 -4.3348
18504TIP3    H276928   0.919  -0.031  12.959 -0.0290  0.7221 -0.3821
18505TIP3   OH276929   3.164   5.089  10.666 -0.1441 -0.3176  0.8751
18505TIP3    H176930   3.124   5.032  10.601 -1.6519 -0.2630  1.7005
18505TIP3    H276931   3.258   5.068  10.663 -0.2109 -0.5300 -1.0585
18506TIP3   OH276932   6.291   5.055   3.881  0.2261 -0.3136  0.0327
18506TIP3    H176933   6.332   5.092   3.959 -0.0364  1.2124 -0.4995
18506TIP3    H276934   6.268   4.966   3.905 -0.6733  0.4014  2.0107
18507TIP3   OH276935   1.985   3.756  14.081  0.5025  0.2866  0.6311
18507TIP3    H176936   1.991   3.835  14.135  0.5461  0.9056 -0.2619
18507TIP3    H276937   2.048   3.770  14.011  0.0526 -0.2596  0.1092
18508TIP3   OH276938   5.273   0.731  17.151 -0.3043 -0.0373  0.2418
18508TIP3    H176939   5.225   0.721  17.068 -0.5139  0.4821  0.2974
18508TIP3    H276940   5.352   0.677  17.140 -0.3105  0.0642 -0.3100
18509TIP3   OH276941   0.105   0.890   1.621 -0.9063  0.0442  0.0116
18509TIP3    H176942   0.123   0.801   1.590  1.1265  0.3277  0.2039
18509TIP3    H276943   0.011   0.902   1.608 -1.5788 -2.7079  1.5240
18510TIP3   OH276944   3.486   1.956  16.114 -0.2057 -0.0901  0.7044
18510TIP3    H176945   3.538   2.006  16.176  0.0663  0.8405 -0.2449
18510TIP3    H276946   3.512   1.865  16.128  1.4379  0.3187  0.4804
18511TIP3   OH276947   3.792   3.858  15.374  0.7383 -0.3497 -0.1706
18511TIP3    H176948   3.806   3.803  15.451  0.7613  0.2509  0.2654
18511TIP3    H276949   3.797   3.947  15.408 -0.1713 -0.0853 -0.7052
18512TIP3   OH276950   5.172   2.614  14.612 -0.6039  0.1932 -0.1032
18512TIP3    H176951   5.192   2.699  14.571 -1.6406  0.4161 -0.1698
18512TIP3    H276952   5.146   2.558  14.539  0.6169 -0.3668 -0.1305
18513TIP3   OH276953   2.319   5.007  13.153 -0.3208  0.0023 -0.7017
18513TIP3    H176954   2.374   5.077  13.119  2.7844 -0.2999  2.9486
18513TIP3    H276955   2.236   5.050  13.176 -0.4475  1.2564 -3.2390
18514TIP3   OH276956   2.382   2.820   3.505  0.3448  0.3419  0.4465
18514TIP3    H176957   2.415   2.889   3.448 -0.0569  0.3704  0.2471
18514TIP3    H276958   2.337   2.867   3.575  0.7183  0.3026  0.7180
18515TIP3   OH276959   2.821   2.000   4.127  0.2188  0.5824 -0.4092
18515TIP3    H176960   2.916   2.008   4.115  0.5296 -0.2871  1.1263
18515TIP3    H276961   2.806   2.038   4.214 -0.7417  0.1495 -0.3831
18516TIP3   OH276962   3.120   0.081  11.133  0.1973 -0.1006 -0.0762
18516TIP3    H176963   3.206   0.123  11.126  0.3040 -0.2524  0.2716
18516TIP3    H276964   3.127   0.026  11.212 -0.6272  0.8774  0.7128
18517TIP3   OH276965   2.433   1.024   1.082 -0.2259 -0.5153 -0.3960
18517TIP3    H176966   2.357   0.978   1.116  0.0963 -1.2690 -0.6716
18517TIP3    H276967   2.474   1.063   1.160  0.4450 -2.1249  0.1056
18518TIP3   OH276968   4.034   6.234  14.366  0.0386 -0.4150 -1.0749
18518TIP3    H176969   4.004   6.263  14.453  0.6251  0.6027 -1.2003
18518TIP3    H276970   4.075   6.149  14.382  0.7219  0.0524 -0.2289
18519TIP3   OH276971   4.101   2.020   1.137 -0.4299 -0.1716  0.1833
18519TIP3    H176972   4.117   1.989   1.047 -1.3379 -4.9897  1.4095
18519TIP3    H276973   4.189   2.041   1.170 -0.0336  1.2709 -1.5869
18520TIP3   OH276974   6.238   5.523  16.702 -0.4102  0.0768 -0.1210
18520TIP3    H176975   6.244   5.603  16.754  0.0627 -0.2565  0.3510
18520TIP3    H276976   6.301   5.535  16.631  1.5903 -0.8823  1.3683
18521TIP3   OH276977   5.718   2.908  11.649  0.0985  0.1108  0.0286
18521TIP3    H176978   5.755   2.962  11.719  1.8164 -1.2669  0.2615
18521TIP3    H276979   5.734   2.818  11.678  2.4594 -0.5412 -2.8843
18522TIP3   OH276980   5.775   1.005   2.145  0.1085 -0.0523  0.3333
18522TIP3    H176981   5.699   0.965   2.103 -0.5825  0.3574  1.1667
18522TIP3    H276982   5.749   1.095   2.162  1.3316  0.5480 -0.7224
18523TIP3   OH276983   5.512   6.759   1.577 -0.1282 -0.5696 -0.0442
18523TIP3    H176984   5.587   6.811   1.547 -1.4128  1.1577 -0.3824
18523TIP3    H276985   5.522   6.755   1.672 -1.0122  2.0444  0.2322
18524TIP3   OH276986   3.193   0.136  10.738  0.5531  0.0417  0.1133
18524TIP3    H176987   3.238   0.057  10.709 -0.5035 -0.5435  0.0346
18524TIP3    H276988   3.175   0.121  10.831  2.2911  1.1361  0.6849
18525TIP3   OH276989   4.418   0.307  11.697  0.2875 -0.2397 -0.3490
18525TIP3    H176990   4.338   0.351  11.725 -0.9189 -2.5750  0.0788
18525TIP3    H276991   4.424   0.326  11.603 -0.6133  0.2050 -0.3296
18526TIP3   OH276992   6.588   3.477  12.189 -0.2465 -0.1647 -0.0727
18526TIP3    H176993   6.577   3.388  12.153 -0.1335 -0.4816  0.6634
18526TIP3    H276994   6.664   3.470  12.247 -1.3667 -0.0657  1.4677
18527TIP3   OH276995   5.541   3.287   2.910 -0.4895  0.4473  0.3303
18527TIP3    H176996   5.545   3.214   2.972 -1.3039 -0.3725 -0.5584
18527TIP3    H276997   5.478   3.348   2.949  0.9461  1.1933  1.5802
18528TIP3   OH276998   3.853   1.402  13.330  0.2730  0.3748 -0.0394
18528TIP3    H176999   3.768   1.374  13.363 -1.2264  1.1447 -2.9012
18528TIP3    H277000   3.902   1.321  13.319 -0.6635 -0.2488  0.2594
18529TIP3   OH277001   4.989   5.411   4.944  0.5981 -0.0805  0.3614
18529TIP3    H177002   4.929   5.446   4.878  0.6701  1.5552  1.1272
18529TIP3    H277003   4.986   5.316   4.930  0.1726  0.1689 -1.5980
18530TIP3   OH277004   2.167   4.233   6.767  0.4985 -0.4117  0.3092
18530TIP3    H177005   2.202   4.320   6.783  0.1974 -0.5040  1.5949
18530TIP3    H277006   2.232   4.173   6.804  0.4734 -0.7145 -0.1289
18531TIP3   OH277007   6.014   0.595  13.261 -0.0768 -0.0104 -0.7129
18531TIP3    H177008   6.109   0.601  13.260  0.0043  0.3660  2.1259
18531TIP3    H277009   5.997   0.501  13.270  0.0844  0.0441  0.2133
18532TIP3   OH277010   2.820   1.014   2.676  0.0250 -0.3775  0.3733
18532TIP3    H177011   2.891   1.026   2.613  0.5482  2.3899  1.3577
18532TIP3    H277012   2.847   0.939   2.729  3.8394  2.2433  2.6155
18533TIP3   OH277013   3.012   0.809   1.325 -0.4251  0.7068  0.3986
18533TIP3    H177014   3.081   0.840   1.384 -0.2627 -0.4032  0.8260
18533TIP3    H277015   3.058   0.751   1.264 -0.6676  1.5183 -0.5589
18534TIP3   OH277016   3.407   2.494  15.801  0.1149  0.0689 -0.4161
18534TIP3    H177017   3.462   2.424  15.836  0.0154  0.2042  0.0175
18534TIP3    H277018   3.330   2.448  15.767 -0.4490  0.0503  0.8464
18535TIP3   OH277019   2.894   1.137   1.321  0.6545 -0.0394  0.3394
18535TIP3    H177020   2.868   1.081   1.394 -2.6959 -1.4642 -1.7237
18535TIP3    H277021   2.951   1.203   1.361  2.3201 -3.0648  3.4227
18536TIP3   OH277022   0.390   5.952   6.223 -0.0286  0.3347  0.2783
18536TIP3    H177023   0.424   5.870   6.257  2.1931  1.2911  0.5239
18536TIP3    H277024   0.388   6.011   6.299 -2.2881  0.3722  0.2724
18537TIP3   OH277025   0.529   6.585   4.506  0.4995  0.3175 -0.1101
18537TIP3    H177026   0.546   6.669   4.548  1.3673 -0.5552  1.3381
18537TIP3    H277027   0.614   6.560   4.469  1.0039 -1.2293  1.9481
18538TIP3   OH277028   5.271   2.802   5.340  0.0066 -0.3849  1.1541
18538TIP3    H177029   5.367   2.804   5.336 -0.0123 -0.5211 -1.4112
18538TIP3    H277030   5.247   2.879   5.390  1.4422  0.9301 -0.0767
18539TIP3   OH277031   1.957   4.027  11.664  0.5224 -1.0058  0.4471
18539TIP3    H177032   1.939   3.948  11.614 -1.2056 -0.1705 -0.3254
18539TIP3    H277033   2.003   4.085  11.603 -2.3784  0.3664 -0.6006
18540TIP3   OH277034   2.042   5.223  14.628  0.3936 -0.1978  0.2777
18540TIP3    H177035   2.136   5.210  14.616  0.1669 -0.3069 -1.6755
18540TIP3    H277036   2.015   5.154  14.689  1.6533  0.1945  1.3174
18541TIP3   OH277037   4.523   1.937   2.096  0.7722  0.0675 -0.0997
18541TIP3    H177038   4.595   1.916   2.156 -0.0009 -0.5664  0.6301
18541TIP3    H277039   4.502   2.029   2.114  0.9390  0.0512  0.1707
18542TIP3   OH277040   4.695   2.306  13.475  0.1040  0.3205  0.0013
18542TIP3    H177041   4.693   2.212  13.457 -1.0564  0.4024 -0.3488
18542TIP3    H277042   4.604   2.329  13.494  0.1273  1.6459 -1.3201
18543TIP3   OH277043   1.962   5.309   6.586 -0.0505  0.7840  0.1779
18543TIP3    H177044   2.053   5.335   6.571  0.1402  0.4879  0.7836
18543TIP3    H277045   1.949   5.319   6.681 -1.1730  2.4574 -0.1128
18544TIP3   OH277046   3.000   0.600  15.310 -0.2533  0.1597  0.1235
18544TIP3    H177047   3.042   0.672  15.263  0.2492 -0.5894 -0.6038
18544TIP3    H277048   2.981   0.636  15.397 -1.5833  1.7226 -0.7357
18545TIP3   OH277049   4.477   6.312  16.860 -0.3021  0.3062 -0.4939
18545TIP3    H177050   4.426   6.393  16.858 -1.7662 -0.5834 -0.6343
18545TIP3    H277051   4.462   6.276  16.947 -0.2698 -0.1665 -0.6776
18546TIP3   OH277052   4.808   2.492  11.917  0.0851  0.2406  0.2885
18546TIP3    H177053   4.830   2.524  11.829  0.2919  0.1007  0.2871
18546TIP3    H277054   4.781   2.401  11.903  2.1976 -0.5032  0.6029
18547TIP3   OH277055   5.958   3.692  16.737 -0.3870  0.0953  0.3867
18547TIP3    H177056   5.871   3.657  16.719  0.0283 -0.4398 -0.7047
18547TIP3    H277057   6.017   3.621  16.710  0.3954  0.6723  0.5658
18548TIP3   OH277058   6.521   5.753   2.974 -0.1663 -0.3214  0.1544
18548TIP3    H177059   6.431   5.772   3.000 -0.4454  1.0554 -1.6424
18548TIP3    H277060   6.574   5.779   3.049 -1.1506  0.6415  0.5384
18549TIP3   OH277061   2.258   1.885  12.967  0.3873 -0.6453  0.5568
18549TIP3    H177062   2.174   1.880  13.012  0.3925  0.9619  0.7754
18549TIP3    H277063   2.237   1.916  12.879  0.7837  0.2646  0.7714
18550TIP3   OH277064   5.069   3.434  11.908  0.4717 -0.1114 -0.4674
18550TIP3    H177065   5.093   3.424  12.000 -0.3224 -0.5451 -0.2949
18550TIP3    H277066   5.129   3.378  11.860  1.6984  1.0463 -0.3525
18551TIP3   OH277067   3.776   4.398  14.146 -0.1663 -0.3384 -0.0585
18551TIP3    H177068   3.854   4.355  14.181  0.4430  1.0697  0.4154
18551TIP3    H277069   3.703   4.344  14.176  0.5386 -0.7828  0.9200
18552TIP3   OH277070   1.983   6.039   1.406 -0.6421 -0.1058 -0.7769
18552TIP3    H177071   1.972   5.991   1.488  0.0328  0.2054 -0.4980
18552TIP3    H277072   1.966   5.974   1.338  0.2259 -0.7431 -0.4035
18553TIP3   OH277073   2.667   3.115  16.447 -0.0462 -0.0344  0.2174
18553TIP3    H177074   2.728   3.109  16.520 -0.5155 -0.1850  0.6054
18553TIP3    H277075   2.720   3.096  16.369  0.2121 -1.1039  0.6328
18554TIP3   OH277076   5.790   4.051  16.742  0.1506  0.3275 -0.3407
18554TIP3    H177077   5.719   4.115  16.734 -0.4007 -0.0767  1.1559
18554TIP3    H277078   5.752   3.969  16.711  0.0086  0.1480  0.2997
18555TIP3   OH277079   0.083   5.793   0.824  0.0826  0.4500 -0.0648
18555TIP3    H177080   0.014   5.851   0.856 -0.9992  0.0590 -1.5723
18555TIP3    H277081   0.164   5.844   0.832 -0.5081  1.2751  0.7980
18556TIP3   OH277082   0.334   5.442   5.128 -0.1569  0.0641 -0.7301
18556TIP3    H177083   0.391   5.366   5.115 -0.0729  0.2417 -1.4615
18556TIP3    H277084   0.288   5.424   5.209 -1.6245 -1.7437 -1.8757
18557TIP3   OH277085   3.084   1.965   4.794 -0.4325 -0.1322  0.2080
18557TIP3    H177086   3.065   1.882   4.751  0.5805  0.3475 -1.2682
18557TIP3    H277087   3.177   1.960   4.816 -0.0289  1.0642 -1.0680
18558TIP3   OH277088   2.340   3.155   0.817 -0.7532  0.8099 -0.0734
18558TIP3    H177089   2.248   3.130   0.802 -0.6543  1.2629 -1.5170
18558TIP3    H277090   2.334   3.241   0.857 -0.9875 -0.0039  1.7653
18559TIP3   OH277091   4.109   2.709   5.771 -0.2401 -0.0182  0.7711
18559TIP3    H177092   4.191   2.721   5.723 -0.0608 -0.0216  1.0749
18559TIP3    H277093   4.052   2.779   5.739 -1.6212 -2.3657 -2.5401
18560TIP3   OH277094   0.399   2.164   4.487  0.6303 -0.2272 -0.3164
18560TIP3    H177095   0.309   2.134   4.477 -0.1601  0.2412  3.6271
18560TIP3    H277096   0.394   2.258   4.469  0.4069 -0.2692 -0.4824
18561TIP3   OH277097   6.371   1.790  14.994 -0.0518  0.0488  0.0266
18561TIP3    H177098   6.400   1.832  14.913 -0.5009 -0.7008 -0.5398
18561TIP3    H277099   6.345   1.862  15.051  4.4673  0.9651  1.3077
18562TIP3   OH277100   4.371   4.427  13.701  0.1352 -0.4378  0.0689
18562TIP3    H177101   4.302   4.361  13.700  0.3015 -0.6129 -0.8511
18562TIP3    H277102   4.452   4.377  13.704  0.2439 -0.2404  0.6066
18563TIP3   OH277103   4.396   1.199  16.889 -0.2076  0.1191 -0.8140
18563TIP3    H177104   4.328   1.260  16.860 -0.6332 -1.0197 -2.3527
18563TIP3    H277105   4.414   1.144  16.813 -0.5315 -2.3180  0.7357
18564TIP3   OH277106   4.512   2.252  17.250  0.6749 -0.3408 -0.1097
18564TIP3    H177107   4.530   2.344  17.269  0.4855 -0.3348  0.0414
18564TIP3    H277108   4.417   2.245  17.256  0.7296 -0.6568  0.3689
18565TIP3   OH277109   0.002   0.866   0.741 -0.4324 -0.6923  0.2760
18565TIP3    H177110   0.085   0.911   0.756  0.6421 -1.9359 -1.5595
18565TIP3    H277111  -0.063   0.936   0.740  0.8907  0.5979 -0.4786
18566TIP3   OH277112   1.736   4.371   3.933  0.0140 -0.0565  0.8387
18566TIP3    H177113   1.789   4.370   4.013 -1.3336  0.3972  1.7623
18566TIP3    H277114   1.734   4.463   3.906 -0.5386 -0.0255  0.9758
18567TIP3   OH277115   5.487   3.351  17.198  0.7639  0.0058 -0.3316
18567TIP3    H177116   5.483   3.282  17.264 -1.7187 -1.2283 -1.6454
18567TIP3    H277117   5.494   3.305  17.115 -0.9538  1.2543 -1.2437
18568TIP3   OH277118   6.091   0.365   1.069  0.1391  0.4990 -0.0997
18568TIP3    H177119   6.175   0.379   1.026 -0.1595 -0.2093 -0.9503
18568TIP3    H277120   6.034   0.433   1.033 -0.1024 -0.0745 -0.8254
18569TIP3   OH277121   0.505   6.271  17.029  0.5580  0.0926  0.0396
18569TIP3    H177122   0.566   6.205  16.999  1.2757  0.8470 -0.2104
18569TIP3    H277123   0.473   6.313  16.949 -1.5560 -1.3568  0.0541
18570TIP3   OH277124   5.098   4.612   4.677 -0.0146 -0.4468 -0.4721
18570TIP3    H177125   5.060   4.550   4.739 -0.3335  0.0340 -0.1844
18570TIP3    H277126   5.168   4.562   4.633  0.8526 -0.5278  0.9309
18571TIP3   OH277127   3.697   6.703   0.613 -0.1022 -0.4461  0.2754
18571TIP3    H177128   3.654   6.672   0.693 -1.2243 -0.8521 -0.4582
18571TIP3    H277129   3.690   6.799   0.619  0.3539 -0.4425  0.9326
18572TIP3   OH277130   4.668   1.739   1.220 -0.0838 -0.0584 -0.5609
18572TIP3    H177131   4.746   1.794   1.230 -0.0854  0.0568 -1.1417
18572TIP3    H277132   4.616   1.783   1.154 -0.5796 -0.2158 -0.2790
18573TIP3   OH277133   0.257   1.602   3.436  0.2239 -0.0023  0.0521
18573TIP3    H177134   0.311   1.526   3.458  3.1272  1.4174 -1.6329
18573TIP3    H277135   0.204   1.572   3.362  0.1290 -0.8369  0.4404
18574TIP3   OH277136   6.045   5.487  14.553  0.2231  0.1005  0.0463
18574TIP3    H177137   6.045   5.458  14.644  3.2110  1.8814  0.7453
18574TIP3    H277138   5.958   5.525  14.540 -1.5826 -3.3607  0.9391
18575TIP3   OH277139   1.369   6.367  11.721 -0.1957  0.7916 -0.0038
18575TIP3    H177140   1.334   6.439  11.774 -1.5837 -0.1439  0.4024
18575TIP3    H277141   1.364   6.399  11.631 -2.4347  0.6066  0.0079
18576TIP3   OH277142   0.986   1.116   2.333 -0.1124 -0.1274  0.5849
18576TIP3    H177143   1.044   1.174   2.284 -0.9625  1.7755  1.6987
18576TIP3    H277144   0.929   1.077   2.267 -0.1767  1.1282 -0.1356
18577TIP3   OH277145   4.813   1.157  15.588  0.2596 -0.2346  0.1167
18577TIP3    H177146   4.742   1.193  15.641  0.0583  1.0466 -0.9730
18577TIP3    H277147   4.791   1.065  15.577 -1.3308  0.1673 -0.3328
18578TIP3   OH277148   2.304   3.085   4.089  0.0853 -0.1253 -0.2313
18578TIP3    H177149   2.233   3.148   4.107  0.0158  0.3868 -2.1256
18578TIP3    H277150   2.384   3.137   4.093  0.1130 -0.1219 -0.8592
18579TIP3   OH277151   6.059   3.799  15.116 -0.2916 -0.3261  0.2491
18579TIP3    H177152   6.000   3.766  15.049  0.8889  0.0600 -1.0092
18579TIP3    H277153   6.147   3.786  15.081  0.3277  0.7001  1.3252
18580TIP3   OH277154   2.101   0.747  15.783  0.1570 -0.5365  0.0200
18580TIP3    H177155   2.112   0.825  15.837 -1.3078  0.4933 -1.0711
18580TIP3    H277156   2.033   0.772  15.719  2.3561 -1.3729 -2.8523
18581TIP3   OH277157   2.965   2.566  11.833  0.2211 -0.1021 -0.5110
18581TIP3    H177158   3.030   2.530  11.894  1.3902 -0.6994 -2.0212
18581TIP3    H277159   3.014   2.631  11.782 -0.5699  0.0064 -1.1528
18582TIP3   OH277160   1.396   2.806  12.363  0.0086  0.4913  0.3420
18582TIP3    H177161   1.415   2.842  12.449  0.0442 -0.9868  0.9883
18582TIP3    H277162   1.354   2.721  12.381 -0.2741  0.2982 -1.0902
18583TIP3   OH277163   3.027   3.738  11.329  0.3332  0.2960  0.0230
18583TIP3    H177164   2.943   3.742  11.285  0.2611  1.8670  0.2540
18583TIP3    H277165   3.005   3.722  11.421  0.3374 -0.2418 -0.0697
18584TIP3   OH277166   0.139   4.351   6.173 -0.2975  0.0932 -0.0513
18584TIP3    H177167   0.170   4.262   6.189  2.1329  0.6023 -1.3616
18584TIP3    H277168   0.219   4.400   6.152 -1.6690  2.4004 -0.1412
18585TIP3   OH277169   0.560   0.123  12.480 -0.1078  0.3759 -0.0281
18585TIP3    H177170   0.503   0.191  12.515  0.2034 -0.3695  2.0527
18585TIP3    H277171   0.506   0.044  12.481 -0.3392  0.4621 -2.0556
18586TIP3   OH277172   5.333   3.139   1.723  0.4209  0.8700  0.4725
18586TIP3    H177173   5.396   3.212   1.727  1.1771  0.4519 -1.9811
18586TIP3    H277174   5.373   3.071   1.778  1.2246  1.2573  0.3942
18587TIP3   OH277175   3.947   4.593   5.010 -0.3966 -0.1722  0.5160
18587TIP3    H177176   3.959   4.679   5.049  0.4984 -0.1544  0.2471
18587TIP3    H277177   3.984   4.601   4.922  2.3407 -1.5267  1.4055
18588TIP3   OH277178   5.845   4.790  13.795  0.1912 -0.0343  0.5599
18588TIP3    H177179   5.851   4.726  13.724 -1.0812  0.3829  0.0542
18588TIP3    H277180   5.906   4.860  13.770  1.3873 -0.8947  0.9850
18589TIP3   OH277181   0.012   1.948   1.732 -0.2816 -0.2287 -0.3587
18589TIP3    H177182   0.106   1.935   1.720 -0.3542 -0.2089 -1.0200
18589TIP3    H277183   0.003   2.042   1.745 -0.1423 -0.3213  0.4370
18590TIP3   OH277184   1.974   0.140   2.727  0.5873  0.2688  0.5555
18590TIP3    H177185   1.880   0.159   2.721  0.7337  0.3785 -2.8181
18590TIP3    H277186   1.980   0.045   2.718  0.7871  0.1418  1.8397
18591TIP3   OH277187   6.252   0.651   6.505 -0.0893 -0.1702  0.0547
18591TIP3    H177188   6.320   0.690   6.450 -0.6071  0.7193  0.0192
18591TIP3    H277189   6.198   0.725   6.532 -0.1290 -0.6453  1.3782
18592TIP3   OH277190   5.599   5.629  11.306 -0.0797  0.5020  0.1158
18592TIP3    H177191   5.543   5.634  11.383  1.0869  0.0715  1.0244
18592TIP3    H277192   5.574   5.547  11.263  0.1128  0.1176  0.7270
18593TIP3   OH277193   4.956   6.198  12.923  0.0654  0.1983 -0.3975
18593TIP3    H177194   5.018   6.141  12.877 -0.2926 -0.0259 -0.6092
18593TIP3    H277195   4.921   6.256  12.855 -0.2108  0.0929 -0.3498
18594TIP3   OH277196   0.886   3.237   4.906  0.1597 -0.1961 -0.0236
18594TIP3    H177197   0.827   3.288   4.962  1.8100  2.6481 -0.6886
18594TIP3    H277198   0.969   3.237   4.953  0.1986 -2.4817  0.0015
18595TIP3   OH277199   2.138   0.603  16.035  0.2450 -0.7946  0.4778
18595TIP3    H177200   2.160   0.681  16.087 -0.2723 -1.3159  1.5132
18595TIP3    H277201   2.167   0.624  15.946  1.3280  0.0653  1.0020
18596TIP3   OH277202   3.451   1.725   1.867 -0.1062  0.8031 -0.4641
18596TIP3    H177203   3.467   1.649   1.922 -2.6449  1.0180  0.6967
18596TIP3    H277204   3.491   1.798   1.914 -0.1409  0.6095 -0.1304
18597TIP3   OH277205   6.294   2.984  15.291  0.2408 -0.3106 -0.1585
18597TIP3    H177206   6.348   2.915  15.330  1.2022 -0.2296 -1.2946
18597TIP3    H277207   6.355   3.055  15.272 -0.3147 -0.0760 -1.1484
18598TIP3   OH277208   0.180   1.657   1.938  0.5957  0.0045  0.6313
18598TIP3    H177209   0.092   1.623   1.922  0.8254 -0.8509  1.1488
18598TIP3    H277210   0.184   1.673   2.032  1.0117 -0.0272  0.6232
18599TIP3   OH277211   5.717   1.043   4.365  0.0676 -0.3508 -0.8384
18599TIP3    H177212   5.687   1.124   4.406 -3.8665 -1.9839 -0.0520
18599TIP3    H277213   5.812   1.047   4.373 -0.0610  2.9700  1.4731
18600TIP3   OH277214   2.412   2.642   2.488 -0.1457  0.2015 -0.1505
18600TIP3    H177215   2.461   2.648   2.570 -2.8600  2.0165  1.5461
18600TIP3    H277216   2.397   2.733   2.463 -0.0488 -0.3206 -2.2786
18601TIP3   OH277217   4.366   3.872   3.433  0.1173  0.2191 -0.0718
18601TIP3    H177218   4.291   3.848   3.377  1.9032 -1.1019 -2.0745
18601TIP3    H277219   4.337   3.852   3.522 -2.7562  2.1009 -0.4610
18602TIP3   OH277220   1.541   5.793  11.394  0.3437  0.8388  0.0452
18602TIP3    H177221   1.492   5.827  11.319  0.7269 -0.3119 -0.7610
18602TIP3    H277222   1.477   5.789  11.465 -1.4150 -2.5288 -1.4738
18603TIP3   OH277223   1.986   1.241   2.437  0.2151  0.2338 -0.6065
18603TIP3    H177224   1.965   1.301   2.508 -1.6262 -0.4190 -0.5402
18603TIP3    H277225   1.980   1.294   2.357  1.3347  0.7405 -0.3768
18604TIP3   OH277226   2.073   1.293  14.366  0.2689 -0.1532  0.2113
18604TIP3    H177227   2.015   1.362  14.334  0.3404 -0.8309 -1.4994
18604TIP3    H277228   2.158   1.314  14.329  0.8987  0.2180  1.7959
18605TIP3   OH277229   1.617   3.026   6.057  0.1338 -0.4264  0.3569
18605TIP3    H177230   1.702   3.064   6.078  0.0334  1.0260 -1.6177
18605TIP3    H277231   1.553   3.089   6.090 -0.0610  0.5087 -1.6834
18606TIP3   OH277232   5.022   2.574   4.745  0.1550 -0.0757  0.7710
18606TIP3    H177233   4.984   2.651   4.788  0.4553 -0.5853  1.9970
18606TIP3    H277234   4.990   2.500   4.797 -0.3981 -0.8200 -0.5822
18607TIP3   OH277235   0.131   0.876   4.233  0.2155 -0.6236 -0.5427
18607TIP3    H177236   0.066   0.857   4.165  1.1285  0.1941 -1.6824
18607TIP3    H277237   0.204   0.819   4.213 -0.2052 -1.7176  0.8862
18608TIP3   OH277238   5.744   4.944  13.192 -0.6485  0.4723  0.4022
18608TIP3    H177239   5.722   4.899  13.274 -2.9824 -0.8645 -0.8548
18608TIP3    H277240   5.665   4.993  13.170 -0.9512 -0.9693 -2.1119
18609TIP3   OH277241   2.508   3.499  13.907 -0.0002 -0.0311 -0.0582
18609TIP3    H177242   2.596   3.493  13.946 -0.0127 -1.6699 -0.1973
18609TIP3    H277243   2.525   3.510  13.813  0.1071 -1.6335 -0.2566
18610TIP3   OH277244   2.439   5.333   2.022 -0.5583  0.3232 -0.7347
18610TIP3    H177245   2.494   5.273   1.973 -2.1634 -0.9824 -1.0229
18610TIP3    H277246   2.422   5.406   1.962 -1.2832 -0.5486 -1.6121
18611TIP3   OH277247   2.221   0.488   0.223 -0.9341  0.1818  0.7396
18611TIP3    H177248   2.264   0.403   0.212 -1.8011 -0.0299 -1.8791
18611TIP3    H277249   2.293   0.551   0.231  0.0391 -0.2594 -2.7162
18612TIP3   OH277250   4.398   3.501  15.965 -0.1938 -0.2823  0.0545
18612TIP3    H177251   4.367   3.591  15.978  0.7234 -0.1086  1.1459
18612TIP3    H277252   4.493   3.507  15.974 -0.1586 -1.4244  0.5749
18613TIP3   OH277253   2.638   4.000  12.029 -0.1614 -0.3310 -0.3084
18613TIP3    H177254   2.637   4.035  12.119 -0.4542  1.3882 -0.9458
18613TIP3    H277255   2.731   3.994  12.007 -0.0913 -0.6540  0.0673
18614TIP3   OH277256   6.259   5.049  17.205  0.6859  0.5488  0.2386
18614TIP3    H177257   6.270   4.973  17.263  0.0116 -0.3825 -0.8255
18614TIP3    H277258   6.165   5.067  17.205  0.5910  0.1206 -1.0688
18615TIP3   OH277259   1.614   1.935   4.626  0.6577 -0.1791  0.0258
18615TIP3    H177260   1.595   1.847   4.658  0.5320 -0.1167  0.1231
18615TIP3    H277261   1.606   1.991   4.703  0.3874 -0.0336 -0.1056
18616TIP3   OH277262   0.718   4.108  11.783 -0.4382 -0.3860  1.1208
18616TIP3    H177263   0.649   4.105  11.717 -0.3307 -2.7638  1.0520
18616TIP3    H277264   0.707   4.028  11.834  1.4447 -0.1680  1.9536
18617TIP3   OH277265   1.678   0.694   5.205 -0.1676 -0.1460 -0.4535
18617TIP3    H177266   1.628   0.757   5.258 -2.0421 -0.6207 -1.5602
18617TIP3    H277267   1.640   0.702   5.117  0.1057 -2.2293 -0.8008
18618TIP3   OH277268   6.054   0.104   6.489  0.5331  0.5926  0.0043
18618TIP3    H177269   6.021   0.053   6.416 -0.3476  1.0053  0.1074
18618TIP3    H277270   5.986   0.168   6.507  1.4678  1.6024  0.0875
18619TIP3   OH277271   4.162   6.697  15.326 -0.2788 -0.1574 -0.6328
18619TIP3    H177272   4.188   6.751  15.252  2.1045 -1.8804 -1.1582
18619TIP3    H277273   4.140   6.612  15.288  1.1169 -1.1142  0.5677
18620TIP3   OH277274   6.449   4.841   1.232  0.4497  0.0660 -0.2892
18620TIP3    H177275   6.460   4.747   1.247 -0.5802 -0.0724 -0.3810
18620TIP3    H277276   6.427   4.849   1.140  2.2656  0.5610 -0.7242
18621TIP3   OH277277   1.844   0.289  13.915  0.1816 -0.2418 -0.9575
18621TIP3    H177278   1.904   0.364  13.915  0.6218 -0.5854 -1.2436
18621TIP3    H277279   1.844   0.258  14.005 -2.3405  1.9086 -0.0908
18622TIP3   OH277280   1.512   5.133   0.525  0.3569 -0.0059  1.0255
18622TIP3    H177281   1.460   5.054   0.539  1.5861 -1.0784 -0.2646
18622TIP3    H277282   1.579   5.131   0.593 -0.8387  1.0611  2.3035
18623TIP3   OH277283   5.040   3.220  10.715 -0.1237 -0.2691  0.3445
18623TIP3    H177284   4.957   3.234  10.760  0.6510 -0.8360  2.0420
18623TIP3    H277285   5.044   3.125  10.701 -0.8819 -0.0049 -2.0838
18624TIP3   OH277286   6.455   5.691  15.167 -0.4154  0.7758  0.1989
18624TIP3    H177287   6.545   5.681  15.137 -0.3499 -0.3055  0.7195
18624TIP3    H277288   6.461   5.749  15.243 -0.0338 -0.0499  0.8084
18625TIP3   OH277289   5.441   1.678   5.114  0.4865  0.6864  0.4189
18625TIP3    H177290   5.379   1.748   5.130  0.0505  0.7301 -1.2412
18625TIP3    H277291   5.388   1.606   5.080  1.2329  0.4769 -0.3555
18626TIP3   OH277292   4.549   6.516  12.897  0.5457  0.1643 -0.2718
18626TIP3    H177293   4.464   6.549  12.867 -0.5638 -1.0914  1.2994
18626TIP3    H277294   4.528   6.464  12.975  2.8077  0.0629  0.3322
18627TIP3   OH277295   3.584   6.351  16.196 -0.5755 -0.3976  0.7443
18627TIP3    H177296   3.607   6.259  16.201  0.6229 -0.2066 -0.5026
18627TIP3    H277297   3.666   6.397  16.214 -1.4421  0.4867  2.7393
18628TIP3   OH277298   4.267   1.622  15.938  0.3025 -0.4687 -0.0149
18628TIP3    H177299   4.305   1.622  16.026  2.5892  0.2225 -0.9192
18628TIP3    H277300   4.302   1.702  15.898  0.0126 -1.2142 -1.8243
18629TIP3   OH277301   2.443   5.905   0.719 -0.2302  0.4869  0.7395
18629TIP3    H177302   2.505   5.880   0.651 -1.3376 -0.1003 -0.0740
18629TIP3    H277303   2.498   5.946   0.787  1.1796 -0.9267  0.5204
18630TIP3   OH277304   0.424   0.377  13.326  0.1070 -0.1271 -0.3437
18630TIP3    H177305   0.344   0.328  13.346  0.6099 -0.5096  0.7948
18630TIP3    H277306   0.494   0.314  13.338  0.7785  0.8613  1.2565
18631TIP3   OH277307   2.771   0.958   2.330 -0.4532  0.0848 -0.2595
18631TIP3    H177308   2.796   1.041   2.288 -3.2193  0.4039 -1.5214
18631TIP3    H277309   2.714   0.984   2.402 -0.4310 -0.7023  0.0498
18632TIP3   OH277310   0.139   5.078  16.613  0.0397  0.5204 -0.2367
18632TIP3    H177311   0.097   4.992  16.605 -0.4192  0.6317  0.8145
18632TIP3    H277312   0.227   5.065  16.576 -0.9990  0.4067 -2.8827
18633TIP3   OH277313   4.819   1.448  17.152 -0.1261 -0.2106 -0.0530
18633TIP3    H177314   4.773   1.386  17.097 -0.2197 -1.2525  1.1465
18633TIP3    H277315   4.847   1.518  17.093 -0.1477 -1.3169 -1.4089
18634TIP3   OH277316   0.494   5.947  12.673 -0.0928 -0.3512  0.6678
18634TIP3    H177317   0.434   5.876  12.648  0.3060 -0.1601 -0.9404
18634TIP3    H277318   0.509   5.996  12.592 -0.5055  1.7179  1.7707
18635TIP3   OH277319   1.292   1.687  13.365  0.0342  0.3823 -0.1744
18635TIP3    H177320   1.242   1.707  13.286  1.2750  2.5107 -0.5085
18635TIP3    H277321   1.343   1.610  13.342 -0.0601  0.6218 -1.2512
18636TIP3   OH277322   2.546   1.755   2.616  0.6542 -0.0787  0.0552
18636TIP3    H177323   2.632   1.720   2.640  1.4431  0.7758 -1.3931
18636TIP3    H277324   2.515   1.697   2.546 -0.6604 -1.2615  1.5201
18637TIP3   OH277325   6.633   2.286  16.393  0.3608 -0.4292 -0.3503
18637TIP3    H177326   6.569   2.228  16.434  0.7219 -1.1543 -0.8056
18637TIP3    H277327   6.620   2.370  16.437 -0.4090 -0.7568  0.0642
18638TIP3   OH277328   0.295   4.636   0.118  0.0929  0.4523  0.6081
18638TIP3    H177329   0.372   4.579   0.117  0.8583  1.4153 -1.3861
18638TIP3    H277330   0.322   4.714   0.070 -1.9902  1.0335  0.2643
18639TIP3   OH277331   5.356   0.029  11.307 -0.0988 -0.8044  0.3483
18639TIP3    H177332   5.353   0.057  11.216  2.2550  3.8860  1.3712
18639TIP3    H277333   5.443  -0.010  11.317  0.4819  0.5427  0.8724
18640TIP3   OH277334   6.729   1.706   1.369 -0.0337  0.6261 -0.3128
18640TIP3    H177335   6.729   1.611   1.367 -0.6344  0.5757  1.0058
18640TIP3    H277336   6.724   1.732   1.277  0.8184 -0.5965 -0.7275
18641TIP3   OH277337   6.335   3.860  16.495 -0.2532  0.4544 -0.5917
18641TIP3    H177338   6.326   3.938  16.441  1.1885  0.5398 -0.7218
18641TIP3    H277339   6.397   3.884  16.563 -1.9558  0.3158  1.1055
18642TIP3   OH277340   4.773   2.708   2.705 -0.3110 -0.0580  0.0257
18642TIP3    H177341   4.823   2.700   2.624  1.4209 -1.4062  1.1359
18642TIP3    H277342   4.709   2.638   2.700  0.4724 -0.8156  0.2206
18643TIP3   OH277343   2.803   5.768   5.827  0.4653 -0.7282 -0.1935
18643TIP3    H177344   2.856   5.845   5.808  0.8409 -0.8915  0.1809
18643TIP3    H277345   2.818   5.751   5.920  0.3049 -1.1956 -0.2522
18644TIP3   OH277346   0.916   4.299  16.718  0.4127  0.2877 -0.4968
18644TIP3    H177347   0.918   4.347  16.801  0.6586 -0.4484 -0.0710
18644TIP3    H277348   0.879   4.214  16.741 -0.6822  0.4976 -1.3684
18645TIP3   OH277349   4.040   5.998  15.900  0.1346  0.4206  0.3482
18645TIP3    H177350   4.061   5.907  15.921  1.7100  0.8162  0.5647
18645TIP3    H277351   4.068   6.048  15.976  0.9203  1.2718 -0.4727
18646TIP3   OH277352   0.987   2.468  10.969 -1.1051  0.0459 -0.0913
18646TIP3    H177353   0.903   2.436  10.937 -1.8720  1.6556  0.2144
18646TIP3    H277354   1.015   2.402  11.032 -1.9824 -0.6726 -0.4257
18647TIP3   OH277355   6.538   5.293   2.430  0.0855  0.1894 -0.5119
18647TIP3    H177356   6.545   5.389   2.438 -0.8640  0.3249 -1.1077
18647TIP3    H277357   6.444   5.276   2.431  0.2380 -0.7139 -0.7070
18648TIP3   OH277358   4.883   4.970   2.793 -0.3476 -0.7058  0.5819
18648TIP3    H177359   4.838   4.977   2.708 -1.0918 -2.1991  0.8168
18648TIP3    H277360   4.837   5.033   2.849 -1.2976 -1.2523  0.4483
18649TIP3   OH277361   3.845   3.276   1.334  0.3442  0.2053 -0.0428
18649TIP3    H177362   3.905   3.300   1.263  0.4522  0.4105  0.1173
18649TIP3    H277363   3.761   3.262   1.291  0.5234 -0.1599 -0.2793
18650TIP3   OH277364   6.494   2.397   0.932 -0.4024  0.1045 -0.0801
18650TIP3    H177365   6.527   2.463   0.871  0.4745  0.9776  1.2880
18650TIP3    H277366   6.452   2.332   0.876  1.0104  0.4947 -1.6707
18651TIP3   OH277367   2.051   6.739  15.216  0.1647 -0.8113 -0.3170
18651TIP3    H177368   2.049   6.715  15.309  0.5933 -2.7859 -0.7654
18651TIP3    H277369   2.094   6.824  15.214 -0.4540 -0.4186  1.3388
18652TIP3   OH277370   0.388   1.504   4.300 -0.4276  0.4907 -0.0627
18652TIP3    H177371   0.338   1.452   4.362 -0.4972  2.0467  1.2569
18652TIP3    H277372   0.332   1.511   4.222 -1.0002 -0.1927  0.2856
18653TIP3   OH277373   3.345   2.866   3.071 -0.5310  0.3174 -0.6219
18653TIP3    H177374   3.389   2.786   3.042 -0.9671  0.3080 -1.2657
18653TIP3    H277375   3.359   2.867   3.166  2.4248  1.2453 -0.9552
18654TIP3   OH277376   2.620   1.151   2.491 -0.1272 -0.3823  0.0390
18654TIP3    H177377   2.549   1.136   2.553  0.0470  0.1876  0.3845
18654TIP3    H277378   2.700   1.146   2.543 -0.0022  0.5329 -0.0491
18655TIP3   OH277379   1.620   4.309  11.494 -0.3885 -0.2574 -0.2356
18655TIP3    H177380   1.703   4.350  11.469 -1.4668  0.3120 -3.2852
18655TIP3    H277381   1.633   4.216  11.474  0.1075 -0.5114  1.1485
18656TIP3   OH277382   1.090   1.776  14.589 -0.0343  0.8817  0.2112
18656TIP3    H177383   1.182   1.798  14.603  0.6235 -0.3147 -1.7319
18656TIP3    H277384   1.092   1.701  14.530 -2.2714  1.0803 -0.2260
18657TIP3   OH277385   0.235   2.648   1.202  0.3442  0.1709 -0.4582
18657TIP3    H177386   0.201   2.609   1.283  3.1108 -1.2555  0.1372
18657TIP3    H277387   0.203   2.590   1.133 -1.5834  1.0891 -0.4026
18658TIP3   OH277388   2.270   4.866   1.919 -0.0422  0.1206  0.3108
18658TIP3    H177389   2.362   4.887   1.934 -0.2378  2.1115 -0.9737
18658TIP3    H277390   2.272   4.794   1.856  0.6586  1.2260 -0.9823
18659TIP3   OH277391   2.974   5.231   0.916 -0.1290  0.3510 -0.2434
18659TIP3    H177392   3.006   5.153   0.872 -1.6108 -1.5666  1.8004
18659TIP3    H277393   2.888   5.205   0.950  0.6076  1.7502  3.1717
18660TIP3   OH277394   6.511   2.469  14.082  0.2923  0.1414 -0.2116
18660TIP3    H177395   6.538   2.526  14.154  2.1940 -0.5215 -0.3434
18660TIP3    H277396   6.486   2.387  14.125 -0.4776  0.3801 -0.1820
18661TIP3   OH277397   0.350   3.577   3.603  0.8960  0.0766 -0.6687
18661TIP3    H177398   0.418   3.510   3.598  0.8828 -0.2871  2.2760
18661TIP3    H277399   0.282   3.538   3.658  0.6011  2.2163  0.6131
18662TIP3   OH277400   1.742   1.981  16.016 -0.3070  0.2986  0.0678
18662TIP3    H177401   1.692   2.017  16.089  0.1474  0.6415  0.2140
18662TIP3    H277402   1.774   2.057  15.968  0.6000  0.0924  0.3337
18663TIP3   OH277403   4.172   3.143   0.220 -0.4183 -0.4993 -0.3160
18663TIP3    H177404   4.179   3.186   0.305 -1.3933  0.4643 -0.6901
18663TIP3    H277405   4.246   3.083   0.217 -1.0543 -1.4719  1.7131
18664TIP3   OH277406   5.422   2.983  14.466  0.3286 -0.3653  0.0829
18664TIP3    H177407   5.495   2.965  14.524 -0.5062 -0.7236  1.0589
18664TIP3    H277408   5.369   2.903  14.468 -1.1434  0.5682  1.0126
18665TIP3   OH277409   1.443   1.657  11.308  0.2162  0.0557  0.7490
18665TIP3    H177410   1.411   1.596  11.241  0.5340  0.0292  0.6210
18665TIP3    H277411   1.368   1.668  11.367  0.4951 -1.3151  1.4040
18666TIP3   OH277412   3.846   1.363  13.905 -0.2654  0.3668 -0.2124
18666TIP3    H177413   3.902   1.439  13.921 -0.8577  0.6654  0.4650
18666TIP3    H277414   3.873   1.299  13.971 -0.3491  0.2949 -0.2471
18667TIP3   OH277415   1.862   1.643  14.066 -0.1445 -0.2718 -0.5537
18667TIP3    H177416   1.806   1.692  14.005 -1.5414 -3.5582 -2.1498
18667TIP3    H277417   1.949   1.645  14.026 -0.4074 -0.0068 -1.1230
18668TIP3   OH277418   6.460   2.288   3.828  0.7475  0.3249  0.3309
18668TIP3    H177419   6.410   2.312   3.750  1.6885  1.1487 -0.0358
18668TIP3    H277420   6.395   2.250   3.887  0.2541 -1.6626 -1.3964
18669TIP3   OH277421   4.465   3.077  16.487  0.1633 -0.7411 -0.0268
18669TIP3    H177422   4.391   3.037  16.441  0.9492  0.2282 -2.2710
18669TIP3    H277423   4.429   3.158  16.523  0.0839 -0.3305 -1.0083
18670TIP3   OH277424   0.556   1.111   0.173  0.1440  0.0979 -0.2033
18670TIP3    H177425   0.648   1.108   0.198  0.0483  1.3182  0.3442
18670TIP3    H277426   0.520   1.028   0.204  0.5457  0.5845  1.6393
18671TIP3   OH277427   1.296   3.731   5.189  0.4146 -0.3023 -0.7837
18671TIP3    H177428   1.319   3.823   5.176  0.1893 -0.3828 -1.8121
18671TIP3    H277429   1.206   3.733   5.223  0.9804 -0.0933  0.7776
18672TIP3   OH277430   3.752   2.897   5.577  0.1653 -0.0368 -0.0273
18672TIP3    H177431   3.732   2.990   5.564 -0.1106 -0.0517  0.2787
18672TIP3    H277432   3.795   2.893   5.662  0.6462 -0.1241 -0.2745
18673TIP3   OH277433   5.575   1.908   0.456  0.3985  0.0432 -0.7654
18673TIP3    H177434   5.498   1.858   0.427 -0.2129  0.1213  0.6399
18673TIP3    H277435   5.609   1.948   0.375 -1.6413  0.8393 -1.3018
18674TIP3   OH277436   4.045   4.231   0.814  0.1583 -0.1669 -0.0556
18674TIP3    H177437   4.093   4.206   0.735  0.9762  0.7252  0.1385
18674TIP3    H277438   3.956   4.202   0.798  0.8659 -2.4366 -0.1726
18675TIP3   OH277439   4.529   4.173  13.665 -0.3774 -0.2716  0.6579
18675TIP3    H177440   4.443   4.151  13.701 -0.7882  1.0507  0.5664
18675TIP3    H277441   4.583   4.190  13.742 -1.1342  2.1165  0.7490
18676TIP3   OH277442   5.048   6.007   5.476  0.1549  0.1242 -0.1785
18676TIP3    H177443   4.964   5.981   5.515  0.1322 -0.1781 -0.4181
18676TIP3    H277444   5.069   6.091   5.516 -0.8509  0.7786 -0.9721
18677TIP3   OH277445   1.849   4.477  11.536  0.4742 -0.3088  0.1450
18677TIP3    H177446   1.942   4.491  11.520  0.4723  0.3763  0.6869
18677TIP3    H277447   1.806   4.542  11.479  0.3814  0.2821  0.8720
18678TIP3   OH277448   6.673   6.010   1.923  0.6843  0.5236 -0.8539
18678TIP3    H177449   6.647   5.919   1.917 -1.4017  1.0684 -0.8670
18678TIP3    H277450   6.709   6.020   2.012  0.2461 -0.1441 -0.6005
18679TIP3   OH277451   3.857   0.119  15.770  0.2510 -0.0748  0.5285
18679TIP3    H177452   3.789   0.145  15.707  0.6812  1.3757  0.6342
18679TIP3    H277453   3.823   0.038  15.809 -2.1556  1.3371  1.6144
18680TIP3   OH277454   3.497   1.512   4.008 -0.2817  0.2246 -0.0718
18680TIP3    H177455   3.582   1.469   4.020 -0.6703 -0.2898  0.9755
18680TIP3    H277456   3.513   1.579   3.942  0.5540 -0.9361 -1.0780
18681TIP3   OH277457   0.445   3.039  13.425  0.5996 -0.6418  0.2887
18681TIP3    H177458   0.455   3.017  13.517  0.2216 -0.0968  0.4688
18681TIP3    H277459   0.534   3.057  13.394  0.6430  0.0870  0.7941
18682TIP3   OH277460   1.963   2.640   4.865 -0.0674  0.2629  0.9189
18682TIP3    H177461   1.916   2.712   4.907  2.2043  1.0682  2.2347
18682TIP3    H277462   1.939   2.563   4.916 -1.0624  0.3811  0.6518
18683TIP3   OH277463   6.141   2.574  14.886 -0.4532 -0.0142 -0.7241
18683TIP3    H177464   6.188   2.498  14.920  0.8234  0.4486 -1.4000
18683TIP3    H277465   6.099   2.612  14.963  0.1420 -0.5423 -0.1249
18684TIP3   OH277466   6.266   1.208  14.027 -0.3714  0.2988  0.2150
18684TIP3    H177467   6.286   1.121  13.992 -2.0642  0.1013 -0.3600
18684TIP3    H277468   6.351   1.246  14.047  0.5696 -0.5405 -1.8578
18685TIP3   OH277469   3.405   0.813   2.714  0.3417 -0.0425  0.2705
18685TIP3    H177470   3.321   0.787   2.675  0.5853  0.6460 -0.7627
18685TIP3    H277471   3.413   0.906   2.694  0.2829  0.4755  2.4151
18686TIP3   OH277472   2.995   2.664   1.556 -0.1866 -0.1959  0.4588
18686TIP3    H177473   2.977   2.620   1.472 -0.4500  2.7979 -1.1951
18686TIP3    H277474   2.922   2.640   1.612 -1.4006 -0.2559 -1.0730
18687TIP3   OH277475   1.559   0.148   0.684  0.1657  0.0258 -0.3504
18687TIP3    H177476   1.482   0.158   0.740  0.6027  0.1546  0.2407
18687TIP3    H277477   1.629   0.193   0.731  0.5460  0.1412 -1.0058
18688TIP3   OH277478   2.317   6.062  14.889  0.6538 -0.3197 -0.6888
18688TIP3    H177479   2.360   6.027  14.966 -1.4192 -1.0825  0.1831
18688TIP3    H277480   2.381   6.123  14.852  1.2123  1.1973  2.4289
18689TIP3   OH277481   0.927   5.197   3.106  0.7187  0.2641 -0.2469
18689TIP3    H177482   0.931   5.163   3.017  2.0653  0.5447 -0.3126
18689TIP3    H277483   0.848   5.157   3.143 -1.6191  2.3990 -2.4661
18690TIP3   OH277484   5.642   3.858  16.618  0.1467  0.8415  0.4091
18690TIP3    H177485   5.558   3.863  16.574  0.0981  1.8317  0.5883
18690TIP3    H277486   5.651   3.766  16.644 -1.0990  0.8291  0.8248
18691TIP3   OH277487   6.208   5.048  11.697 -0.0024 -0.0810 -0.3255
18691TIP3    H177488   6.147   5.026  11.767 -1.4013 -1.1249 -1.8065
18691TIP3    H277489   6.294   5.027  11.732 -0.6774 -0.6643  1.0361
18692TIP3   OH277490   4.142   6.062   0.277 -0.0058 -0.1025 -0.3675
18692TIP3    H177491   4.098   6.003   0.215  0.1218 -0.2682 -0.3003
18692TIP3    H277492   4.070   6.101   0.327 -0.0852 -0.2605 -0.3567
18693TIP3   OH277493   4.163   3.065   4.319  0.2638  0.6100  0.4307
18693TIP3    H177494   4.170   3.142   4.263 -3.0799  1.2653  0.7179
18693TIP3    H277495   4.122   3.097   4.399 -4.2110 -1.7568 -0.6138
18694TIP3   OH277496   6.017   5.540   3.223  0.2419  0.3390 -0.0977
18694TIP3    H177497   5.928   5.513   3.244  0.4573 -0.7848 -0.5840
18694TIP3    H277498   6.037   5.496   3.141  1.7959 -0.6838  0.7863
18695TIP3   OH277499   2.487   6.249  17.178  0.1429  0.0973 -0.6906
18695TIP3    H177500   2.440   6.179  17.131 -1.0609 -1.1891  2.1642
18695TIP3    H277501   2.538   6.202  17.244  1.1479  1.8352 -0.1930
18696TIP3   OH277502   2.692   4.193   2.755 -0.5598 -0.3440  0.3946
18696TIP3    H177503   2.707   4.283   2.785 -1.6891 -0.4003  1.1856
18696TIP3    H277504   2.772   4.146   2.781 -0.4034  0.1942  0.9402
18697TIP3   OH277505   5.970   4.402  15.931  0.2948  0.0664 -0.7011
18697TIP3    H177506   6.025   4.362  15.863 -0.2195  0.1196 -1.1520
18697TIP3    H277507   5.885   4.415  15.889 -0.4626 -1.2024  0.3715
18698TIP3   OH277508   4.576   0.939  16.434 -0.1605  0.4385 -0.2274
18698TIP3    H177509   4.490   0.928  16.395  0.3352 -0.4435 -1.1108
18698TIP3    H277510   4.629   0.869  16.397  1.1089  1.3192 -0.1598
18699TIP3   OH277511   3.382   1.237   2.321 -0.2228  0.1833  0.4459
18699TIP3    H177512   3.432   1.276   2.393 -0.5619  1.5359 -0.0218
18699TIP3    H277513   3.443   1.175   2.281  0.5279  0.6079  0.8951
18700TIP3   OH277514   5.848   2.215   5.107  0.1724 -0.3475  0.1549
18700TIP3    H177515   5.788   2.195   5.036  0.4295  3.0974 -1.2005
18700TIP3    H277516   5.930   2.172   5.081  0.6031  1.7251 -2.3616
18701TIP3   OH277517   5.725   4.542  13.258  0.1519  0.3464 -0.0439
18701TIP3    H177518   5.782   4.619  13.258  0.7904 -0.0818  1.5527
18701TIP3    H277519   5.785   4.468  13.248 -0.3081 -0.0238 -0.0949
18702TIP3   OH277520   6.371   4.150   0.688  0.1200 -0.3875  0.2488
18702TIP3    H177521   6.292   4.134   0.739 -0.8244 -0.5666 -1.2052
18702TIP3    H277522   6.361   4.096   0.610  1.9865 -0.8898  0.3072
18703TIP3   OH277523   2.404   5.993  14.020  0.0783 -0.2530 -0.3426
18703TIP3    H177524   2.397   5.985  13.925 -1.1050  0.8788 -0.3671
18703TIP3    H277525   2.439   6.081  14.035  1.0882 -0.7361  0.2611
18704TIP3   OH277526   3.459   1.027  12.228  0.4609  0.4201 -0.5135
18704TIP3    H177527   3.531   1.013  12.167  0.5853 -2.3455  0.1051
18704TIP3    H277528   3.501   1.027  12.314 -0.2459 -1.5428 -0.1238
18705TIP3   OH277529   3.617   6.517   2.460  0.0812 -0.5127 -0.1267
18705TIP3    H177530   3.531   6.543   2.426  0.5879 -0.9993 -1.8835
18705TIP3    H277531   3.623   6.560   2.545 -1.3380  0.6381 -0.5629
18706TIP3   OH277532   1.804   2.858  10.482 -0.3701  0.5730  0.0692
18706TIP3    H177533   1.722   2.823  10.446 -0.4029 -0.5486  1.1922
18706TIP3    H277534   1.844   2.784  10.527  1.2156  1.1473 -0.3440
18707TIP3   OH277535   6.583   0.756  16.335  0.1904 -0.2086 -0.2025
18707TIP3    H177536   6.502   0.724  16.376  0.2910  0.7649  0.8094
18707TIP3    H277537   6.555   0.795  16.253 -0.3228 -0.1541 -0.0020
18708TIP3   OH277538   0.823   0.373  15.669  0.5053  0.5771 -0.1638
18708TIP3    H177539   0.742   0.410  15.705  0.8685  1.5078 -0.2874
18708TIP3    H277540   0.804   0.280  15.660 -0.5476  0.7753 -0.1601
18709TIP3   OH277541   3.600   5.081  15.310 -0.4015  0.6829  0.0793
18709TIP3    H177542   3.599   5.083  15.214 -0.3723  1.9677  0.0820
18709TIP3    H277543   3.687   5.048  15.333 -0.9299 -1.0610 -0.3157
18710TIP3   OH277544   4.783   5.872   2.330 -0.2632  0.2340  0.2318
18710TIP3    H177545   4.737   5.956   2.335 -2.1450 -0.6730 -0.6596
18710TIP3    H277546   4.759   5.828   2.411  0.2883  0.3457  0.4560
18711TIP3   OH277547   3.815   6.568  13.160  0.6724 -0.1768  0.1073
18711TIP3    H177548   3.814   6.572  13.064  1.4286  1.8718  0.1279
18711TIP3    H277549   3.725   6.590  13.186  0.7929  0.6042 -0.1251
18712TIP3   OH277550   3.510   4.706   2.174  0.0735 -0.1151  0.1993
18712TIP3    H177551   3.541   4.770   2.110  1.3341 -0.5593  0.3506
18712TIP3    H277552   3.505   4.753   2.256  0.9267 -0.1873  0.2951
18713TIP3   OH277553   4.434   1.694   1.990 -0.4403  0.3461  0.2709
18713TIP3    H177554   4.457   1.764   2.051 -3.4350  0.8075  1.0603
18713TIP3    H277555   4.460   1.727   1.904  0.0376  1.5368  0.8513
18714TIP3   OH277556   5.894   3.987   1.422  0.3841  0.6968  0.0046
18714TIP3    H177557   5.880   4.013   1.331  0.8728 -0.5622 -0.4521
18714TIP3    H277558   5.986   3.958   1.424 -0.0733 -0.7902  0.5052
18715TIP3   OH277559   4.187   5.335  17.216 -0.0314  0.0470  0.0724
18715TIP3    H177560   4.184   5.423  17.179 -3.0295 -0.5310 -1.3589
18715TIP3    H277561   4.202   5.278  17.141 -0.7089 -0.8092  0.5712
18716TIP3   OH277562   2.889   4.417   5.255 -0.3520 -0.2011 -0.4466
18716TIP3    H177563   2.890   4.416   5.160 -0.8131  2.9714 -0.5922
18716TIP3    H277564   2.975   4.449   5.281 -0.4096 -0.5251  0.1857
18717TIP3   OH277565   5.131   2.713  12.239  0.2800 -0.3960 -0.1836
18717TIP3    H177566   5.056   2.655  12.226  0.8221 -1.3190  0.7105
18717TIP3    H277567   5.150   2.748  12.152 -0.4686 -1.0373 -0.6142
18718TIP3   OH277568   5.635   0.655  11.677 -0.3400 -0.1357 -0.3503
18718TIP3    H177569   5.588   0.623  11.754 -0.6986  1.2939  0.0607
18718TIP3    H277570   5.687   0.728  11.710 -0.2511  0.2919 -1.3978
18719TIP3   OH277571   3.401   2.258   3.734 -0.3065  0.1776  0.8261
18719TIP3    H177572   3.315   2.220   3.754 -0.6007  0.3333 -0.0928
18719TIP3    H277573   3.405   2.338   3.786 -0.7931  0.2576  0.7420
18720TIP3   OH277574   2.522   6.676   0.058 -0.4808  0.0665  0.2305
18720TIP3    H177575   2.430   6.696   0.076 -0.3484  1.3911 -0.5107
18720TIP3    H277576   2.559   6.758   0.028  1.4805  0.1172  2.5190
18721TIP3   OH277577   0.301   5.969   0.875 -0.7646 -0.4066  0.0726
18721TIP3    H177578   0.335   6.000   0.792  1.2951  0.3732  1.1232
18721TIP3    H277579   0.282   6.048   0.925 -1.2016 -0.8600  0.6505
18722TIP3   OH277580   2.863   4.682  15.428  0.2933 -0.5580 -0.3959
18722TIP3    H177581   2.827   4.611  15.374 -2.0477  0.4500 -0.3024
18722TIP3    H277582   2.840   4.761  15.380  0.6573  0.2425  0.7319
18723TIP3   OH277583   5.335   1.107  14.549 -0.0715  0.1717 -0.0101
18723TIP3    H177584   5.338   1.176  14.616  0.5857  0.1825 -0.0437
18723TIP3    H277585   5.250   1.065  14.563  0.0066  0.2423  0.7638
18724TIP3   OH277586   2.185   2.388   2.957 -0.4802  0.3601  0.2634
18724TIP3    H177587   2.213   2.362   3.045  2.2086  1.8367 -0.0231
18724TIP3    H277588   2.170   2.306   2.911 -0.2898 -0.4731  1.6262
18725TIP3   OH277589   4.605   0.946  13.694  0.4021  0.8152  0.0907
18725TIP3    H177590   4.631   0.866  13.648 -0.9812 -0.1829  0.9510
18725TIP3    H277591   4.598   1.012  13.625 -0.4534 -0.3390 -0.9767
18726TIP3   OH277592   5.672   5.232   5.575 -0.0833  0.0550 -0.4612
18726TIP3    H177593   5.683   5.200   5.665  2.1404  1.2862 -0.1980
18726TIP3    H277594   5.646   5.155   5.525 -0.1959 -0.9289  1.0366
18727TIP3   OH277595   4.038   2.624  13.157  0.1735  0.1490 -0.5417
18727TIP3    H177596   4.040   2.547  13.100 -3.1452 -0.4651 -0.0139
18727TIP3    H277597   4.016   2.697  13.100  2.0824  0.5720 -0.8230
18728TIP3   OH277598   1.887   4.492   2.735 -0.6528  0.9472 -0.4678
18728TIP3    H177599   1.905   4.469   2.644  1.2939  0.5701 -0.0322
18728TIP3    H277600   1.866   4.585   2.732  1.0293  1.3479 -1.1513
18729TIP3   OH277601   0.359   2.165   2.167 -0.5436  0.9590  0.1056
18729TIP3    H177602   0.367   2.172   2.263  1.1520 -1.1418  0.1861
18729TIP3    H277603   0.443   2.196   2.134  0.1069 -1.2406 -0.4641
18730TIP3   OH277604   4.933   6.699   2.197  0.4140  0.4720  0.7067
18730TIP3    H177605   4.971   6.762   2.136 -1.2408 -0.4400 -1.4185
18730TIP3    H277606   5.008   6.649   2.229  1.2755 -1.7420 -3.8514
18731TIP3   OH277607   1.798   3.423   6.240  0.5746  0.7712 -0.2682
18731TIP3    H177608   1.801   3.330   6.262  0.3425  1.0385  0.9827
18731TIP3    H277609   1.716   3.434   6.193  0.5225  0.3726 -0.2734
18732TIP3   OH277610   5.188   0.815  14.051 -0.2455 -0.1008  0.3675
18732TIP3    H177611   5.210   0.839  14.141 -0.7459  0.6576  0.2935
18732TIP3    H277612   5.136   0.888  14.018 -1.8575 -1.2940  0.1371
18733TIP3   OH277613   6.154   6.175   3.745 -0.2284 -0.6270 -1.2222
18733TIP3    H177614   6.207   6.172   3.824 -0.5561 -3.7494 -0.9701
18733TIP3    H277615   6.211   6.141   3.676 -0.9676 -1.2103 -1.5671
18734TIP3   OH277616   3.932   0.946  14.548  0.6032  0.6065  0.7918
18734TIP3    H177617   3.861   0.994  14.505  0.2142 -0.1412  0.5716
18734TIP3    H277618   4.011   0.997  14.530  0.5745 -0.0553 -1.4449
18735TIP3   OH277619   6.481   1.783   1.225 -1.2353  0.1893  0.0965
18735TIP3    H177620   6.491   1.765   1.132  0.6579  1.0337  0.0972
18735TIP3    H277621   6.516   1.871   1.236  0.0641 -0.5039  1.8559
18736TIP3   OH277622   6.768   2.650  11.272 -0.2160  0.1808 -0.2987
18736TIP3    H177623   6.689   2.597  11.264 -0.2547  0.4174 -1.6948
18736TIP3    H277624   6.776   2.695  11.188  2.4332 -1.2676 -0.9293
18737TIP3   OH277625   0.394   4.998   3.470  0.1305 -0.3007 -0.2551
18737TIP3    H177626   0.323   4.957   3.422  1.0528 -0.6402 -1.3779
18737TIP3    H277627   0.393   5.089   3.443 -0.4636 -0.0800  0.4708
18738TIP3   OH277628   3.398   0.333   5.270  0.2221  0.0235 -0.4045
18738TIP3    H177629   3.390   0.278   5.192 -1.9683  0.9181 -0.8783
18738TIP3    H277630   3.334   0.298   5.331 -0.0159  1.0099 -0.0759
18739TIP3   OH277631   0.434   2.475  10.912  0.1290 -0.5302  0.0834
18739TIP3    H177632   0.396   2.389  10.895  0.2079 -0.7765  1.0901
18739TIP3    H277633   0.399   2.500  10.998  1.6818 -0.4509  0.7109
18740TIP3   OH277634   0.597   2.868   0.035  0.1492 -0.5591 -0.5998
18740TIP3    H177635   0.512   2.840   0.001 -0.4412 -0.3144  0.6158
18740TIP3    H277636   0.652   2.791   0.029 -0.7803 -1.3640  0.5243
18741TIP3   OH277637   3.251   1.265  15.659 -0.6574  0.4628  0.6508
18741TIP3    H177638   3.346   1.262  15.644 -0.8910 -1.2059 -0.7167
18741TIP3    H277639   3.242   1.258  15.754  0.5814 -1.0926  0.7018
18742TIP3   OH277640   3.151   0.467  13.294 -0.1452 -0.3976  0.1882
18742TIP3    H177641   3.241   0.455  13.324  0.3801  3.1124  0.4101
18742TIP3    H277642   3.156   0.459  13.199  0.8041  1.2708  0.0455
18743TIP3   OH277643   4.816   1.308   4.672 -0.0485  0.2946 -0.0801
18743TIP3    H177644   4.838   1.243   4.606  1.7228 -0.0359  0.7648
18743TIP3    H277645   4.830   1.262   4.755 -3.4615  0.2714  0.6230
18744TIP3   OH277646   6.682   6.527   2.019 -0.4999  0.3259 -0.3186
18744TIP3    H177647   6.710   6.435   2.028 -2.3359 -0.1292  1.3253
18744TIP3    H277648   6.752   6.577   2.060  0.1861 -0.3787 -0.5942
18745TIP3   OH277649   3.616   6.297  13.219 -0.0822  0.6944 -0.3669
18745TIP3    H177650   3.592   6.270  13.308 -0.5712  0.3117 -0.6114
18745TIP3    H277651   3.666   6.378  13.231  1.8077 -0.5092  0.4189
18746TIP3   OH277652   3.271   3.396   1.913  0.4049  0.1400  0.0899
18746TIP3    H177653   3.340   3.443   1.961  0.1572  1.1658 -0.5239
18746TIP3    H277654   3.286   3.420   1.821  0.4112 -1.1967 -0.2822
18747TIP3   OH277655   5.783   1.239   5.380  0.3825 -0.1251  0.1985
18747TIP3    H177656   5.770   1.269   5.290 -0.3073  0.6030  0.5278
18747TIP3    H277657   5.848   1.299   5.416 -0.9465  0.9521  0.8378
18748TIP3   OH277658   2.131   1.825  14.330 -0.0653 -0.1201  0.0514
18748TIP3    H177659   2.112   1.917  14.348 -0.3063 -0.1023 -0.2836
18748TIP3    H277660   2.207   1.828  14.271  1.1395 -0.1963  1.5566
18749TIP3   OH277661   1.744   4.291  16.465 -0.4133  0.3092  0.3071
18749TIP3    H177662   1.758   4.299  16.560 -2.5917  1.4327  0.5884
18749TIP3    H277663   1.660   4.245  16.457 -1.2947  2.0590 -1.0174
18750TIP3   OH277664   3.760   0.048   2.360  0.0694  0.0198 -0.3210
18750TIP3    H177665   3.731  -0.038   2.330 -1.3666  0.0731  0.7845
18750TIP3    H277666   3.688   0.107   2.338  0.1027  0.5184  0.8258
18751TIP3   OH277667   4.455   5.658  14.347  0.5615  0.3908  0.4059
18751TIP3    H177668   4.445   5.705  14.429  0.3454 -1.3877  1.4551
18751TIP3    H277669   4.388   5.589  14.350  1.5237 -0.6396 -0.5609
18752TIP3   OH277670   3.631   5.520  13.934 -0.5505 -0.5058 -0.5636
18752TIP3    H177671   3.688   5.509  13.857 -0.2607  0.5294 -0.5176
18752TIP3    H277672   3.594   5.434  13.949  1.3209 -1.3185 -0.3642
18753TIP3   OH277673   4.773   3.372  15.706 -0.3725 -0.2559  0.3844
18753TIP3    H177674   4.740   3.366  15.796  0.0499  0.9521  0.6367
18753TIP3    H277675   4.845   3.435  15.712  0.2712 -0.8692 -0.6381
18754TIP3   OH277676   2.059   4.344   3.785  0.3819  0.1096  0.0187
18754TIP3    H177677   2.018   4.259   3.765  1.0859  0.2147 -2.1179
18754TIP3    H277678   2.001   4.408   3.745  0.5404  0.5438  0.4846
18755TIP3   OH277679   5.726   6.416   0.397 -0.0726 -0.0414  0.5276
18755TIP3    H177680   5.763   6.333   0.367  0.0937 -0.2258  1.2165
18755TIP3    H277681   5.658   6.437   0.333  0.9858  0.1323 -0.5892
18756TIP3   OH277682   1.715   5.331   3.198  0.5046 -0.2016 -0.3720
18756TIP3    H177683   1.730   5.266   3.267  0.1696  0.2199  0.1056
18756TIP3    H277684   1.749   5.413   3.235  0.8639 -0.0886 -0.9435
18757TIP3   OH277685   4.881   5.898   4.041 -0.0789 -0.8489  0.1741
18757TIP3    H177686   4.823   5.959   3.997  0.5898 -0.4205 -0.1371
18757TIP3    H277687   4.937   5.863   3.971  2.5446  1.5279  0.8827
18758TIP3   OH277688   0.622   3.412   0.556 -0.4217  0.3447  0.1786
18758TIP3    H177689   0.576   3.333   0.585 -0.0040 -0.2762 -0.7953
18758TIP3    H277690   0.581   3.483   0.605  0.0735 -0.6048  2.0803
18759TIP3   OH277691   5.519   0.537   1.565 -0.2256  0.5373 -0.0769
18759TIP3    H177692   5.549   0.515   1.476  1.0164  3.9393 -0.6442
18759TIP3    H277693   5.432   0.574   1.552  0.3159  1.8721 -0.0535
18760TIP3   OH277694   5.948   1.306  15.143 -0.0155 -0.4551  0.0777
18760TIP3    H177695   5.958   1.400  15.153 -1.8684 -0.0291 -1.4637
18760TIP3    H277696   5.961   1.290  15.049  1.1328 -1.8726  0.4404
18761TIP3   OH277697   2.901   3.986   2.050  0.1180 -0.0471 -0.0926
18761TIP3    H177698   2.843   4.003   2.124 -0.4238 -0.3963 -0.4299
18761TIP3    H277699   2.947   4.069   2.036 -0.9939  0.5220 -0.4201
18762TIP3   OH277700   4.500   6.167  13.045  0.1572  0.2928 -0.3909
18762TIP3    H177701   4.581   6.117  13.035 -0.2269 -0.2241 -1.0830
18762TIP3    H277702   4.465   6.173  12.956 -1.8826 -1.7472  0.1838
18763TIP3   OH277703   5.898   2.020   1.705  0.0507 -0.1733 -0.2292
18763TIP3    H177704   5.979   1.970   1.718  0.7777  1.7818  4.8174
18763TIP3    H277705   5.919   2.082   1.636  1.9669 -1.3530 -0.7739
18764TIP3   OH277706   3.654   5.560   0.451 -0.4915 -0.1568  0.4622
18764TIP3    H177707   3.650   5.648   0.489  1.0841 -0.2170  0.8832
18764TIP3    H277708   3.747   5.535   0.460 -1.1552 -2.4842  1.8177
18765TIP3   OH277709   3.093   3.046   2.138 -0.3058 -0.1431  0.2153
18765TIP3    H177710   3.128   3.057   2.049 -1.3558 -0.1139 -0.2159
18765TIP3    H277711   3.118   3.126   2.183 -0.4464  0.2032 -0.3046
18766TIP3   OH277712   3.888   6.415   0.205  0.3370  0.1124 -0.0162
18766TIP3    H177713   3.850   6.503   0.212 -1.8188 -0.7734  0.3129
18766TIP3    H277714   3.922   6.398   0.292 -2.5651 -0.7053  1.0835
18767TIP3   OH277715   5.638   2.407  11.026 -0.1767  0.2263  0.0396
18767TIP3    H177716   5.686   2.325  11.039  1.5509  1.4292  1.9434
18767TIP3    H277717   5.592   2.422  11.108  0.3526  1.6176  0.1201
18768TIP3   OH277718   3.543   5.572   0.207 -0.3959 -0.2495 -0.0452
18768TIP3    H177719   3.618   5.525   0.169  0.3122 -0.5622  1.6407
18768TIP3    H277720   3.556   5.564   0.302 -1.2983  1.7289  0.2782
18769TIP3   OH277721   1.284   6.085  16.333  0.0585  0.5437  0.2614
18769TIP3    H177722   1.265   6.028  16.258  2.4101 -0.9121  0.6565
18769TIP3    H277723   1.226   6.054  16.402 -0.5014  0.3512 -0.2880
18770TIP3   OH277724   6.433   3.103  16.333  0.5202  0.2827 -0.0740
18770TIP3    H177725   6.416   3.120  16.426  0.8403 -0.7198  0.1851
18770TIP3    H277726   6.526   3.123  16.321 -0.0724  2.9420 -0.8135
18771TIP3   OH277727   2.950   3.721   3.937 -0.2885  0.4353  0.1983
18771TIP3    H177728   2.861   3.715   3.902  0.3508 -1.1724 -1.3000
18771TIP3    H277729   2.983   3.804   3.903 -1.2815  1.2015  1.0239
18772TIP3   OH277730   5.537   5.118  13.273  0.0210 -0.2091 -0.3286
18772TIP3    H177731   5.508   5.120  13.364 -2.1922 -1.8585 -0.9120
18772TIP3    H277732   5.457   5.126  13.221  1.2903  1.4527 -2.1908
18773TIP3   OH277733   0.003   3.206   5.776 -0.1145  0.5296 -0.2743
18773TIP3    H177734   0.080   3.168   5.820 -1.1860  0.7911  1.9847
18773TIP3    H277735  -0.009   3.152   5.698  1.0644 -0.9396  0.4983
18774TIP3   OH277736   2.023   5.736   2.427 -0.3899  0.0627  0.6946
18774TIP3    H177737   1.957   5.770   2.367 -1.9066 -1.8907  1.1619
18774TIP3    H277738   2.028   5.802   2.497  0.2705  1.5982 -0.7175
18775TIP3   OH277739   5.613   6.143   3.263 -0.1154 -0.4658  0.0828
18775TIP3    H177740   5.534   6.093   3.245  0.1922 -0.9707  0.1054
18775TIP3    H277741   5.619   6.146   3.359 -1.5933  1.9674  0.1722
18776TIP3   OH277742   6.346   1.553   6.538  0.0617  0.5608  0.1367
18776TIP3    H177743   6.277   1.598   6.490 -0.5920 -1.4664 -0.8811
18776TIP3    H277744   6.427   1.591   6.504 -0.4677  1.4473 -0.1768
18777TIP3   OH277745   4.603   2.309  15.130 -0.1293 -0.0946 -0.3318
18777TIP3    H177746   4.561   2.242  15.075  0.4387 -0.1073 -0.7534
18777TIP3    H277747   4.548   2.387  15.119 -0.2602 -0.2218 -0.5743
18778TIP3   OH277748   0.995   4.848   0.299 -0.4555  0.1052  0.3023
18778TIP3    H177749   1.008   4.821   0.207  0.2989  1.5789 -0.0466
18778TIP3    H277750   0.967   4.768   0.343 -0.2597 -0.7740 -1.1001
18779TIP3   OH277751   0.742   6.333   5.976 -0.0259  0.6849 -0.0387
18779TIP3    H177752   0.744   6.389   5.899  0.5376  2.9820  1.5193
18779TIP3    H277753   0.662   6.282   5.968 -0.8408  2.1114 -1.3081
18780TIP3   OH277754   2.047   0.322   4.663  0.4903 -0.2262  0.0482
18780TIP3    H177755   2.013   0.263   4.730  2.5780 -1.9581 -0.3201
18780TIP3    H277756   2.089   0.393   4.713 -0.0119 -0.2521  0.5182
18781TIP3   OH277757   1.422   0.838  15.391  0.4171 -0.1682 -0.0856
18781TIP3    H177758   1.380   0.920  15.365 -0.1816 -0.8309 -1.2923
18781TIP3    H277759   1.404   0.778  15.319 -0.2163 -1.7340  1.2986
18782TIP3   OH277760   5.843   4.219   4.628 -0.4625  0.0031  0.3608
18782TIP3    H177761   5.922   4.266   4.654 -0.8635  0.2814  1.1128
18782TIP3    H277762   5.825   4.250   4.539  2.1648 -2.5804 -1.2433
18783TIP3   OH277763   6.635   2.217  10.553 -0.0524  0.2005 -0.1678
18783TIP3    H177764   6.606   2.161  10.480 -0.2465 -0.6628  0.5565
18783TIP3    H277765   6.694   2.281  10.512 -1.0212  0.4332 -1.2678
18784TIP3   OH277766   3.050   2.864  12.907 -0.1107 -0.2538 -0.5154
18784TIP3    H177767   3.081   2.936  12.961  1.2070 -0.4026 -1.0343
18784TIP3    H277768   3.001   2.808  12.967 -2.2670  1.6616 -0.3426
18785TIP3   OH277769   1.565   1.105   5.092  0.2711  0.6175 -0.8907
18785TIP3    H177770   1.638   1.105   5.030  0.0598 -0.2712 -1.1578
18785TIP3    H277771   1.486   1.106   5.038  0.0760  1.7493 -0.5962
18786TIP3   OH277772   5.766   5.927  12.233 -0.1376 -0.2192 -0.4453
18786TIP3    H177773   5.675   5.897  12.228  0.0131 -0.9668  0.7916
18786TIP3    H277774   5.800   5.885  12.312  0.7383  1.5213  0.1622
18787TIP3   OH277775   4.150   2.333   4.568  0.1905 -0.2050 -0.0779
18787TIP3    H177776   4.073   2.294   4.526  0.9862 -1.5607 -0.3348
18787TIP3    H277777   4.115   2.378   4.645 -0.6860 -2.2836  0.8134
18788TIP3   OH277778   4.488   4.155   3.689  0.0828 -0.6632 -0.5443
18788TIP3    H177779   4.436   4.134   3.767 -0.1475 -0.1865 -0.5686
18788TIP3    H277780   4.532   4.237   3.711 -0.3603 -0.2724 -1.1031
18789TIP3   OH277781   0.841   6.183  15.855 -0.1914 -0.5918  0.3189
18789TIP3    H177782   0.816   6.272  15.830 -1.0345 -0.7763  0.4673
18789TIP3    H277783   0.922   6.166  15.807 -0.5450 -0.0956 -0.4735
18790TIP3   OH277784   1.405   4.451   1.153 -0.0561  0.3948  0.6422
18790TIP3    H177785   1.345   4.385   1.117  2.0763 -1.1827 -0.2125
18790TIP3    H277786   1.350   4.504   1.212 -2.1015 -1.4262  0.4914
18791TIP3   OH277787   2.873   4.571  12.715 -0.0116  0.1175  0.4572
18791TIP3    H177788   2.812   4.640  12.690 -0.6763 -0.7526 -0.3678
18791TIP3    H277789   2.859   4.560  12.809 -0.6598  0.3723  0.3935
18792TIP3   OH277790   4.055   3.487   1.730  0.4999  0.0212  0.1881
18792TIP3    H177791   3.965   3.500   1.700  0.6237 -0.2534 -0.3134
18792TIP3    H277792   4.066   3.392   1.733  0.7793  0.0532  0.2356
18793TIP3   OH277793   3.097   6.336  10.743 -0.2048 -0.1415 -0.4165
18793TIP3    H177794   3.068   6.349  10.653  1.5270  0.5139 -0.9182
18793TIP3    H277795   3.154   6.410  10.761  0.0973 -0.6768  0.9654
18794TIP3   OH277796   4.651   2.499  14.651  0.0778  0.2928  0.1340
18794TIP3    H177797   4.616   2.443  14.720 -1.1091  1.3405  0.4146
18794TIP3    H277798   4.734   2.458  14.627 -1.9704 -3.2940 -1.7477
18795TIP3   OH277799   6.130   6.600  13.364 -0.5054 -0.4589  0.8518
18795TIP3    H177800   6.222   6.626  13.357 -0.4805 -0.7623 -0.1150
18795TIP3    H277801   6.117   6.580  13.457  0.1887  0.3595  1.1333
18796TIP3   OH277802   1.960   2.714   1.188  0.4256 -0.4121  0.1053
18796TIP3    H177803   1.874   2.721   1.146  0.4788 -1.2061 -0.1619
18796TIP3    H277804   2.010   2.656   1.130  0.5330 -1.4625  1.1977
18797TIP3   OH277805   4.301   1.486  13.835  0.1295 -0.6401  0.1865
18797TIP3    H177806   4.265   1.463  13.921 -1.0409  2.1344  0.5525
18797TIP3    H277807   4.356   1.563  13.851  0.5251 -0.5378 -1.4377
18798TIP3   OH277808   4.624   1.692   4.576 -1.1583  0.5666  0.4113
18798TIP3    H177809   4.618   1.653   4.488 -2.8225  1.4275  0.1065
18798TIP3    H277810   4.628   1.616   4.634 -0.0266 -0.0216 -0.3886
18799TIP3   OH277811   3.947   1.560   2.651  0.1056 -0.4394 -0.5930
18799TIP3    H177812   3.991   1.643   2.665 -1.6419  0.6964 -1.4768
18799TIP3    H277813   4.017   1.499   2.628  1.3332  1.0037 -0.8449
18800TIP3   OH277814   4.108   6.203   4.664 -0.1048  0.0564  0.0192
18800TIP3    H177815   4.057   6.175   4.739  0.3785 -0.5619  0.1301
18800TIP3    H277816   4.129   6.295   4.682  0.4028 -0.2133  0.8763
18801TIP3   OH277817   4.339   3.258  11.265  0.2184 -0.7685 -0.5471
18801TIP3    H177818   4.356   3.173  11.305 -3.6876 -0.1491  3.2114
18801TIP3    H277819   4.399   3.318  11.308 -0.3675 -0.9508  0.5667
18802TIP3   OH277820   2.447   4.837  16.713  0.6354  0.2433 -0.4371
18802TIP3    H177821   2.362   4.817  16.675  0.7759 -1.0997 -0.0832
18802TIP3    H277822   2.464   4.928  16.687  0.7232 -0.5531 -3.6222
18803TIP3   OH277823   6.606   0.451  12.564 -0.1602  0.1500 -0.3472
18803TIP3    H177824   6.546   0.474  12.493  1.0641  1.2149 -1.0715
18803TIP3    H277825   6.639   0.365  12.541 -1.3713 -0.4430  0.0523
18804TIP3   OH277826   5.420   2.138  15.109  0.7848 -0.4106  0.0944
18804TIP3    H177827   5.453   2.227  15.118  0.8479 -0.4332  0.0882
18804TIP3    H277828   5.460   2.105  15.028 -0.8467  0.2604 -1.0340
18805TIP3   OH277829   3.779   1.560   2.312 -0.1186 -0.5296 -0.3272
18805TIP3    H177830   3.747   1.648   2.292 -1.2306 -0.9779 -0.5380
18805TIP3    H277831   3.875   1.568   2.304 -0.1622  0.7880  0.2095
18806TIP3   OH277832   5.396   0.596   2.060 -0.2297  0.2539 -0.1686
18806TIP3    H177833   5.438   0.669   2.015 -1.4566  2.1596  1.5867
18806TIP3    H277834   5.469   0.540   2.088  0.8074  1.2510 -0.7892
18807TIP3   OH277835   6.484   5.615   4.313  0.1867  0.1724 -0.5681
18807TIP3    H177836   6.494   5.612   4.218  1.1893 -0.2668 -0.4592
18807TIP3    H277837   6.561   5.664   4.343  0.4002 -0.5568  0.0887
18808TIP3   OH277838   3.010   4.165  12.778  0.2788 -0.6688 -0.0092
18808TIP3    H177839   3.090   4.118  12.754  0.6563 -0.0147 -0.0616
18808TIP3    H277840   2.955   4.159  12.700 -0.5412 -2.7721  0.6658
18809TIP3   OH277841   3.231   1.186   6.384  0.0771 -0.1712 -0.5022
18809TIP3    H177842   3.139   1.201   6.405  0.0461 -1.5290  0.4172
18809TIP3    H277843   3.270   1.156   6.466  1.6367  1.5562 -0.5473
18810TIP3   OH277844   2.391   2.664   0.399 -0.5055 -0.2484  0.2388
18810TIP3    H177845   2.390   2.700   0.487  0.1675 -0.8390  0.4993
18810TIP3    H277846   2.336   2.586   0.403  0.8267 -1.2090  0.5721
18811TIP3   OH277847   1.995   0.219  11.941  0.4581 -0.3134 -0.3218
18811TIP3    H177848   2.036   0.199  12.025 -0.0379 -2.8091 -0.5853
18811TIP3    H277849   2.067   0.217  11.878  0.5850 -0.2419 -0.1779
18812TIP3   OH277850   0.709   4.612   5.994  0.2595 -0.3784  0.2991
18812TIP3    H177851   0.733   4.533   6.043  0.3040 -1.0917 -0.8617
18812TIP3    H277852   0.686   4.675   6.062 -0.6733 -1.6662  1.2246
18813TIP3   OH277853   0.634   4.612   3.978  0.1082  0.7014  0.0998
18813TIP3    H177854   0.601   4.590   4.065 -1.8075  1.6473 -0.3419
18813TIP3    H277855   0.686   4.692   3.992  1.4765 -0.2336  0.6355
18814TIP3   OH277856   4.437   2.546   5.582  0.2495 -0.5146 -0.1350
18814TIP3    H177857   4.517   2.549   5.529  0.6831  0.9557  0.5644
18814TIP3    H277858   4.374   2.599   5.534 -0.2706 -1.5249 -0.5930
18815TIP3   OH277859   3.965   3.205  13.769 -0.0136 -0.2567 -0.6899
18815TIP3    H177860   4.057   3.201  13.794 -0.6336 -0.1219  1.9607
18815TIP3    H277861   3.919   3.164  13.843 -2.2162  1.6262 -0.9167
18816TIP3   OH277862   4.635   1.112   3.262 -0.0699  0.1895  0.1275
18816TIP3    H177863   4.693   1.149   3.195  0.1399 -0.7887 -0.2502
18816TIP3    H277864   4.634   1.018   3.244  2.2554 -0.5941  3.1466
18817TIP3   OH277865   3.016   2.077  15.667 -0.5706  0.2006  0.5556
18817TIP3    H177866   3.013   2.053  15.759  0.7453 -1.5965  0.1929
18817TIP3    H277867   2.926   2.069  15.636 -0.9509  0.4347  1.5981
18818TIP3   OH277868   6.761   3.204  12.225  0.2298 -0.1463  0.0584
18818TIP3    H177869   6.809   3.264  12.282  0.8399  1.1002 -1.6772
18818TIP3    H277870   6.795   3.222  12.137 -2.9186  0.3302 -1.1793
18819TIP3   OH277871   2.660   6.357  13.592 -0.2664  0.2200  0.9767
18819TIP3    H177872   2.695   6.268  13.600  0.1427  0.3393  0.5477
18819TIP3    H277873   2.697   6.390  13.510 -2.1671 -0.0125 -0.0529
18820TIP3   OH277874   2.037   3.480   3.578  0.7636  1.0398  0.1815
18820TIP3    H177875   1.987   3.562   3.577  0.8627  1.1032  0.2990
18820TIP3    H277876   2.128   3.509   3.565  0.7448  0.9086 -0.2549
18821TIP3   OH277877   4.953   1.456  12.367 -0.5783  0.3015  0.3985
18821TIP3    H177878   4.948   1.392  12.297 -1.0078  1.7746 -0.9910
18821TIP3    H277879   5.024   1.426  12.423 -0.5369 -1.1662 -0.4054
18822TIP3   OH277880   2.522   1.321  15.552 -0.0487 -0.2519 -0.6292
18822TIP3    H177881   2.451   1.262  15.530 -1.6143  1.3361 -0.0735
18822TIP3    H277882   2.598   1.264  15.562 -0.9307 -1.8699 -2.4408
18823TIP3   OH277883   1.858   2.177  14.512 -0.6679 -0.0431 -0.4336
18823TIP3    H177884   1.867   2.104  14.573 -1.7198  0.3371  0.2167
18823TIP3    H277885   1.770   2.167  14.476 -0.0117 -0.3315 -2.0127
18824TIP3   OH277886   6.369   5.595  14.133  0.3048  0.4849  0.7895
18824TIP3    H177887   6.289   5.626  14.090 -0.3315 -0.2854  1.3867
18824TIP3    H277888   6.347   5.593  14.226  0.3030 -1.7054  0.7982
18825TIP3   OH277889   4.422   5.799  13.734  0.5817  0.1531 -0.9975
18825TIP3    H177890   4.381   5.728  13.683 -0.5182 -0.1949  0.3012
18825TIP3    H277891   4.494   5.829  13.679  0.7193 -1.5823 -1.8583
18826TIP3   OH277892   2.785   0.025   0.195  0.3739  0.6187 -0.1751
18826TIP3    H177893   2.696   0.029   0.158  0.5743  1.0230 -0.6149
18826TIP3    H277894   2.840   0.066   0.129  1.2102 -1.4811 -0.8632
18827TIP3   OH277895   0.513   2.963  14.304  0.3342  0.2683  0.1349
18827TIP3    H177896   0.569   2.972  14.227  1.6706  0.5127  1.0891
18827TIP3    H277897   0.574   2.955  14.377 -0.8682  1.5275  1.3484
18828TIP3   OH277898   2.216   4.889  15.042  0.5649  0.3769 -0.4989
18828TIP3    H177899   2.248   4.845  14.964  0.6596  0.3927 -0.4693
18828TIP3    H277900   2.254   4.977  15.037  0.0741  0.5790 -0.7500
18829TIP3   OH277901   6.305   5.355  11.768 -0.1036  0.5759  0.5331
18829TIP3    H177902   6.386   5.319  11.804  1.5259  1.6226 -1.8415
18829TIP3    H277903   6.318   5.450  11.772 -1.0588  0.7498 -0.1828
18830TIP3   OH277904   6.158   6.716  16.988  0.2055 -0.0491  0.2120
18830TIP3    H177905   6.108   6.786  16.946  0.2380 -0.9690 -1.4560
18830TIP3    H277906   6.211   6.679  16.917  1.9959 -0.2216  1.5611
18831TIP3   OH277907   2.849   2.876  11.806 -0.0750 -0.1710 -0.8296
18831TIP3    H177908   2.851   2.851  11.898 -1.5950  0.9527 -0.4573
18831TIP3    H277909   2.786   2.816  11.766 -1.4650  1.0587 -0.5494
18832TIP3   OH277910   4.253   6.775   3.636  0.5596 -0.1490  0.1102
18832TIP3    H177911   4.171   6.725   3.636  0.8856 -0.6891 -0.1132
18832TIP3    H277912   4.243   6.839   3.566  0.2220 -0.0397  0.2585
18833TIP3   OH277913   0.528   5.519  11.033 -0.5412  0.0002 -0.1168
18833TIP3    H177914   0.619   5.547  11.035 -0.6450  0.9046 -3.0275
18833TIP3    H277915   0.532   5.423  11.025  0.2331  0.1169 -1.3733
18834TIP3   OH277916   6.592   2.437  12.658 -0.2106 -0.2408  0.2351
18834TIP3    H177917   6.668   2.415  12.605  1.3034  0.0789  2.1662
18834TIP3    H277918   6.542   2.499  12.603  1.9530  1.1026 -0.3367
18835TIP3   OH277919   1.194   0.106   3.196  0.6081 -0.1997 -0.0365
18835TIP3    H177920   1.249   0.151   3.260  0.8250 -3.1854  2.0448
18835TIP3    H277921   1.105   0.118   3.228  0.5388 -0.0634 -0.2782
18836TIP3   OH277922   4.624   5.105  11.083 -0.1443 -0.1709  0.2350
18836TIP3    H177923   4.536   5.142  11.069  0.4880  0.3116 -3.5094
18836TIP3    H277924   4.683   5.177  11.063  1.0795 -1.8316 -2.6847
18837TIP3   OH277925   5.242   0.406  17.205 -0.1548 -0.3488 -0.0777
18837TIP3    H177926   5.207   0.401  17.294  1.5033 -2.0627  0.5160
18837TIP3    H277927   5.175   0.455  17.156 -2.2590 -1.4608  1.5300
18838TIP3   OH277928   5.568   1.270  15.099 -0.7586 -0.1644  0.2342
18838TIP3    H177929   5.652   1.238  15.066 -1.1651 -0.3397 -0.6593
18838TIP3    H277930   5.564   1.237  15.189  0.6840  0.9024  0.7484
18839TIP3   OH277931   0.127   4.255  13.015  0.5051  0.3485  0.6395
18839TIP3    H177932   0.037   4.236  13.040  0.3054 -0.5499 -0.6569
18839TIP3    H277933   0.134   4.223  12.925  2.2947 -0.1627  0.9189
18840TIP3   OH277934   0.029   0.624  12.558  0.2824 -0.8172  0.5518
18840TIP3    H177935   0.006   0.698  12.613 -0.2489  0.5973 -1.4548
18840TIP3    H277936  -0.045   0.564  12.566 -0.5526  0.1280  0.1488
18841TIP3   OH277937   2.280   1.507  12.450 -0.0483  0.3080 -0.2657
18841TIP3    H177938   2.263   1.490  12.357  1.7365  0.5876 -0.6662
18841TIP3    H277939   2.351   1.449  12.473  0.3619  1.1275  0.5969
18842TIP3   OH277940   4.767   3.270  13.091 -0.1379  0.2392 -0.2266
18842TIP3    H177941   4.680   3.256  13.053 -0.3535  1.2694 -0.1315
18842TIP3    H277942   4.826   3.222  13.033 -0.8055 -0.8950 -0.0117
18843TIP3   OH277943   2.435   0.340  15.715 -0.2215 -0.4794 -0.1840
18843TIP3    H177944   2.428   0.366  15.807  0.1740 -2.0668  0.3248
18843TIP3    H277945   2.512   0.386  15.683  0.9466 -1.5627  0.9251
18844TIP3   OH277946   5.143   2.844   6.455  0.1053  0.1243  0.0455
18844TIP3    H177947   5.189   2.910   6.508  0.5634 -0.2475  0.1243
18844TIP3    H277948   5.062   2.887   6.427  0.2554  0.6132  0.3498
18845TIP3   OH277949   0.024   6.718   5.456  0.1015 -0.1311 -0.0021
18845TIP3    H177950  -0.053   6.773   5.449  0.3226  0.0055 -2.0062
18845TIP3    H277951   0.046   6.695   5.365  0.8365 -2.3653  0.6572
18846TIP3   OH277952   1.261   2.922   1.793  0.6460 -0.7600  0.3237
18846TIP3    H177953   1.336   2.886   1.745 -0.0963 -0.1877 -1.3644
18846TIP3    H277954   1.186   2.869   1.764 -0.1971  1.0452 -0.9674
18847TIP3   OH277955   2.370   2.501   3.771 -0.5554 -0.1986  0.6818
18847TIP3    H177956   2.329   2.561   3.708 -0.3360  0.1344  0.8509
18847TIP3    H277957   2.447   2.468   3.724 -0.0397  0.5323  0.9898
18848TIP3   OH277958   0.526   0.075   4.769  0.3231  0.1899 -0.3986
18848TIP3    H177959   0.567   0.003   4.816  0.1113 -1.3342 -2.3783
18848TIP3    H277960   0.584   0.150   4.783  0.6675 -0.3943  1.5442
18849TIP3   OH277961   5.745   2.702   4.779 -0.2171  0.1441  0.0151
18849TIP3    H177962   5.692   2.781   4.764 -0.6786 -0.6447 -3.5496
18849TIP3    H277963   5.749   2.660   4.693  0.8502 -3.2399  1.5532
18850TIP3   OH277964   2.172   2.358  12.188  0.5451 -0.2307  0.0431
18850TIP3    H177965   2.134   2.355  12.100 -0.4031  1.3874  0.3647
18850TIP3    H277966   2.114   2.303  12.241  0.9072 -0.9059 -0.2483
18851TIP3   OH277967   3.198   6.270  14.500 -0.7453  0.4617  0.7009
18851TIP3    H177968   3.113   6.262  14.458  0.1003 -0.6909 -0.9164
18851TIP3    H277969   3.182   6.323  14.578 -2.7449  1.0654 -0.0691
18852TIP3   OH277970   1.687   2.514  15.948 -0.1372  0.5745  0.1863
18852TIP3    H177971   1.772   2.523  15.905 -0.5219 -1.1303 -1.0306
18852TIP3    H277972   1.707   2.523  16.042  1.3999  0.2242 -0.0713
18853TIP3   OH277973   3.112   5.408   4.201 -0.0028 -0.3104 -0.3388
18853TIP3    H177974   3.057   5.480   4.170  0.5013  1.0359  1.6357
18853TIP3    H277975   3.067   5.329   4.172 -1.6885  0.7727 -0.8466
18854TIP3   OH277976   1.581   5.317  15.112 -0.3531  0.2749  0.4480
18854TIP3    H177977   1.529   5.397  15.106 -2.5968 -1.1327 -0.0967
18854TIP3    H277978   1.672   5.346  15.100 -0.9931  2.8001  1.1124
18855TIP3   OH277979   5.783   5.795  15.139 -0.1866  0.3230  0.2237
18855TIP3    H177980   5.864   5.785  15.090 -0.3658  0.8547 -0.1920
18855TIP3    H277981   5.724   5.729  15.102 -0.7498  1.5624 -1.2063
18856TIP3   OH277982   6.186   1.648   6.354  0.2007 -0.3021  0.3136
18856TIP3    H177983   6.160   1.561   6.323 -2.2133  0.1955  0.7621
18856TIP3    H277984   6.157   1.708   6.286  2.6412  0.1639 -0.4104
18857TIP3   OH277985   3.926   3.829   0.411 -0.7180  0.0517 -0.1373
18857TIP3    H177986   3.902   3.830   0.318 -0.6445  0.0070 -0.1568
18857TIP3    H277987   3.906   3.918   0.441 -0.7701  0.0578 -0.1882
18858TIP3   OH277988   2.868   3.831   2.362  0.4591 -0.4088  0.4105
18858TIP3    H177989   2.835   3.842   2.451  1.2307  0.8257  0.5777
18858TIP3    H277990   2.929   3.905   2.350  0.6804 -0.7874 -0.9910
18859TIP3   OH277991   5.018   1.543  10.800 -1.0258 -0.3252  0.7618
18859TIP3    H177992   5.038   1.465  10.748  0.7522  0.1537  0.6728
18859TIP3    H277993   5.094   1.555  10.856  0.0880  2.9010 -1.1615
18860TIP3   OH277994   0.184   3.565   5.801 -0.2637 -0.0926 -0.1479
18860TIP3    H177995   0.130   3.547   5.878 -0.9217  1.0063 -0.3205
18860TIP3    H277996   0.125   3.552   5.727  0.6896 -2.3648 -0.5982
18861TIP3   OH277997   2.883   1.872  16.696 -0.4319 -0.1841 -0.7920
18861TIP3    H177998   2.837   1.945  16.654  1.1608  0.2916 -1.7947
18861TIP3    H277999   2.976   1.890  16.680  0.1399 -1.1369  1.0972
18862TIP3   OH278000   2.727   1.084  16.392  0.2261 -0.1751 -0.4055
18862TIP3    H178001   2.690   1.163  16.432 -1.9375 -1.0421 -0.5890
18862TIP3    H278002   2.711   1.094  16.298 -3.3848 -2.2926 -0.2072
18863TIP3   OH278003   0.309   1.555   6.206  0.5071 -0.2818  0.1467
18863TIP3    H178004   0.271   1.583   6.123 -0.4649 -0.4749  0.5150
18863TIP3    H278005   0.237   1.513   6.253  0.4107  1.6977  1.9706
18864TIP3   OH278006   0.095   1.358   4.723  0.3793 -0.3909  0.1680
18864TIP3    H178007   0.039   1.436   4.722 -1.7134 -1.7751 -1.7473
18864TIP3    H278008   0.091   1.326   4.813 -0.3649  0.5975  0.5058
18865TIP3   OH278009   0.101   5.646  11.695  0.5274  0.1935 -0.6279
18865TIP3    H178010   0.096   5.639  11.600  1.3530  1.7030 -0.7981
18865TIP3    H278011   0.142   5.730  11.712  1.1412 -0.3964  1.0667
18866TIP3   OH278012   3.021   0.313   3.148  0.7758  0.1211 -0.2444
18866TIP3    H178013   3.066   0.396   3.130  0.9450 -0.0626 -0.6836
18866TIP3    H278014   3.004   0.276   3.061  1.6796 -0.8300 -0.0318
18867TIP3   OH278015   0.471   4.844   2.709  0.0169  0.2381 -0.2389
18867TIP3    H178016   0.386   4.836   2.752 -0.0399 -0.2561 -0.4380
18867TIP3    H278017   0.450   4.871   2.620  0.1379  1.3216  0.0484
18868TIP3   OH278018   3.379   2.370  11.247 -0.9816  0.2984 -0.6962
18868TIP3    H178019   3.433   2.313  11.302  1.3132  2.5585 -0.3550
18868TIP3    H278020   3.424   2.371  11.162 -1.1314  1.3122 -0.7749
18869TIP3   OH278021   1.509   2.822  11.791 -0.2045 -0.3732  0.1050
18869TIP3    H178022   1.427   2.854  11.830 -0.4656 -0.8125 -0.0812
18869TIP3    H278023   1.487   2.737  11.754 -0.1141  0.2864 -1.5371
18870TIP3   OH278024   4.307   0.139  14.662  0.3592  0.0619 -0.1520
18870TIP3    H178025   4.246   0.211  14.641  0.8222 -0.1409 -2.5247
18870TIP3    H278026   4.253   0.074  14.706 -0.6113  0.8813 -0.0840
18871TIP3   OH278027   1.532   5.668  16.742 -0.0265 -0.2292  0.5925
18871TIP3    H178028   1.601   5.690  16.679 -1.0378 -1.0111 -0.8408
18871TIP3    H278029   1.463   5.733  16.725 -1.1495 -1.6606 -0.5670
18872TIP3   OH278030   6.409   6.262   5.651 -0.0513  0.1886  0.2015
18872TIP3    H178031   6.371   6.198   5.711  0.9054  0.9112  1.6525
18872TIP3    H278032   6.335   6.310   5.615 -0.6791 -0.6969  0.2845
18873TIP3   OH278033   4.551   2.474   2.821 -0.2880  0.8983  0.0158
18873TIP3    H178034   4.607   2.405   2.856  1.2193  1.4319 -1.2118
18873TIP3    H278035   4.465   2.434   2.813 -0.2580  0.1873  2.4060
18874TIP3   OH278036   5.598   5.823   0.081 -0.0053 -0.4960  0.5197
18874TIP3    H178037   5.541   5.746   0.077 -2.0422  0.9405  0.3430
18874TIP3    H278038   5.585   5.866  -0.004  1.7429 -0.3404  0.2856
18875TIP3   OH278039   4.136   1.668   0.394 -0.2053 -0.6896  0.7390
18875TIP3    H178040   4.100   1.714   0.318 -1.8129 -0.8274  1.3775
18875TIP3    H278041   4.151   1.737   0.459  0.5770 -0.6548  0.5340
18876TIP3   OH278042   3.653   3.847  11.728  0.1578  0.7150 -0.2783
18876TIP3    H178043   3.719   3.915  11.716  0.5760  0.6251  1.3571
18876TIP3    H278044   3.612   3.868  11.811  0.0776 -0.8577  0.1006
18877TIP3   OH278045   4.773   2.531   6.589  0.2847 -0.5509 -0.1601
18877TIP3    H178046   4.696   2.474   6.584 -1.1332  1.2772 -0.3601
18877TIP3    H278047   4.813   2.508   6.673  0.4091 -2.5437 -0.6970
18878TIP3   OH278048   5.958   4.581  16.339  0.4128  0.1840  0.0655
18878TIP3    H178049   5.996   4.568  16.253  0.4003  1.3955 -0.1462
18878TIP3    H278050   5.871   4.541  16.334  0.0372  1.0797 -0.8035
18879TIP3   OH278051   1.867   2.993  11.632 -0.1301  0.2791  0.2508
18879TIP3    H178052   1.962   2.983  11.636  0.0448  1.6955  0.2485
18879TIP3    H278053   1.836   2.912  11.593  1.4252  1.2007 -3.4033
18880TIP3   OH278054   6.723   4.072  14.827 -0.0680  0.5229 -0.2989
18880TIP3    H178055   6.810   4.032  14.825  0.0825  0.6475  1.6015
18880TIP3    H278056   6.740   4.166  14.835 -0.2866  0.4172  2.1322
18881TIP3   OH278057   5.901   2.446  12.493  0.0584 -0.6506  0.0705
18881TIP3    H178058   5.861   2.428  12.578  0.1261 -1.0582  0.0166
18881TIP3    H278059   5.869   2.533  12.470  0.9748 -0.0330  1.0473
18882TIP3   OH278060   5.073   3.475   1.807  0.2429 -0.4342 -0.2531
18882TIP3    H178061   4.983   3.467   1.839  0.0736  0.7082 -0.4170
18882TIP3    H278062   5.084   3.568   1.789  1.6222 -0.4898  0.2206
18883TIP3   OH278063   1.812   1.097  12.272 -0.3898  0.2677 -0.1773
18883TIP3    H178064   1.851   1.171  12.318  0.1512  0.3241 -0.7197
18883TIP3    H278065   1.770   1.136  12.195  1.3238 -0.1490 -1.3726
18884TIP3   OH278066   3.878   5.264   2.810  0.6735 -0.8864 -0.6016
18884TIP3    H178067   3.834   5.328   2.754  1.4118 -1.0421 -1.3882
18884TIP3    H278068   3.966   5.300   2.822  1.0181 -1.6215 -0.8492
18885TIP3   OH278069   1.358   2.860   1.433  0.2349 -0.3698  0.3246
18885TIP3    H178070   1.418   2.887   1.503  0.4467  0.2843 -0.0952
18885TIP3    H278071   1.354   2.765   1.440 -0.9254 -0.2348  2.1846
18886TIP3   OH278072   2.909   4.637  14.480  0.5728  0.5745 -0.2590
18886TIP3    H178073   2.892   4.688  14.401  1.8353  0.2727 -0.7496
18886TIP3    H278074   2.893   4.697  14.552  3.2860  2.1517 -0.8209
18887TIP3   OH278075   5.602   2.409  15.656 -0.3154  0.7675 -0.7067
18887TIP3    H178076   5.525   2.373  15.700 -0.0141  0.6450 -0.2823
18887TIP3    H278077   5.594   2.504  15.668  0.1745  0.6902  0.2973
18888TIP3   OH278078   1.166   2.390  12.136 -0.6114  0.2655  0.1206
18888TIP3    H178079   1.084   2.350  12.105 -1.3416  1.3011  0.6603
18888TIP3    H278080   1.160   2.481  12.107  0.7864  0.1390 -0.6422
18889TIP3   OH278081   3.101   2.649  12.300  0.1495  0.0663  0.4660
18889TIP3    H178082   3.050   2.574  12.270  2.0648 -0.8052 -0.9045
18889TIP3    H278083   3.054   2.725  12.267 -1.0896 -0.6052  0.6439
18890TIP3   OH278084   4.584   1.883  11.378 -0.0334 -0.0943  0.4380
18890TIP3    H178085   4.522   1.829  11.328 -0.6934  1.1948 -0.1690
18890TIP3    H278086   4.609   1.828  11.452 -1.4080 -0.8892  0.3444
18891TIP3   OH278087   3.600   6.053  12.779 -0.7414  0.1108  0.1419
18891TIP3    H178088   3.513   6.090  12.794  0.5472  2.4678  2.5789
18891TIP3    H278089   3.619   6.004  12.859  0.1303 -0.5271 -0.4395
18892TIP3   OH278090   5.771   2.432  15.991 -0.0098 -0.0329 -0.2107
18892TIP3    H178091   5.698   2.454  16.049  0.6555 -0.6778  0.9027
18892TIP3    H278092   5.842   2.408  16.050  0.3774 -1.7099 -1.3003
18893TIP3   OH278093   5.965   2.501  15.567  0.0775  0.7207  0.3276
18893TIP3    H178094   5.918   2.446  15.504  1.6663  1.1734 -1.3463
18893TIP3    H278095   6.043   2.450  15.589  1.4611  2.1342 -1.0792
18894TIP3   OH278096   1.961   2.605   5.164 -0.4307  0.2233  0.3195
18894TIP3    H178097   1.933   2.537   5.103  0.1979  0.2366  0.0069
18894TIP3    H278098   1.940   2.570   5.251 -1.3064  0.1962  0.1015
18895TIP3   OH278099   5.448   5.314   4.294 -0.1328 -0.1860 -1.1040
18895TIP3    H178100   5.450   5.219   4.293  2.0583 -0.1956 -0.4236
18895TIP3    H278101   5.540   5.341   4.290 -0.6890  1.9000 -1.2532
18896TIP3   OH278102   3.103   5.714  15.444 -0.0991  0.3345  0.2972
18896TIP3    H178103   3.086   5.715  15.538  4.2289  2.2856  1.2883
18896TIP3    H278104   3.187   5.669  15.435 -0.0642  0.8042 -2.5598
18897TIP3   OH278105   3.909   1.717  12.782 -0.7150  0.6560  0.6543
18897TIP3    H178106   3.922   1.679  12.695 -0.4771  0.2764  0.8492
18897TIP3    H278107   3.836   1.667  12.819 -1.8341  1.8277  0.1051
18898TIP3   OH278108   2.448   0.489  11.828  0.4862 -0.1409 -0.1534
18898TIP3    H178109   2.445   0.572  11.779  0.3849 -1.3863 -2.3890
18898TIP3    H278110   2.530   0.493  11.877  0.0384  1.6578  0.5258
18899TIP3   OH278111   1.616   6.254   0.252  0.3837 -0.1613 -0.2083
18899TIP3    H178112   1.711   6.252   0.247  0.6378  1.4239  2.1971
18899TIP3    H278113   1.596   6.334   0.301 -2.1799 -0.6132 -0.3457
18900TIP3   OH278114   0.201   4.063  12.416 -0.6967 -0.3239  0.2413
18900TIP3    H178115   0.295   4.068  12.396 -0.6460  0.4734  0.6260
18900TIP3    H278116   0.164   4.012  12.345 -0.1073  0.1079 -0.3909
18901TIP3   OH278117   6.613   4.653  12.219  0.1766 -0.4007  0.7523
18901TIP3    H178118   6.547   4.711  12.182  1.5544  0.3150 -0.6999
18901TIP3    H278119   6.696   4.697  12.201  1.0863 -1.3525  2.3753
18902TIP3   OH278120   5.193   5.684  11.666 -0.0380 -0.2223  0.0819
18902TIP3    H178121   5.203   5.771  11.706 -0.3405 -0.4002  0.5579
18902TIP3    H278122   5.244   5.689  11.585  0.5603  0.1638  0.4721
18903TIP3   OH278123   5.888   0.225   1.793 -0.7130  0.4790 -0.0707
18903TIP3    H178124   5.976   0.261   1.796  0.3839 -1.9908  0.3485
18903TIP3    H278125   5.873   0.190   1.881 -1.6296 -0.1341 -0.4462
18904TIP3   OH278126   0.834   6.040   1.221  0.5188  0.3315  0.0155
18904TIP3    H178127   0.826   5.966   1.281  1.6966  0.7939  0.7792
18904TIP3    H278128   0.757   6.094   1.240  0.0430 -0.3097 -0.0294
18905TIP3   OH278129   3.456   1.579   4.934  0.2278  0.4902  0.0450
18905TIP3    H178130   3.505   1.633   4.872 -0.9321  0.5445 -0.8459
18905TIP3    H278131   3.393   1.639   4.973  0.3445  0.2436  0.6236
18906TIP3   OH278132   2.156   6.691   3.580  0.1378 -0.0714  0.8848
18906TIP3    H178133   2.124   6.613   3.536  2.2670 -0.3996 -0.2049
18906TIP3    H278134   2.190   6.660   3.664 -1.7317  0.1853  1.7705
18907TIP3   OH278135   5.467   4.406   6.414  0.1149  0.3235 -0.2416
18907TIP3    H178136   5.407   4.422   6.487 -0.1914  1.2629 -0.6941
18907TIP3    H278137   5.539   4.357   6.454 -0.1199  0.6882  0.6682
18908TIP3   OH278138   5.205   3.327   2.519 -0.1820  0.4167 -0.2119
18908TIP3    H178139   5.145   3.252   2.526  1.3019 -0.8176 -0.2534
18908TIP3    H278140   5.237   3.339   2.609 -1.1859  1.7074  0.0055
18909TIP3   OH278141   3.737   4.842  11.814  0.0721 -0.3094 -0.6361
18909TIP3    H178142   3.720   4.915  11.874  1.3625 -1.1112  0.7732
18909TIP3    H278143   3.650   4.806  11.796 -0.4390  0.6042 -0.0887
18910TIP3   OH278144   5.250   6.532  12.886  0.0840  0.3555  0.2615
18910TIP3    H178145   5.275   6.617  12.850  0.8490 -0.3776 -1.0055
18910TIP3    H278146   5.173   6.551  12.940  0.7026  1.9651  0.6424
18911TIP3   OH278147   6.729   0.641   1.303 -0.3440 -0.2046  0.1199
18911TIP3    H178148   6.743   0.659   1.210 -2.1959 -2.8219 -0.8037
18911TIP3    H278149   6.817   0.638   1.340  0.5239 -0.1720 -1.7969
18912TIP3   OH278150   1.627   6.046   1.413  0.6792  0.4657  0.4298
18912TIP3    H178151   1.658   5.956   1.406  0.8668  0.5602  0.0357
18912TIP3    H278152   1.625   6.078   1.323  0.5280  0.8266  0.5593
18913TIP3   OH278153   4.783   4.411  13.133 -0.2108  0.2575  0.1856
18913TIP3    H178154   4.735   4.493  13.144  0.1847  0.6360 -0.8026
18913TIP3    H278155   4.766   4.362  13.214 -2.1934  0.3827 -0.1217
18914TIP3   OH278156   5.011   4.027   1.605 -0.1050 -0.7405  0.3127
18914TIP3    H178157   5.024   4.099   1.667 -0.4086  0.2408 -0.7086
18914TIP3    H278158   4.971   3.957   1.656 -0.7656  0.2090  1.1318
18915TIP3   OH278159   2.513   4.532   4.015 -0.5899  0.5644  0.3614
18915TIP3    H178160   2.462   4.583   3.952 -2.0221 -0.3059  0.7499
18915TIP3    H278161   2.476   4.556   4.101 -1.7200 -1.4756  0.5177
18916TIP3   OH278162   4.678   1.366   4.319  0.4396  0.2336  0.4590
18916TIP3    H178163   4.751   1.308   4.339  0.9722  0.9287  0.5773
18916TIP3    H278164   4.718   1.444   4.282 -0.1533  1.0241  1.4105
18917TIP3   OH278165   2.126   4.772  15.963  0.1158  0.9505  0.5007
18917TIP3    H178166   2.162   4.802  16.046  1.7475 -0.9209  0.5510
18917TIP3    H278167   2.133   4.676  15.967  1.4333  0.8272 -2.2615
18918TIP3   OH278168   1.856   3.625  14.326 -0.3121 -0.0411  0.1987
18918TIP3    H178169   1.830   3.645  14.236  0.0576  2.9896  0.6759
18918TIP3    H278170   1.824   3.699  14.378  2.3781 -0.0358  2.0447
18919TIP3   OH278171   1.285   3.113  13.796 -0.3402  0.1057  0.1407
18919TIP3    H178172   1.197   3.107  13.758 -0.3129 -0.5287  0.1737
18919TIP3    H278173   1.290   3.041  13.858  0.7227 -0.8301 -0.9596
18920TIP3   OH278174   2.116   6.199  16.127  0.5567 -0.4551 -0.3609
18920TIP3    H178175   2.193   6.255  16.134  0.0745  0.1298  0.3246
18920TIP3    H278176   2.042   6.256  16.145 -0.1249 -0.8311 -1.7838
18921TIP3   OH278177   1.931   4.380  16.026 -0.6506 -0.1137 -0.5807
18921TIP3    H178178   1.941   4.470  16.055 -2.4743 -0.3094  0.8290
18921TIP3    H278179   1.846   4.378  15.981 -0.2622 -0.9705 -1.3266
18922TIP3   OH278180   3.597   1.622  12.590 -0.0424 -0.0094  0.4251
18922TIP3    H178181   3.548   1.559  12.642 -0.6761  0.4204  0.3565
18922TIP3    H278182   3.552   1.623  12.505  1.2285 -1.0200 -0.2999
18923TIP3   OH278183   2.406   4.235  15.820 -0.1848  0.0004 -0.4008
18923TIP3    H178184   2.441   4.321  15.800 -2.2241  1.0253  0.1614
18923TIP3    H278185   2.362   4.207  15.739  1.3560 -1.0146 -0.9216
18924TIP3   OH278186   5.600   3.018  12.870 -0.0879  0.0927 -0.0689
18924TIP3    H178187   5.532   3.071  12.913  0.1879 -0.1768  0.7282
18924TIP3    H278188   5.675   3.023  12.929 -0.0549 -1.1585  0.0235
18925TIP3   OH278189   2.988   3.859  15.188  0.2251 -0.0519 -0.1588
18925TIP3    H178190   3.036   3.778  15.203  0.1227 -0.2189 -0.7144
18925TIP3    H278191   2.906   3.848  15.236 -0.2208 -0.6975 -1.0338
18926TIP3   OH278192   6.559   0.460   4.156 -0.3514  0.4374 -0.2234
18926TIP3    H178193   6.518   0.389   4.107 -1.0997  2.1832 -2.3061
18926TIP3    H278194   6.645   0.426   4.181 -0.3332 -0.9315 -1.9312
18927TIP3   OH278195   3.519   5.642   0.724  0.1028  0.2374  0.1539
18927TIP3    H178196   3.501   5.736   0.729 -0.3599  0.0912  1.7626
18927TIP3    H278197   3.436   5.600   0.745  0.5445 -0.5254  0.4201
18928TIP3   OH278198   2.737   2.194  13.769  0.2691  0.7361 -0.5295
18928TIP3    H178199   2.767   2.256  13.703  1.1122  0.4323 -0.4483
18928TIP3    H278200   2.646   2.176  13.746  0.5558  0.6203 -1.6141
18929TIP3   OH278201   0.006   4.482  15.408  1.0009 -0.1769  0.1182
18929TIP3    H178202  -0.022   4.573  15.399  1.0414 -0.1985 -0.2247
18929TIP3    H278203  -0.043   4.435  15.340 -0.0874 -0.6509  1.1839
18930TIP3   OH278204   0.705   1.231   4.145  0.1972  0.0095 -0.2433
18930TIP3    H178205   0.691   1.325   4.137  0.1068  0.3527  2.8370
18930TIP3    H278206   0.649   1.192   4.077 -1.8029  2.0695  0.1400
18931TIP3   OH278207   6.754   3.446   2.271 -0.0084 -0.4922 -0.1623
18931TIP3    H178208   6.751   3.411   2.182 -0.6593 -1.2533  0.1510
18931TIP3    H278209   6.812   3.522   2.265 -0.6388 -0.0791 -1.3975
18932TIP3   OH278210   1.936   0.644   5.181  0.1061  0.1361  0.7851
18932TIP3    H178211   1.959   0.735   5.163 -2.1161  0.4076 -1.2399
18932TIP3    H278212   1.841   0.645   5.194  0.2714 -1.6677  2.5532
18933TIP3   OH278213   5.578   2.717   5.038  0.3367 -0.0177 -0.0455
18933TIP3    H178214   5.531   2.799   5.023  0.4900 -0.0270 -0.6376
18933TIP3    H278215   5.649   2.719   4.973  0.2872 -0.6553 -0.1269
18934TIP3   OH278216   6.295   5.853   2.778 -0.6127  0.0346 -0.3888
18934TIP3    H178217   6.241   5.781   2.747  1.1595 -2.2943  1.4757
18934TIP3    H278218   6.296   5.843   2.873  4.6617 -1.6029 -0.2621
18935TIP3   OH278219   6.444   5.917   3.479  0.1301  0.2647 -0.0124
18935TIP3    H178220   6.503   5.867   3.535  1.0053  0.0972 -1.0473
18935TIP3    H278221   6.493   5.997   3.457 -0.8891  1.1736  0.8740
18936TIP3   OH278222   6.442   4.881  12.601 -0.0044 -0.5836 -0.1895
18936TIP3    H178223   6.456   4.866  12.508  1.7198  0.8093 -0.2001
18936TIP3    H278224   6.452   4.976  12.613  2.1187 -0.9512  1.7222
18937TIP3   OH278225   6.329   5.656   4.050 -0.0735  0.3764 -0.5820
18937TIP3    H178226   6.417   5.683   4.025 -0.2902  2.6570  0.8105
18937TIP3    H278227   6.277   5.666   3.970  0.7763 -0.3303 -1.2319
18938TIP3   OH278228   2.460   1.431  16.476 -0.0446 -0.2579 -0.5810
18938TIP3    H178229   2.516   1.377  16.531  1.8974  0.2625 -1.9387
18938TIP3    H278230   2.418   1.370  16.416 -0.3957 -0.5828 -0.0095
18939TIP3   OH278231   6.263   6.664   4.750 -0.4398 -0.3988  0.0104
18939TIP3    H178232   6.234   6.602   4.683 -0.2290 -2.2729  1.5691
18939TIP3    H278233   6.194   6.662   4.816 -0.0997  0.5448  0.4105
18940TIP3   OH278234   4.781   1.622   1.483 -0.0636 -0.2626  0.4359
18940TIP3    H178235   4.767   1.698   1.427 -1.0411 -1.1387 -0.5492
18940TIP3    H278236   4.856   1.646   1.538  0.2254  1.0447 -0.4870
18941TIP3   OH278237   0.319   0.183   6.495 -0.1027 -0.0370  0.4666
18941TIP3    H178238   0.243   0.227   6.456  0.3037  2.2020  1.9693
18941TIP3    H278239   0.285   0.099   6.526 -2.1369  1.1113  1.5464
18942TIP3   OH278240   4.525   1.393  16.034 -0.0703 -0.0699  0.4398
18942TIP3    H178241   4.594   1.457  16.050  0.7309 -1.0883  1.1521
18942TIP3    H278242   4.444   1.438  16.059  0.4016  0.8567  0.3508
18943TIP3   OH278243   2.230   3.548   5.924 -0.2191  0.5828  0.1607
18943TIP3    H178244   2.158   3.536   5.986  0.3228  1.1184  0.9080
18943TIP3    H278245   2.308   3.556   5.979  0.3510  0.4826 -0.6196
18944TIP3   OH278246   4.207   6.689   3.944 -0.2190  0.7063 -0.2641
18944TIP3    H178247   4.207   6.608   3.893  1.0761 -0.6610  1.7696
18944TIP3    H278248   4.298   6.720   3.939 -0.3512  1.1829  0.2511
18945TIP3   OH278249   4.703   6.032   3.125  0.0783 -0.2978 -0.1764
18945TIP3    H178250   4.666   5.999   3.043 -0.6427  0.6347 -0.2416
18945TIP3    H278251   4.683   5.964   3.189 -1.3301 -0.0440 -0.3194
18946TIP3   OH278252   3.062   0.276   4.102  0.6034  0.0914 -0.0356
18946TIP3    H178253   3.011   0.228   4.037  1.0958 -0.8401  0.2612
18946TIP3    H278254   3.152   0.246   4.090  0.8086  0.4232  0.6165
18947TIP3   OH278255   4.611   3.632  15.342  0.0515  0.0632 -0.0041
18947TIP3    H178256   4.697   3.600  15.315  0.0598 -0.4971  0.6671
18947TIP3    H278257   4.576   3.563  15.398  0.3707  1.5191  2.1009
18948TIP3   OH278258   0.939   4.846   6.141  0.0846 -0.5253  0.1256
18948TIP3    H178259   1.031   4.820   6.135  0.4207  0.5909  0.2255
18948TIP3    H278260   0.901   4.784   6.204  0.8546 -0.7692  0.3697
18949TIP3   OH278261   1.672   3.785   4.094 -0.7029 -0.3250  0.4453
18949TIP3    H178262   1.731   3.771   4.168  0.3585 -0.9285 -0.4807
18949TIP3    H278263   1.613   3.710   4.097 -2.2839  0.8865  2.0904
18950TIP3   OH278264   1.435   2.190   4.289  0.4332  0.2222  0.2709
18950TIP3    H178265   1.511   2.132   4.286  0.0388 -0.2701 -0.6139
18950TIP3    H278266   1.366   2.136   4.327 -0.3802 -0.4740 -2.0125
18951TIP3   OH278267   1.551   2.243  16.624  0.0103  0.1160 -0.8960
18951TIP3    H178268   1.566   2.338  16.622  0.4375  0.2295  2.3144
18951TIP3    H278269   1.636   2.205  16.600  0.2151  0.5708 -0.9134
18952TIP3   OH278270   6.619   0.943  12.040 -0.5655 -0.1736  0.5051
18952TIP3    H178271   6.689   0.963  12.103  0.6023 -2.1790 -0.0656
18952TIP3    H278272   6.616   1.020  11.983  1.5292 -0.2075  0.2640
18953TIP3   OH278273   0.867   2.215   0.673 -0.3199 -0.0014 -0.2225
18953TIP3    H178274   0.828   2.253   0.594 -0.5639  0.3870  0.0777
18953TIP3    H278275   0.847   2.121   0.667 -0.8213  0.1090 -0.3530
18954TIP3   OH278276   3.015   6.563   5.267  0.7660  0.2074 -0.9425
18954TIP3    H178277   3.084   6.521   5.318  1.1138  1.4833 -0.3442
18954TIP3    H278278   3.028   6.530   5.178  0.3264 -1.8244 -0.3192
18955TIP3   OH278279   0.878   6.436   3.461  0.0113  0.0062 -0.1595
18955TIP3    H178280   0.839   6.350   3.443  1.3761 -0.5399 -0.6432
18955TIP3    H278281   0.827   6.470   3.535 -1.0457 -0.8703 -0.4472
18956TIP3   OH278282   3.351   5.955  13.413  0.2382  0.1284 -0.8613
18956TIP3    H178283   3.433   5.910  13.390  0.7433  0.8868 -0.5953
18956TIP3    H278284   3.360   6.042  13.376  0.8554  1.2183  1.5993
18957TIP3   OH278285   5.137   1.595   3.683 -0.2868  0.2747 -0.8001
18957TIP3    H178286   5.089   1.640   3.753 -0.0130 -0.9543  0.2159
18957TIP3    H278287   5.071   1.539   3.641 -0.0595 -0.3745 -0.3059
18958TIP3   OH278288   6.196   3.996  14.899  0.2316 -0.1093  0.2781
18958TIP3    H178289   6.140   3.982  14.823  1.1399  1.3250 -0.7114
18958TIP3    H278290   6.277   4.030  14.863  0.9663 -0.1104  1.8487
18959TIP3   OH278291   6.123   0.606  10.394  0.6537  0.3629  0.0808
18959TIP3    H178292   6.186   0.661  10.347  1.4007  1.4995  2.2522
18959TIP3    H278293   6.176   0.537  10.434 -0.1147 -1.2598 -1.5350
18960TIP3   OH278294   2.317   5.113  14.922 -0.2795 -0.5585  0.3927
18960TIP3    H178295   2.293   5.121  14.830 -0.0308 -0.9622  0.2924
18960TIP3    H278296   2.354   5.198  14.945 -0.4146 -0.4324  0.1428
18961TIP3   OH278297   1.481   1.902  11.844 -0.1226  0.2343 -0.5669
18961TIP3    H178298   1.545   1.836  11.871 -0.2390  0.6650  0.8193
18961TIP3    H278299   1.533   1.975  11.812  0.0339  0.0433 -0.7530
18962TIP3   OH278300   6.636   1.160  13.250  0.2949  0.0221 -0.4340
18962TIP3    H178301   6.682   1.239  13.277  3.5755 -1.3759 -1.4317
18962TIP3    H278302   6.606   1.179  13.161  2.9511 -0.4178 -1.5309
18963TIP3   OH278303   3.519   2.438  14.180  0.2043  0.2464  1.0101
18963TIP3    H178304   3.600   2.447  14.230  0.3100  0.1868  0.8510
18963TIP3    H278305   3.449   2.455  14.243  0.3255  5.6950  0.1927
18964TIP3   OH278306   0.120   5.594   2.570  0.3584 -0.0321 -0.8364
18964TIP3    H178307   0.187   5.577   2.636  1.9474 -1.5512 -2.6803
18964TIP3    H278308   0.081   5.677   2.596  3.5144  1.3714 -0.0230
18965TIP3   OH278309   3.284   4.252   0.904 -0.6745 -0.4612 -0.2413
18965TIP3    H178310   3.331   4.299   0.973 -1.3697 -2.0276  1.3732
18965TIP3    H278311   3.299   4.305   0.826  1.3889  0.5972  0.7681
18966TIP3   OH278312   5.440   5.248   2.965 -0.4650 -0.2770  0.0805
18966TIP3    H178313   5.415   5.173   2.910  0.1881 -1.2853  1.1046
18966TIP3    H278314   5.483   5.309   2.905  0.5931 -1.5260 -0.4810
18967TIP3   OH278315   1.626   1.019   1.433  0.1376  0.2999  0.2091
18967TIP3    H178316   1.618   0.976   1.518  1.2404  0.0908  0.2190
18967TIP3    H278317   1.540   1.008   1.392 -0.2426 -0.0429  1.0835
18968TIP3   OH278318   4.141   2.233   1.414  0.4777 -0.2117 -0.6402
18968TIP3    H178319   4.189   2.181   1.349  1.0430 -0.8804  0.2928
18968TIP3    H278320   4.151   2.184   1.496 -1.4452 -0.1469 -0.3256
18969TIP3   OH278321   5.044   1.890  11.708  0.1179 -0.1562  0.1394
18969TIP3    H178322   5.121   1.934  11.671  1.0372 -2.1702 -0.4633
18969TIP3    H278323   5.032   1.932  11.793  0.3415  1.9008 -0.7779
18970TIP3   OH278324   1.900   0.188  13.470  0.2082  0.2925  0.5757
18970TIP3    H178325   1.919   0.205  13.563  0.9936  0.9715  0.3031
18970TIP3    H278326   1.922   0.096  13.458  0.6499  0.3438  0.9377
18971TIP3   OH278327   3.516   5.727   3.297 -0.3666  0.4406 -0.1954
18971TIP3    H178328   3.525   5.663   3.226  3.1478  0.1267  0.3495
18971TIP3    H278329   3.556   5.807   3.262  0.8956  0.4452  1.1409
18972TIP3   OH278330   2.984   2.504   0.183  0.0168  0.0637  0.4316
18972TIP3    H178331   3.030   2.453   0.249  1.1849 -1.1703 -1.2256
18972TIP3    H278332   2.906   2.452   0.162  0.2825 -0.1772  0.0099
18973TIP3   OH278333   2.286   0.919  12.241  0.0707 -0.2808  0.1168
18973TIP3    H178334   2.275   0.845  12.301  0.1843 -0.2145  0.2202
18973TIP3    H278335   2.197   0.950  12.225  0.0552 -0.1662  0.4214
18974TIP3   OH278336   0.543   4.127   0.814 -0.8044 -0.3790 -0.2015
18974TIP3    H178337   0.569   4.216   0.839 -1.3921  0.3472 -1.9771
18974TIP3    H278338   0.484   4.140   0.739  0.1359 -2.3079 -1.3463
18975TIP3   OH278339   2.095   1.027  10.737 -0.2294 -0.0576 -0.5971
18975TIP3    H178340   2.140   1.112  10.738  2.4245 -1.3856 -0.0251
18975TIP3    H278341   2.040   1.029  10.816  0.8328  0.6492  0.1659
18976TIP3   OH278342   1.749   4.887   1.969 -0.4878  0.0345 -0.0035
18976TIP3    H178343   1.834   4.922   1.998  0.3020 -1.4683 -0.4083
18976TIP3    H278344   1.712   4.847   2.047 -0.8518  0.7128  0.1792
18977TIP3   OH278345   4.608   0.193   2.847 -0.6436 -0.5436  0.3598
18977TIP3    H178346   4.613   0.285   2.821  0.4165 -0.5556  0.4875
18977TIP3    H278347   4.514   0.172   2.842 -0.8461  0.4058 -0.1185
18978TIP3   OH278348   6.725   5.758   0.180  0.1508 -0.0159  0.3506
18978TIP3    H178349   6.727   5.824   0.110  0.2475 -2.7586 -2.4836
18978TIP3    H278350   6.633   5.753   0.204 -0.3878 -0.9051 -1.6597
18979TIP3   OH278351   3.554   1.458   6.608 -0.4214  0.1393 -0.2061
18979TIP3    H178352   3.610   1.469   6.532  0.5101 -0.0594  0.4425
18979TIP3    H278353   3.593   1.386   6.658 -0.3367  1.0267  1.0595
18980TIP3   OH278354   2.615   6.745  13.587 -0.4792  0.2801  0.3043
18980TIP3    H178355   2.520   6.752  13.582 -0.2999  3.6909 -0.3599
18980TIP3    H278356   2.633   6.729  13.679 -1.6736  2.7815  1.0623
18981TIP3   OH278357   1.128   1.004  14.154 -0.1300  0.4852  0.2585
18981TIP3    H178358   1.049   1.057  14.158  1.3242  2.9195 -0.8604
18981TIP3    H278359   1.162   1.006  14.243  0.5705  2.6925  0.0169
18982TIP3   OH278360   0.673   4.881  11.751 -0.5669 -0.2002 -0.4128
18982TIP3    H178361   0.607   4.867  11.818 -0.2465 -0.4008 -0.1362
18982TIP3    H278362   0.684   4.795  11.710 -0.6830 -0.1025 -0.6515
18983TIP3   OH278363   1.267   1.983   1.077 -0.1281  0.9795  0.0917
18983TIP3    H178364   1.361   1.969   1.086 -0.2813  0.2142  0.6177
18983TIP3    H278365   1.255   2.076   1.097  0.1395  0.4322  3.6060
18984TIP3   OH278366   2.646   5.238  16.453 -0.0524 -0.2688 -0.3786
18984TIP3    H178367   2.684   5.301  16.514  1.8166 -0.4470 -1.2886
18984TIP3    H278368   2.686   5.260  16.368 -0.8418 -1.4668 -1.0889
18985TIP3   OH278369   4.887   4.484   3.064  0.6269 -0.1549 -0.4771
18985TIP3    H178370   4.902   4.568   3.021  0.6484  0.3540  0.5093
18985TIP3    H278371   4.919   4.496   3.153 -1.0396 -0.6010  0.2249
18986TIP3   OH278372   3.755   5.538   4.892 -0.0594 -0.3051 -0.0300
18986TIP3    H178373   3.834   5.549   4.944  0.0097  1.5412 -0.4819
18986TIP3    H278374   3.762   5.448   4.857  0.9581 -0.7745  1.3167
18987TIP3   OH278375   6.000   2.775  14.109  0.7462  0.4379 -0.2335
18987TIP3    H178376   5.930   2.799  14.048 -1.5014  0.9869  2.3457
18987TIP3    H278377   6.058   2.851  14.110 -0.2935  1.2562 -0.2095
18988TIP3   OH278378   5.541   0.330  13.339 -0.2716  0.6038  0.3307
18988TIP3    H178379   5.623   0.296  13.373 -1.4549  0.8819  3.9209
18988TIP3    H278380   5.517   0.270  13.268  1.8277 -0.8841  0.8012
18989TIP3   OH278381   3.238   2.125   0.458  0.1608 -0.1482 -0.3421
18989TIP3    H178382   3.159   2.113   0.405 -0.0762 -0.0382 -0.0165
18989TIP3    H278383   3.237   2.217   0.482 -0.4433 -0.4603  0.9478
18990TIP3   OH278384   6.533   6.094  13.292  0.2845 -0.2008  0.2881
18990TIP3    H178385   6.591   6.019  13.300  1.2538  0.5474  0.5042
18990TIP3    H278386   6.500   6.090  13.202  0.4761 -0.7668  0.2408
18991TIP3   OH278387   2.466   3.033   1.495  0.9387  0.2325  0.1349
18991TIP3    H178388   2.522   3.103   1.529  0.5693 -0.9486  3.5714
18991TIP3    H278389   2.525   2.960   1.480  1.0621  0.6695 -1.8222
18992TIP3   OH278390   6.466   1.023  13.436 -0.4254 -0.2261 -0.4269
18992TIP3    H178391   6.510   1.033  13.352  0.2466  0.1860 -0.0304
18992TIP3    H278392   6.458   1.112  13.470 -1.7381 -0.2647 -0.5699
18993TIP3   OH278393   6.393   5.335  14.461 -0.4989  0.5625 -0.5019
18993TIP3    H178394   6.400   5.264  14.397  0.7214 -0.4304  0.6473
18993TIP3    H278395   6.478   5.335  14.505 -1.3651  1.0268  1.2616
18994TIP3   OH278396   5.404   1.531   6.110  0.2589  0.4350 -0.2724
18994TIP3    H178397   5.310   1.548   6.119  0.1377 -0.5450  0.4966
18994TIP3    H278398   5.413   1.438   6.127  1.7158  0.9984  2.7928
18995TIP3   OH278399   3.685   3.594   1.921  0.2854 -0.0899  0.4026
18995TIP3    H178400   3.736   3.608   2.000  1.4798 -0.2660 -0.3124
18995TIP3    H278401   3.724   3.652   1.856  0.5335 -1.2681 -0.5521
18996TIP3   OH278402   4.983   2.126  16.398  0.1325 -1.0571 -0.4518
18996TIP3    H178403   4.959   2.038  16.370  0.1764 -0.9011 -0.9903
18996TIP3    H278404   4.900   2.167  16.422 -0.0960 -0.6931 -1.8017
18997TIP3   OH278405   4.023   2.411   3.349  0.5694 -0.2089 -0.1000
18997TIP3    H178406   4.044   2.319   3.362 -1.4680 -0.9494 -1.3848
18997TIP3    H278407   4.016   2.448   3.437 -1.9558 -2.1920  0.6695
18998TIP3   OH278408   1.469   6.073  13.567  0.1238  0.1136 -0.0757
18998TIP3    H178409   1.451   6.162  13.537 -1.6342 -0.0139  0.5061
18998TIP3    H278410   1.419   6.017  13.507 -1.3847 -0.2754  1.4740
18999TIP3   OH278411   1.164   6.186  11.076 -0.4400  0.3721 -0.0157
18999TIP3    H178412   1.231   6.148  11.020 -0.7544  2.8043 -2.2240
18999TIP3    H278413   1.208   6.197  11.161  0.3774 -2.4365  0.0325
19000TIP3   OH278414   3.304   4.275   2.580 -0.0384  0.0663  0.2007
19000TIP3    H178415   3.303   4.252   2.487 -2.8704  2.5680 -0.5280
19000TIP3    H278416   3.310   4.190   2.625 -0.2967 -1.3539 -2.2421
19001TIP3   OH278417   4.196   2.152   1.708 -0.6328  0.4170  0.7413
19001TIP3    H178418   4.239   2.077   1.749 -0.7277  0.7713  1.5089
19001TIP3    H278419   4.103   2.128   1.706 -0.5702  0.2027  0.2928
19002TIP3   OH278420   2.465   6.714   3.575  0.0234 -0.1716  0.0761
19002TIP3    H178421   2.385   6.671   3.543  0.1726 -0.0814 -0.4321
19002TIP3    H278422   2.501   6.653   3.640 -1.1948  0.4149  1.3459
19003TIP3   OH278423   3.118   4.030  16.665 -0.1932 -0.0932 -0.4405
19003TIP3    H178424   3.194   4.051  16.719 -1.8548  1.5435  1.3976
19003TIP3    H278425   3.117   3.934  16.662  1.5932 -0.1563 -0.0352
19004TIP3   OH278426   4.636   3.970  12.491  0.2600 -0.7954 -0.0620
19004TIP3    H178427   4.701   3.955  12.422 -0.8204 -2.4370 -0.8118
19004TIP3    H278428   4.647   3.896  12.551  0.5958  0.1463  1.0813
19005TIP3   OH278429   2.984   3.835   1.824  0.7532 -0.0992  0.1809
19005TIP3    H178430   2.939   3.871   1.748 -2.4631 -1.1410  1.4333
19005TIP3    H278431   2.958   3.891   1.897  0.8597 -1.1901  1.0926
19006TIP3   OH278432   1.749   5.841  16.547  0.4594  0.4111 -0.3077
19006TIP3    H178433   1.821   5.903  16.537  0.8579  0.2421  1.2025
19006TIP3    H278434   1.693   5.857  16.471  0.7023  2.4347 -0.1332
19007TIP3   OH278435   5.725   0.776   4.374 -0.3877  0.1632  0.0976
19007TIP3    H178436   5.706   0.868   4.360 -0.9467 -0.0332 -0.5128
19007TIP3    H278437   5.820   0.770   4.374 -0.3327  0.8685  1.0708
19008TIP3   OH278438   4.554   1.104  14.418  0.4126  0.3330 -0.2178
19008TIP3    H178439   4.482   1.051  14.382  0.5611  0.8816 -1.3726
19008TIP3    H278440   4.510   1.174  14.466  0.0697  1.6936 -2.3771
19009TIP3   OH278441   1.710   0.375  11.504 -0.0807 -0.5036 -0.1554
19009TIP3    H178442   1.672   0.459  11.479 -0.1083 -0.4155  0.1837
19009TIP3    H278443   1.711   0.376  11.599 -2.0474 -1.7506 -0.0715
19010TIP3   OH278444   5.408   0.644  16.487  0.5684 -0.1779  0.2172
19010TIP3    H178445   5.456   0.726  16.477  1.8786 -1.0545 -1.0849
19010TIP3    H278446   5.342   0.646  16.418  0.8764 -0.3866 -0.0876
19011TIP3   OH278447   1.769   6.207   5.756  0.2235  0.0581 -0.1367
19011TIP3    H178448   1.728   6.201   5.842 -0.2037 -0.0823 -0.3472
19011TIP3    H278449   1.857   6.171   5.768 -0.1219 -0.7400  0.0533
19012TIP3   OH278450   0.559   2.216  11.426 -0.2133 -0.1989 -0.4234
19012TIP3    H178451   0.561   2.297  11.477 -1.2357 -0.5377  0.1751
19012TIP3    H278452   0.651   2.190  11.420 -0.0481 -0.0845  1.1735
19013TIP3   OH278453   6.001   1.270   3.250 -0.2721 -0.4048  0.5752
19013TIP3    H178454   6.091   1.262   3.281  0.0451 -0.3873 -0.3136
19013TIP3    H278455   5.958   1.190   3.279  0.8233 -1.8447 -1.5888
19014TIP3   OH278456   2.019   3.393   4.560 -0.1527  0.0815 -0.6075
19014TIP3    H178457   2.113   3.402   4.543  0.1905  0.6204  1.2612
19014TIP3    H278458   2.002   3.299   4.555  1.1203 -0.3500  1.7188
19015TIP3   OH278459   0.628   0.694  16.871 -0.1171 -0.0933 -0.0863
19015TIP3    H178460   0.684   0.628  16.831  0.1038  0.7303 -1.1695
19015TIP3    H278461   0.681   0.730  16.942 -0.0619 -0.7205  0.2064
19016TIP3   OH278462   3.791   6.278   4.499 -0.5312  0.3094 -0.4146
19016TIP3    H178463   3.796   6.332   4.578 -0.7501  0.7981 -0.7287
19016TIP3    H278464   3.881   6.273   4.468 -0.7265  2.2806 -1.5425
19017TIP3   OH278465   6.578   3.215   1.521  0.5143 -0.3769 -0.2803
19017TIP3    H178466   6.539   3.234   1.435 -2.7071 -1.4368  0.7751
19017TIP3    H278467   6.580   3.300   1.565 -1.2366 -0.3154 -0.2210
19018TIP3   OH278468   6.157   3.125   6.093 -0.0042 -0.0803 -0.1512
19018TIP3    H178469   6.136   3.032   6.085 -0.0617 -0.0516 -0.3360
19018TIP3    H278470   6.108   3.167   6.023  1.2581 -0.0990 -1.0717
19019TIP3   OH278471   4.982   3.402  11.019  0.2182  0.2182 -0.3271
19019TIP3    H178472   4.889   3.398  10.995 -0.3171 -0.7366  1.6906
19019TIP3    H278473   5.009   3.311  11.028  0.7714  0.4999  1.0926
19020TIP3   OH278474   5.844   4.283  15.534  0.3711 -0.3024 -0.4319
19020TIP3    H178475   5.793   4.239  15.602  1.1287 -1.0504 -0.3347
19020TIP3    H278476   5.779   4.330  15.481 -0.3260 -0.5841  0.1684
19021TIP3   OH278477   0.810   6.244   1.582 -0.3025 -0.0408  0.3938
19021TIP3    H178478   0.797   6.160   1.626  1.0464  0.6191  2.1421
19021TIP3    H278479   0.903   6.264   1.593 -0.3923  1.2698 -0.8020
19022TIP3   OH278480   6.185   5.450  13.091  0.2121  0.3565 -0.4746
19022TIP3    H178481   6.244   5.376  13.098  0.4503  0.6875  3.1056
19022TIP3    H278482   6.097   5.412  13.101  0.3568  0.4589  1.8311
19023TIP3   OH278483   0.189   4.021   0.394  0.5384 -0.1433  0.0519
19023TIP3    H178484   0.186   3.934   0.354  0.1825  0.2526 -0.7911
19023TIP3    H278485   0.231   4.006   0.479  1.1076 -1.0303 -0.3656
19024TIP3   OH278486   6.003   4.670   5.470 -0.3848  0.8775  0.6600
19024TIP3    H178487   5.962   4.595   5.427  2.4472 -1.0331  0.9492
19024TIP3    H278488   5.986   4.657   5.563  0.6975  0.1002  0.7774
19025TIP3   OH278489   2.937   5.595  13.697  0.2342  0.2419  0.3070
19025TIP3    H178490   3.002   5.568  13.632 -0.6691  0.9048 -0.8974
19025TIP3    H278491   2.957   5.541  13.774  3.2068  1.4933  0.5693
19026TIP3   OH278492   2.536   1.676   1.486  0.1186  0.1474  0.4394
19026TIP3    H178493   2.499   1.730   1.416 -1.1022  0.5323  1.3267
19026TIP3    H278494   2.572   1.740   1.548  1.0955 -0.1815  0.2147
19027TIP3   OH278495   2.718   4.337  17.020 -0.1612  0.0249 -0.1064
19027TIP3    H178496   2.806   4.308  16.997  0.3088  1.3979 -0.1266
19027TIP3    H278497   2.728   4.376  17.106 -1.1183 -1.3756  0.6820
19028TIP3   OH278498   0.058   2.409   3.459  0.1496  0.7453  0.6513
19028TIP3    H178499   0.013   2.351   3.521 -0.0425  0.3754  0.1700
19028TIP3    H278500   0.120   2.351   3.413 -1.2142  0.5427 -1.0188
19029TIP3   OH278501   2.362   6.511  11.910 -0.2158  0.0137 -0.1713
19029TIP3    H178502   2.436   6.467  11.952 -0.1527  0.2001 -0.0891
19029TIP3    H278503   2.294   6.513  11.977 -0.9035 -1.6559 -0.7487
19030TIP3   OH278504   1.967   2.609   2.853 -0.3191 -0.6655 -0.5262
19030TIP3    H178505   1.983   2.618   2.759 -0.8379 -0.5718 -0.6112
19030TIP3    H278506   2.011   2.528   2.878  1.1609  0.1079 -0.5308
19031TIP3   OH278507   2.799   5.632   3.207 -0.4892  0.2309 -0.1166
19031TIP3    H178508   2.710   5.639   3.172 -0.3633 -0.1064 -0.5065
19031TIP3    H278509   2.848   5.586   3.139 -0.1386 -0.0492  0.3236
19032TIP3   OH278510   2.957   1.941  11.852 -0.0647  0.6132  0.4039
19032TIP3    H178511   2.864   1.925  11.835  0.1573  0.0173 -0.2965
19032TIP3    H278512   2.978   1.884  11.926  0.2141 -0.8364 -0.7379
19033TIP3   OH278513   3.655   0.976   5.150  0.3765 -0.6042  0.0833
19033TIP3    H178514   3.747   0.957   5.131  0.4403 -0.3069  0.0791
19033TIP3    H278515   3.629   1.037   5.080  0.0046 -1.1610 -0.2669
19034TIP3   OH278516   1.717   0.917   3.428 -0.3045 -0.0523  0.2128
19034TIP3    H178517   1.738   0.829   3.459  2.7381  0.3052 -0.4989
19034TIP3    H278518   1.731   0.973   3.504  1.3431  0.1740 -0.2298
19035TIP3   OH278519   6.390   5.993  13.870 -0.0619 -0.1674 -0.4638
19035TIP3    H178520   6.383   5.950  13.955  0.0310 -1.1668 -0.9492
19035TIP3    H278521   6.303   6.029  13.854 -0.7732 -1.9797 -0.9598
19036TIP3   OH278522   4.817   6.567   2.993 -0.3757  0.3038 -0.3367
19036TIP3    H178523   4.779   6.483   3.020 -1.2819  0.5927 -0.6592
19036TIP3    H278524   4.760   6.633   3.033  1.6317  0.8681  1.8672
19037TIP3   OH278525   6.026   6.147   5.273  0.0133 -0.5595 -0.0773
19037TIP3    H178526   6.052   6.059   5.245 -0.3617 -0.7999  0.3140
19037TIP3    H278527   5.973   6.181   5.201 -1.0600 -1.2240  0.3780
19038TIP3   OH278528   4.197   5.305  11.591  0.1464 -0.3954  0.0971
19038TIP3    H178529   4.253   5.333  11.519  1.9775 -0.7516  1.3316
19038TIP3    H278530   4.149   5.230  11.556 -0.6080  0.7260 -1.4015
19039TIP3   OH278531   1.942   4.422   5.240 -0.2609  0.0030 -0.2321
19039TIP3    H178532   1.969   4.360   5.172 -0.8121 -0.4645 -0.0379
19039TIP3    H278533   1.850   4.399   5.257 -0.8125  1.5718 -0.9201
19040TIP3   OH278534   0.091   6.242   5.311  0.2268  0.3707  0.6099
19040TIP3    H178535   0.027   6.269   5.246 -0.3304 -1.4834  0.3474
19040TIP3    H278536   0.174   6.238   5.262 -0.3831 -2.1571 -0.3769
19041TIP3   OH278537   2.398   4.371  10.715 -0.2822 -0.0781 -0.0037
19041TIP3    H178538   2.305   4.374  10.694 -0.4803 -2.2945  0.3360
19041TIP3    H278539   2.421   4.462  10.733 -2.5657  0.4341  0.6935
19042TIP3   OH278540   2.635   5.847  14.635  1.0959  0.4752 -0.7942
19042TIP3    H178541   2.616   5.941  14.643  1.1040  0.4844 -0.8794
19042TIP3    H278542   2.552   5.808  14.610  0.4516  0.1013  1.6741
19043TIP3   OH278543   0.976   2.283   1.876  0.1867  0.4401  0.3145
19043TIP3    H178544   0.887   2.316   1.880  0.4725  1.1505  0.9648
19043TIP3    H278545   0.984   2.225   1.952  0.3145  0.4537  0.3113
19044TIP3   OH278546   5.744   4.120   3.322 -0.0986  0.1157 -0.3687
19044TIP3    H178547   5.760   4.026   3.329  0.3404  0.2415  0.5670
19044TIP3    H278548   5.830   4.160   3.338 -0.4144  0.6883 -0.0544
19045TIP3   OH278549   2.682   2.761  13.859 -0.6330 -0.0659  0.4073
19045TIP3    H178550   2.705   2.818  13.932  0.2758 -0.7324  0.6675
19045TIP3    H278551   2.719   2.805  13.782  0.5067 -0.5072  0.6676
19046TIP3   OH278552   4.286   1.763   3.806 -0.1727  0.1267  0.1672
19046TIP3    H178553   4.324   1.729   3.724 -2.1646  0.6478 -1.0364
19046TIP3    H278554   4.259   1.685   3.854  0.6370 -0.1683  0.1698
19047TIP3   OH278555   4.918   0.272  14.583 -0.3907  0.4955  0.1011
19047TIP3    H178556   4.824   0.279  14.599 -0.5482 -0.0900 -0.5640
19047TIP3    H278557   4.927   0.210  14.511  0.5946 -0.8429  1.3141
19048TIP3   OH278558   5.903   5.815  12.986 -0.2194  0.2747  0.0389
19048TIP3    H178559   5.911   5.724  12.958  1.3355  0.4321 -0.1029
19048TIP3    H278560   5.937   5.816  13.076  4.3927  1.4292 -1.4551
19049TIP3   OH278561   2.709   5.051   3.026 -0.1410 -0.3364  0.7230
19049TIP3    H178562   2.756   4.969   3.011 -1.7375 -0.9714 -1.2297
19049TIP3    H278563   2.739   5.110   2.957 -1.6572 -0.5298 -0.1362
19050TIP3   OH278564   2.232   1.269  11.322 -0.2952  0.3627  0.7961
19050TIP3    H178565   2.233   1.219  11.240  0.0620  0.0819  0.9666
19050TIP3    H278566   2.223   1.202  11.390  3.9322  0.0358  1.3287
19051TIP3   OH278567   1.221   0.612  13.619  0.1196 -0.4317  0.3215
19051TIP3    H178568   1.206   0.616  13.713 -2.6261  2.2464 -0.0481
19051TIP3    H278569   1.282   0.684  13.601  0.5255 -0.8458  0.0139
19052TIP3   OH278570   1.619   1.369  16.252  0.1033 -0.1538  0.0954
19052TIP3    H178571   1.524   1.367  16.244 -0.0422  0.5485  1.4121
19052TIP3    H278572   1.648   1.425  16.180 -0.3994 -0.9033 -0.7199
19053TIP3   OH278573   2.909   4.183  16.144 -0.2492  0.2085 -0.4152
19053TIP3    H178574   2.928   4.227  16.061  0.8505  2.5612  0.9827
19053TIP3    H278575   2.820   4.211  16.166 -0.4729 -0.2665 -0.7234
19054TIP3   OH278576   4.791   4.352  16.639 -0.1332  0.7197  0.2602
19054TIP3    H178577   4.790   4.326  16.731  1.4142 -0.9327 -0.1413
19054TIP3    H278578   4.869   4.406  16.630  2.1748 -2.5333 -0.8423
19055TIP3   OH278579   5.319   1.217   4.545 -0.7460  0.7617 -0.2076
19055TIP3    H178580   5.361   1.138   4.579 -2.2769 -0.1765 -0.3910
19055TIP3    H278581   5.277   1.257   4.621 -0.1707  1.2678 -0.1564
19056TIP3   OH278582   1.803   1.827   2.162  0.5338 -0.0477 -0.0269
19056TIP3    H178583   1.820   1.737   2.192  0.4574  0.3439  1.2418
19056TIP3    H278584   1.880   1.850   2.111  1.5909 -0.0667  1.4799
19057TIP3   OH278585   3.630   1.678   4.760  0.0294 -0.1634  0.6967
19057TIP3    H178586   3.699   1.649   4.701 -1.0939  0.6411 -1.1175
19057TIP3    H278587   3.627   1.773   4.748 -0.6520 -0.0560  1.5986
19058TIP3   OH278588   2.794   4.563  12.963  0.3643  0.3955  0.1282
19058TIP3    H178589   2.816   4.632  13.026  0.1993  0.4456  0.1305
19058TIP3    H278590   2.702   4.543  12.980 -0.5011  2.2365 -1.8129
19059TIP3   OH278591   2.306   2.697   3.113 -0.3083  0.6123  0.8778
19059TIP3    H178592   2.275   2.610   3.087 -3.1132  1.6130  0.5518
19059TIP3    H278593   2.324   2.689   3.207 -0.4522 -0.3147  0.8337
19060TIP3   OH278594   5.512   2.838   0.765 -0.8817  0.1201 -0.9383
19060TIP3    H178595   5.605   2.822   0.781 -1.1814 -0.1419  0.7979
19060TIP3    H278596   5.508   2.925   0.726  0.0962  0.1490 -0.9826
19061TIP3   OH278597   3.954   5.530   4.101 -0.6060 -0.3859  0.1043
19061TIP3    H178598   4.039   5.574   4.097 -0.1750 -0.8501  2.3967
19061TIP3    H278599   3.974   5.439   4.076 -0.7619 -0.1447 -0.9307
19062TIP3   OH278600   1.681   1.341  14.962  0.4155  0.0148  0.1337
19062TIP3    H178601   1.614   1.382  14.907  1.4565  2.0510  0.2642
19062TIP3    H278602   1.763   1.356  14.915  0.9530 -1.2175  0.6343
19063TIP3   OH278603   3.442   0.505   4.270  0.1819 -0.7264 -0.1643
19063TIP3    H178604   3.523   0.507   4.219 -0.5083 -0.8296 -1.2991
19063TIP3    H278605   3.469   0.530   4.358  1.5128 -1.1531 -0.4241
19064TIP3   OH278606   5.802   2.214  15.738  0.0028 -0.3399 -0.3170
19064TIP3    H178607   5.833   2.225  15.648  0.5474 -0.6576 -0.1703
19064TIP3    H278608   5.724   2.270  15.743 -1.1403 -1.7087 -1.5477
19065TIP3   OH278609   4.453   4.378   1.447  0.0200  0.6044  0.0317
19065TIP3    H178610   4.367   4.356   1.483  0.4771  0.2157  0.9025
19065TIP3    H278611   4.508   4.303   1.470  0.1825  0.0184 -2.0631
19066TIP3   OH278612   3.477   0.414   2.703 -0.0362 -0.4428 -0.5690
19066TIP3    H178613   3.407   0.403   2.638 -1.3484 -0.0953  0.7316
19066TIP3    H278614   3.487   0.328   2.743  0.1280 -0.4376 -0.5973
19067TIP3   OH278615   4.989   5.311   0.844 -0.7235  0.6280 -0.6600
19067TIP3    H178616   4.977   5.231   0.894 -1.9364  0.5713 -1.0126
19067TIP3    H278617   4.938   5.377   0.890  1.0757  1.4918  0.2073
19068TIP3   OH278618   2.115   4.359  10.755  0.0379 -0.0777  0.3385
19068TIP3    H178619   2.075   4.445  10.740 -1.0412 -0.6337 -0.1219
19068TIP3    H278620   2.042   4.297  10.745  0.3689 -0.9150  2.6374
19069TIP3   OH278621   1.089   3.807  16.657  0.7071  0.2477 -0.0922
19069TIP3    H178622   1.161   3.780  16.599 -0.7212  0.0522 -1.8514
19069TIP3    H278623   1.084   3.902  16.646  2.5458  0.7268  2.3316
19070TIP3   OH278624   4.387   3.850  14.199 -0.3050 -0.0618 -0.5436
19070TIP3    H178625   4.334   3.891  14.268 -1.0386  1.2370 -1.7999
19070TIP3    H278626   4.383   3.913  14.126 -1.3368 -2.2800 -2.5396
19071TIP3   OH278627   2.242   5.413  11.630 -0.3223 -0.4507  0.0680
19071TIP3    H178628   2.324   5.382  11.592 -1.4064 -0.0436 -2.8789
19071TIP3    H278629   2.257   5.506  11.645 -0.0003 -0.5296  0.2392
19072TIP3   OH278630   6.462   5.048   3.179 -0.0322  0.4624  0.1639
19072TIP3    H178631   6.372   5.077   3.166  0.0814  0.4292 -0.7364
19072TIP3    H278632   6.516   5.115   3.137  0.4036  0.7996  1.2254
19073TIP3   OH278633   4.893   4.948   3.324  0.1793  0.9085  0.0598
19073TIP3    H178634   4.928   5.014   3.265 -0.6666  1.0387 -0.3069
19073TIP3    H278635   4.798   4.959   3.320 -0.1140 -1.4093 -1.3307
19074TIP3   OH278636   0.823   0.139  12.427  0.5859 -0.1646  0.5416
19074TIP3    H178637   0.727   0.132  12.436  0.4482  1.9123  1.1761
19074TIP3    H278638   0.843   0.086  12.350 -0.7117 -2.7574  1.8402
19075TIP3   OH278639   0.824   3.249  12.285 -0.1350 -0.2016 -0.1855
19075TIP3    H178640   0.832   3.298  12.368  1.2314  0.6365 -0.7718
19075TIP3    H278641   0.911   3.257  12.245 -0.5120 -1.3757 -1.2820
19076TIP3   OH278642   6.644   1.233   1.934 -0.3568 -0.0638  0.2883
19076TIP3    H178643   6.699   1.171   1.886 -0.7106 -1.8715  2.1146
19076TIP3    H278644   6.601   1.181   2.001 -1.0986  2.0847  1.5867
19077TIP3   OH278645   2.658   2.268  12.100  0.5054 -0.6627 -0.1043
19077TIP3    H178646   2.742   2.252  12.057  0.7754 -0.6064  0.3869
19077TIP3    H278647   2.682   2.297  12.188 -0.0343 -1.2378  0.2435
19078TIP3   OH278648   1.602   3.519   3.337 -0.1608  0.9605  0.5418
19078TIP3    H178649   1.551   3.557   3.409 -0.6544  0.7569  0.3076
19078TIP3    H278650   1.551   3.541   3.259 -0.9738 -1.0028  0.4715
19079TIP3   OH278651   5.260   0.591   1.489  0.3365  0.2840  0.0578
19079TIP3    H178652   5.301   0.571   1.404  0.5498 -2.0198  0.6397
19079TIP3    H278653   5.212   0.511   1.512  0.9051  0.5710  2.4688
19080TIP3   OH278654   0.719   5.794  13.755  0.4127  0.2868  0.1097
19080TIP3    H178655   0.806   5.754  13.744  0.9198  1.5094 -0.5785
19080TIP3    H278656   0.679   5.788  13.668  0.0537  0.2632  0.2774
19081TIP3   OH278657   4.619   5.382  15.541 -0.2582  0.6587 -0.2572
19081TIP3    H178658   4.673   5.408  15.615 -0.3029  1.6678 -0.5704
19081TIP3    H278659   4.582   5.464  15.507  1.9621  0.6566 -3.1124
19082TIP3   OH278660   4.708   5.736  14.215  0.0436 -0.1344 -0.5574
19082TIP3    H178661   4.757   5.655  14.204  0.6337  0.5687 -4.0437
19082TIP3    H278662   4.628   5.709  14.261  1.1456 -2.2661  0.2650
19083TIP3   OH278663   1.147   3.398   0.263  0.0240  0.1384 -0.0224
19083TIP3    H178664   1.082   3.462   0.292 -0.3212 -0.8655  1.4869
19083TIP3    H278665   1.229   3.430   0.300 -0.3010 -0.7582  1.5412
19084TIP3   OH278666   5.460   1.186   3.098  0.0118 -0.8143  0.1058
19084TIP3    H178667   5.522   1.256   3.078 -0.0992 -0.3921  1.1677
19084TIP3    H278668   5.435   1.150   3.012 -0.1350  0.6247 -0.4794
19085TIP3   OH278669   5.413   5.788   0.851 -0.1899 -0.0131 -0.2223
19085TIP3    H178670   5.411   5.732   0.929  0.1638 -0.2663 -0.3910
19085TIP3    H278671   5.506   5.796   0.830 -0.3481 -1.1211 -1.4554
19086TIP3   OH278672   0.225   5.237   3.274  0.4151 -0.3055 -0.5367
19086TIP3    H178673   0.164   5.167   3.296  0.0253 -0.3935 -1.8543
19086TIP3    H278674   0.233   5.287   3.356 -1.8406  0.0187 -0.4442
19087TIP3   OH278675   6.169   5.161   3.166 -0.3734 -0.2594 -0.2734
19087TIP3    H178676   6.084   5.118   3.174 -0.9107  0.5822 -1.2524
19087TIP3    H278677   6.167   5.205   3.081  0.7414  0.4289  0.0216
19088TIP3   OH278678   2.111   5.912  12.764  0.1910  0.6052  0.0292
19088TIP3    H178679   2.065   5.838  12.724 -0.5182  0.5093  0.9648
19088TIP3    H278680   2.196   5.914  12.722  0.3240 -0.9254  0.1781
19089TIP3   OH278681   5.208   5.516   0.884 -0.2613 -0.5061  0.2181
19089TIP3    H178682   5.157   5.442   0.852  0.8275 -1.0861 -0.2308
19089TIP3    H278683   5.266   5.479   0.951  1.5282 -0.4481 -1.2233
19090TIP3   OH278684   4.009   6.155  13.651  0.1963 -0.3707  0.2740
19090TIP3    H178685   4.067   6.130  13.579  1.1615  0.6505  0.6605
19090TIP3    H278686   4.034   6.097  13.723 -0.7886 -1.4111 -0.2068
19091TIP3   OH278687   4.489   0.489  15.393  0.1363 -0.3327  0.0888
19091TIP3    H178688   4.507   0.422  15.460 -0.6440  0.4380  1.1022
19091TIP3    H278689   4.564   0.549  15.398 -0.3286  0.2007  0.9022
19092TIP3   OH278690   1.213   1.134  16.324  0.9609  0.5281  0.6943
19092TIP3    H178691   1.228   1.085  16.243 -0.7942  1.9073 -0.5435
19092TIP3    H278692   1.231   1.225  16.300 -2.7965  1.4611  0.7523
19093TIP3   OH278693   4.534   6.725  10.654  0.1078  0.5730 -0.6823
19093TIP3    H178694   4.521   6.694  10.565  0.0679 -3.0358  0.4375
19093TIP3    H278695   4.446   6.751  10.683  0.1253  1.7990 -1.6399
19094TIP3   OH278696   1.036   5.527   4.865 -0.6031  0.6686 -0.7078
19094TIP3    H178697   0.945   5.508   4.842 -0.2020  0.4924 -2.2679
19094TIP3    H278698   1.049   5.619   4.839 -0.6101  1.0241  0.4783
19095TIP3   OH278699   5.951   4.708  13.215 -0.5054  0.2909  0.1965
19095TIP3    H178700   5.981   4.790  13.254 -0.9911  0.6848 -0.2345
19095TIP3    H278701   5.995   4.703  13.130 -1.7824  0.9826 -0.5350
19096TIP3   OH278702   0.510   4.301  15.346  0.0305  0.1096 -0.6112
19096TIP3    H178703   0.515   4.390  15.378 -0.0470  0.3822 -1.3382
19096TIP3    H278704   0.441   4.303  15.279 -1.0505 -0.8257  0.4149
19097TIP3   OH278705   2.083   6.316  10.431  0.2299  0.4713  0.0668
19097TIP3    H178706   2.056   6.406  10.449 -1.5667  0.1789 -0.8638
19097TIP3    H278707   2.022   6.286  10.363 -0.4327 -2.0226  1.6151
19098TIP3   OH278708   6.163   5.233  14.066  0.4776  0.1914 -0.3239
19098TIP3    H178709   6.249   5.275  14.073  0.2097  0.7464 -0.2738
19098TIP3    H278710   6.109   5.278  14.131 -0.2984  0.9919 -1.4866
19099TIP3   OH278711   5.793   2.083  15.977  0.8732  0.2083  0.1554
19099TIP3    H178712   5.790   2.130  16.061  1.7471 -2.1462  1.6309
19099TIP3    H278713   5.771   2.148  15.911 -0.7054  1.9720  2.2964
19100TIP3   OH278714   2.205   5.062   5.691  0.1077 -0.3557  0.0961
19100TIP3    H178715   2.122   5.110   5.693 -0.4665 -1.1784 -1.6780
19100TIP3    H278716   2.249   5.087   5.772 -0.9846  1.6736  0.1449
19101TIP3   OH278717   1.195   3.482   1.995  0.0863  0.5558  0.3150
19101TIP3    H178718   1.142   3.518   1.925 -2.1383  0.3941  1.8127
19101TIP3    H278719   1.174   3.389   1.997  0.7968  0.3929  0.6425
19102TIP3   OH278720   5.072   3.603   4.790  0.3427  0.2668  0.0579
19102TIP3    H178721   5.161   3.626   4.763  0.2602 -0.7552 -1.2276
19102TIP3    H278722   5.043   3.540   4.723 -2.1337  2.1650 -0.8037
19103TIP3   OH278723   2.974   0.385  17.182  0.3006  0.8576  0.5742
19103TIP3    H178724   3.035   0.385  17.256  0.3621 -0.8222  0.5761
19103TIP3    H278725   2.992   0.466  17.135  2.3424  0.5478  0.7397
19104TIP3   OH278726   4.999   0.892   2.336  0.3756 -0.3154  0.1214
19104TIP3    H178727   4.932   0.918   2.272 -0.0828 -1.1630  0.2525
19104TIP3    H278728   5.071   0.858   2.282  0.7591  0.6959 -0.0245
19105TIP3   OH278729   0.227   1.678  13.849  0.1558  0.0111 -0.3381
19105TIP3    H178730   0.258   1.768  13.838  2.2604 -0.3397  1.8411
19105TIP3    H278731   0.141   1.688  13.890  0.7134  1.0572  0.6448
19106TIP3   OH278732   1.060   4.851  13.626  0.3571 -0.2486 -0.2629
19106TIP3    H178733   1.049   4.823  13.717  0.8371  0.3782 -0.0013
19106TIP3    H278734   1.155   4.854  13.613  0.2923 -0.4803 -0.8320
19107TIP3   OH278735   0.791   3.661  14.997  0.0550  0.1983 -0.5035
19107TIP3    H178736   0.756   3.576  14.970 -0.2780  0.4160 -0.7746
19107TIP3    H278737   0.785   3.661  15.092 -1.0187  0.3672 -0.5643
19108TIP3   OH278738   5.510   3.888  13.635  0.3004  0.6835 -0.7026
19108TIP3    H178739   5.415   3.886  13.629  0.1353  2.0185  0.8186
19108TIP3    H278740   5.533   3.804  13.675 -0.4385  1.1132  0.7117
19109TIP3   OH278741   1.361   1.288  14.049 -0.7406 -0.0708 -0.3101
19109TIP3    H178742   1.440   1.267  13.998 -1.2804 -0.8580 -0.8540
19109TIP3    H278743   1.381   1.255  14.137  0.8250  2.7101  0.4978
19110TIP3   OH278744   4.209   5.101   3.388 -0.4952  0.6420 -0.2609
19110TIP3    H178745   4.126   5.053   3.386 -0.4789  0.5208  0.9277
19110TIP3    H278746   4.264   5.050   3.448  0.2089  1.0777 -0.5305
19111TIP3   OH278747   4.435   5.501  13.126  0.0859 -0.2815 -0.0721
19111TIP3    H178748   4.382   5.549  13.063 -1.6501 -0.4464  1.1876
19111TIP3    H278749   4.418   5.409  13.108 -0.4644 -0.3311  0.6223
19112TIP3   OH278750   2.834   0.951  15.704 -0.4589 -0.1263  0.0646
19112TIP3    H178751   2.849   0.887  15.774  0.8199  1.5333  1.4009
19112TIP3    H278752   2.904   0.934  15.641  0.2367  0.2680  0.7030
19113TIP3   OH278753   1.122   5.611   5.834  0.4758 -0.3986 -0.3675
19113TIP3    H178754   1.134   5.705   5.849 -0.4052  0.1108 -2.4588
19113TIP3    H278755   1.090   5.577   5.918  0.1499  1.2848  0.2280
19114TIP3   OH278756   1.374   0.905  16.444  0.1734  0.1450  0.9601
19114TIP3    H178757   1.335   0.970  16.502  1.7742  1.7841  0.3097
19114TIP3    H278758   1.301   0.850  16.416 -1.1887  1.4670  1.7867
19115TIP3   OH278759   1.437   5.271   5.425 -0.2077 -0.7508 -0.9119
19115TIP3    H178760   1.479   5.356   5.438  0.1216 -0.9577 -0.6081
19115TIP3    H278761   1.433   5.233   5.512  0.3317 -1.3662 -1.1445
19116TIP3   OH278762   2.974   4.545   0.176  0.0923 -0.0440 -0.2492
19116TIP3    H178763   2.926   4.477   0.223 -0.2237  0.4126  0.0947
19116TIP3    H278764   3.066   4.526   0.196  0.0285 -0.5916 -0.4600
19117TIP3   OH278765   2.613   0.277  13.595 -0.3696 -0.1156 -0.0303
19117TIP3    H178766   2.629   0.359  13.642 -2.0142  1.0249 -1.3442
19117TIP3    H278767   2.615   0.210  13.663 -1.0934  1.2742  1.4284
19118TIP3   OH278768   0.367   4.659   3.281  0.7007 -0.4114 -0.1887
19118TIP3    H178769   0.374   4.621   3.193  1.4523  0.2080 -0.4042
19118TIP3    H278770   0.287   4.710   3.278 -1.0741 -2.9651  0.5071
19119TIP3   OH278771   1.061   1.214  12.803  0.2215 -0.3647 -0.3917
19119TIP3    H178772   1.024   1.243  12.720  0.6203  0.0743 -0.4166
19119TIP3    H278773   0.986   1.205  12.861 -0.0206 -0.3550 -0.7010
19120TIP3   OH278774   4.095   0.278   0.336 -0.0411  0.3861 -0.0963
19120TIP3    H178775   4.107   0.186   0.313  1.6358  0.7264 -0.7155
19120TIP3    H278776   4.007   0.299   0.305 -0.0400 -0.7256 -0.8999
19121TIP3   OH278777   4.425   4.705   3.716 -0.9024  0.8374  0.2162
19121TIP3    H178778   4.366   4.687   3.789 -2.8141  3.0349 -0.6783
19121TIP3    H278779   4.417   4.628   3.660  1.6636 -1.5577  2.7984
19122TIP3   OH278780   0.969   3.216   5.554  0.3137  0.3050 -0.3509
19122TIP3    H178781   0.955   3.305   5.523 -2.6812  0.3790  0.9021
19122TIP3    H278782   0.981   3.224   5.648  3.7128 -0.4066 -0.5929
19123TIP3   OH278783   6.302   3.965  15.162  0.1597 -0.1490  0.4042
19123TIP3    H178784   6.249   3.930  15.090  1.0074  0.8207 -0.7423
19123TIP3    H278785   6.347   3.889  15.198  0.2810 -0.5585 -0.5842
19124TIP3   OH278786   6.346   2.080   4.841  0.1909  0.0420 -0.2239
19124TIP3    H178787   6.402   2.050   4.769 -2.2666 -0.9560 -1.8871
19124TIP3    H278788   6.267   2.114   4.797 -0.7740  0.8142  1.9788
19125TIP3   OH278789   1.441   6.582   6.908 -0.2680  0.2677 -0.1287
19125TIP3    H178790   1.505   6.513   6.894  0.0940  0.5052  0.3227
19125TIP3    H278791   1.487   6.663   6.883 -0.2718  0.4772  0.5233
19126TIP3   OH278792   0.051   5.711   3.685  0.0220 -0.0302  0.7121
19126TIP3    H178793   0.042   5.632   3.739 -0.3651 -1.8910 -1.9132
19126TIP3    H278794   0.142   5.738   3.697 -0.1841 -0.0745  2.6491
19127TIP3   OH278795   5.425   4.042   0.548  0.8291  0.2276  0.0846
19127TIP3    H178796   5.389   4.114   0.496  0.0359  0.0798  0.4212
19127TIP3    H278797   5.416   4.070   0.639 -2.9126 -1.7060  0.5238
19128TIP3   OH278798   6.247   1.416   5.745  0.2224 -0.3740  0.0608
19128TIP3    H178799   6.205   1.486   5.694 -0.4895 -2.3527 -2.2489
19128TIP3    H278800   6.177   1.352   5.760  1.3574 -1.6367  0.1292
19129TIP3   OH278801   4.255   0.406   5.179 -0.0070  0.3502  0.5304
19129TIP3    H178802   4.224   0.411   5.270 -1.0337  0.1136  0.1964
19129TIP3    H278803   4.274   0.314   5.166  1.0030  0.5055  0.7682
19130TIP3   OH278804   1.566   3.898  13.456 -0.1282 -0.6322 -0.1547
19130TIP3    H178805   1.473   3.883  13.438 -0.7916  1.5192  1.2165
19130TIP3    H278806   1.577   3.875  13.548 -0.2205  2.6039  0.7771
19131TIP3   OH278807   5.995   0.181  12.554 -0.3429 -0.0378 -0.2762
19131TIP3    H178808   5.905   0.155  12.571  0.1502 -1.3134  0.5061
19131TIP3    H278809   6.030   0.203  12.640  0.0540  0.6350 -0.5991
19132TIP3   OH278810   4.491   1.921   0.175  0.4064  0.3408  0.1433
19132TIP3    H178811   4.535   1.841   0.202  0.0266 -0.3235 -1.1054
19132TIP3    H278812   4.508   1.926   0.080 -0.0142  1.4534  0.1122
19133TIP3   OH278813   4.523   1.438  16.381  0.0733 -0.4440 -0.0538
19133TIP3    H178814   4.462   1.366  16.368 -2.2894  1.5404 -0.6188
19133TIP3    H278815   4.479   1.514  16.344  2.2523  1.4115  0.9194
19134TIP3   OH278816   5.341   2.202  11.473 -0.0549  0.3270  0.2368
19134TIP3    H178817   5.397   2.275  11.450  2.2278 -0.7016  2.0319
19134TIP3    H278818   5.335   2.206  11.569 -0.0889 -1.6287  0.3627
19135TIP3   OH278819   1.476   3.261   4.446  0.1001 -0.7179  0.2484
19135TIP3    H178820   1.518   3.301   4.523 -0.9355  0.7058  0.1147
19135TIP3    H278821   1.548   3.221   4.398  1.5011  2.2502 -0.3434
19136TIP3   OH278822   6.181   4.815  12.421 -0.2441  0.1603  0.4524
19136TIP3    H178823   6.248   4.883  12.424 -0.3695  0.2874  0.4137
19136TIP3    H278824   6.161   4.804  12.328 -0.0813 -0.0722  0.4430
19137TIP3   OH278825   1.247   6.187  12.640  0.0220 -0.2423 -0.0653
19137TIP3    H178826   1.158   6.176  12.674  0.8585 -0.2884  2.3260
19137TIP3    H278827   1.249   6.134  12.560 -1.9337 -0.7134  0.1528
19138TIP3   OH278828   3.410   4.478  16.041 -0.0171  0.7621  0.2493
19138TIP3    H178829   3.424   4.570  16.021 -1.1077  0.6848 -0.9275
19138TIP3    H278830   3.357   4.478  16.121  0.6260  1.1230  0.6876
19139TIP3   OH278831   3.233   4.511   4.624  0.4664  0.0161 -0.0084
19139TIP3    H178832   3.282   4.579   4.577  1.7033  0.8642  2.3074
19139TIP3    H278833   3.279   4.430   4.605  0.3557  0.1674 -0.9811
19140TIP3   OH278834   5.072   2.015  12.941 -0.2150  0.4963  0.0143
19140TIP3    H178835   5.052   1.929  12.904  2.6142 -0.4041  0.3166
19140TIP3    H278836   5.002   2.071  12.909 -1.6483 -1.6919 -0.9910
19141TIP3   OH278837   6.722   6.673   1.519 -0.5001  1.2594  0.2698
19141TIP3    H178838   6.670   6.731   1.463 -2.2556  0.6077  1.1829
19141TIP3    H278839   6.756   6.730   1.587 -1.9755  1.3217  0.9935
19142TIP3   OH278840   1.705   5.392  15.915  0.3903  0.1362 -0.1913
19142TIP3    H178841   1.748   5.468  15.956  0.4950  0.6844 -1.2763
19142TIP3    H278842   1.772   5.324  15.913  1.0610  0.7974 -1.3424
19143TIP3   OH278843   5.792   3.366  16.879 -0.0258  0.2253  0.0669
19143TIP3    H178844   5.806   3.367  16.784  1.5607 -1.1275  0.2399
19143TIP3    H278845   5.815   3.454  16.908  1.2091  0.1405 -0.6088
19144TIP3   OH278846   5.727   1.965  13.261  0.2553  0.0451 -0.1003
19144TIP3    H178847   5.716   1.992  13.170 -0.0334  0.4116  0.0403
19144TIP3    H278848   5.774   2.038  13.302  1.5659 -0.6747 -0.2491
19145TIP3   OH278849   3.036   0.147  12.822 -0.7511 -0.0155 -0.5550
19145TIP3    H178850   2.983   0.206  12.876 -0.2906 -0.8877  0.9320
19145TIP3    H278851   3.061   0.199  12.746 -2.6657  0.7995 -0.6777
19146TIP3   OH278852   2.993   6.573  15.280  0.4103  0.2944 -0.4663
19146TIP3    H178853   3.067   6.620  15.319 -1.8245  1.1879  3.1340
19146TIP3    H278854   3.026   6.484  15.267  1.9888  0.5065  1.5388
19147TIP3   OH278855   3.016   3.962  13.849 -0.3341 -0.0727  0.6555
19147TIP3    H178856   2.942   4.022  13.840  1.1326  2.0141  1.6392
19147TIP3    H278857   2.999   3.915  13.931 -1.3329 -0.8301  0.0414
19148TIP3   OH278858   1.410   1.599   4.503 -0.6644  0.0090 -0.1009
19148TIP3    H178859   1.453   1.638   4.579 -0.9371 -2.0504  1.2002
19148TIP3    H278860   1.334   1.655   4.487  1.0339  2.2419 -0.8521
19149TIP3   OH278861   3.463   6.358   4.031 -0.3419 -0.1705 -0.8341
19149TIP3    H178862   3.468   6.338   4.124 -1.0416  0.8351 -0.5638
19149TIP3    H278863   3.386   6.414   4.022  0.5492  0.9729 -1.7803
19150TIP3   OH278864   4.307   5.478  16.604 -0.6049  0.6980  0.5179
19150TIP3    H178865   4.356   5.543  16.656  0.2717 -0.4736  1.2007
19150TIP3    H278866   4.343   5.487  16.516 -0.2339  0.9051  0.6813
19151TIP3   OH278867   4.930   5.602  14.991  0.5965 -0.1879 -0.3267
19151TIP3    H178868   4.900   5.581  14.902  2.5510 -0.1510 -1.0450
19151TIP3    H278869   4.916   5.697  14.999  0.5273 -0.1700 -0.6347
19152TIP3   OH278870   6.636   2.048   1.309 -0.0409  0.0863 -0.5399
19152TIP3    H178871   6.596   2.132   1.289  0.8520  0.2533 -1.6982
19152TIP3    H278872   6.609   2.030   1.400 -1.1461  1.0736 -0.6475
19153TIP3   OH278873   5.103   4.952   4.874 -0.1851 -0.4062  0.3806
19153TIP3    H178874   5.128   4.909   4.793 -2.5544 -1.0050 -0.1074
19153TIP3    H278875   5.185   4.985   4.910  0.8710  0.6556 -2.6692
19154TIP3   OH278876   2.979   2.394   2.420  0.2837  0.0970 -0.3370
19154TIP3    H178877   2.996   2.468   2.480 -0.5994  2.2180 -2.5406
19154TIP3    H278878   2.884   2.380   2.427 -0.3020  2.0057 -2.8241
19155TIP3   OH278879   2.704   3.824  12.606 -1.1849  0.0920 -0.0988
19155TIP3    H178880   2.684   3.911  12.640  0.4796 -0.1165  1.5487
19155TIP3    H278881   2.632   3.769  12.636 -0.7690  0.3304  1.4091
19156TIP3   OH278882   5.586   1.406   0.865 -0.1284 -0.0453  0.1152
19156TIP3    H178883   5.591   1.493   0.826  0.8578 -0.0183  0.2711
19156TIP3    H278884   5.645   1.352   0.812 -0.6876 -0.6075  0.0539
19157TIP3   OH278885   3.364   5.207  15.768 -0.2428  0.5913  0.0630
19157TIP3    H178886   3.326   5.143  15.828 -0.3995  1.5471  1.0118
19157TIP3    H278887   3.381   5.284  15.822  1.4520  0.8096 -0.7116
19158TIP3   OH278888   4.069   2.062   6.265  0.0933  0.0596  0.0907
19158TIP3    H178889   4.155   2.029   6.238  0.1599 -0.8091  1.2637
19158TIP3    H278890   4.015   1.983   6.274 -0.8777  0.6096 -0.7822
19159TIP3   OH278891   1.066   2.400   0.565  0.3434 -0.1999 -0.3659
19159TIP3    H178892   1.051   2.484   0.608 -0.8680  0.5762 -2.2083
19159TIP3    H278893   1.031   2.336   0.626 -0.5709  0.7988  0.1974
19160TIP3   OH278894   4.363   5.263   2.626  0.1946  0.1856  0.5457
19160TIP3    H178895   4.274   5.231   2.637 -0.2039  0.4473 -1.4325
19160TIP3    H278896   4.408   5.194   2.578  1.2633 -0.1915  2.0086
19161TIP3   OH278897   2.406   4.075  16.390  0.2310  0.4747  0.3480
19161TIP3    H178898   2.477   4.051  16.330 -0.1996 -2.5949  0.8845
19161TIP3    H278899   2.448   4.079  16.476  0.0532  0.2765  0.4450
19162TIP3   OH278900   4.660   1.673  11.552 -0.1451 -0.4082 -0.5916
19162TIP3    H178901   4.599   1.607  11.584  0.1395 -0.5269 -0.2913
19162TIP3    H278902   4.728   1.678  11.619  0.4481 -0.6500 -1.1607
19163TIP3   OH278903   1.672   4.928  12.604  0.3892  0.2333 -0.3660
19163TIP3    H178904   1.693   4.953  12.514  1.4013  0.9210  0.0505
19163TIP3    H278905   1.608   4.857  12.595 -0.0641  0.7815 -1.6104
19164TIP3   OH278906   2.751   6.444   1.816 -0.5829 -0.5267  0.4016
19164TIP3    H178907   2.657   6.457   1.806 -0.6570 -0.8662  0.6273
19164TIP3    H278908   2.791   6.521   1.775 -0.9825  0.1069  1.1574
19165TIP3   OH278909   1.370   5.801   2.646  0.3501  0.2424 -0.1549
19165TIP3    H178910   1.332   5.755   2.721 -1.7995 -0.4660 -1.5943
19165TIP3    H278911   1.382   5.734   2.579  1.9705  0.9128 -0.5896
19166TIP3   OH278912   6.570   0.365  13.995 -0.1568  1.0502  0.2263
19166TIP3    H178913   6.546   0.277  14.023  0.2928  0.5785 -0.8489
19166TIP3    H278914   6.656   0.380  14.034  0.9934 -0.0535 -1.7578
19167TIP3   OH278915   6.006   4.221   0.753  0.4046  0.0090  0.5184
19167TIP3    H178916   6.052   4.295   0.794 -0.1521  0.7339 -0.1182
19167TIP3    H278917   6.040   4.144   0.797  2.8437  0.4295 -0.4784
19168TIP3   OH278918   6.621   6.132   3.540  0.5606  0.2348  0.1850
19168TIP3    H178919   6.648   6.203   3.598  2.6728  1.3512 -1.9634
19168TIP3    H278920   6.641   6.052   3.589  2.2093  1.1241  1.0623
19169TIP3   OH278921   6.499   4.857  17.110  0.3171  0.4954  0.4310
19169TIP3    H178922   6.498   4.916  17.185  1.2349  2.3275 -0.8986
19169TIP3    H278923   6.577   4.883  17.061  0.2596 -1.2742 -0.6803
19170TIP3   OH278924   5.912   4.335  12.350 -0.4576 -0.0251  0.7138
19170TIP3    H178925   5.923   4.386  12.269 -0.4413  0.0959  0.7912
19170TIP3    H278926   5.999   4.303  12.370 -0.5675 -0.5494  0.3615
19171TIP3   OH278927   6.682   6.701  13.988  0.4675 -0.2421 -0.5154
19171TIP3    H178928   6.709   6.683  14.078 -0.6910 -2.7397 -0.5802
19171TIP3    H278929   6.630   6.781  13.995  0.1806 -0.5233  1.0969
19172TIP3   OH278930   6.744   2.785  12.495  0.7075 -0.9238  0.3847
19172TIP3    H178931   6.802   2.809  12.423 -1.5869 -1.3554 -1.7715
19172TIP3    H278932   6.657   2.784  12.456 -0.5022 -2.7210  2.8286
19173TIP3   OH278933   6.317   4.827  14.110 -0.2302 -0.2852 -0.2962
19173TIP3    H178934   6.242   4.883  14.089 -1.2169 -1.4953 -0.1169
19173TIP3    H278935   6.304   4.803  14.201  1.0589  0.4604  0.1155
19174TIP3   OH278936   2.609   1.604  14.694  0.1711  0.3127  0.0978
19174TIP3    H178937   2.688   1.658  14.689 -0.6150  1.7509  2.1213
19174TIP3    H278938   2.537   1.666  14.705 -0.9094 -1.0810  1.2601
19175TIP3   OH278939   2.216   0.840  13.736  0.0457  0.2215  0.1262
19175TIP3    H178940   2.205   0.889  13.655  0.0510  0.1000  0.0511
19175TIP3    H278941   2.255   0.902  13.797 -2.6434  1.2107  0.9615
19176TIP3   OH278942   4.092   4.449   2.497 -0.4232 -0.2418 -0.6108
19176TIP3    H178943   4.038   4.417   2.570 -1.8045  1.4444 -0.8107
19176TIP3    H278944   4.135   4.371   2.463  0.3951 -1.0602  2.0849
19177TIP3   OH278945   6.124   6.717   6.875  0.5177  0.1065  0.0641
19177TIP3    H178946   6.096   6.626   6.885  0.4377 -0.0429 -1.3007
19177TIP3    H278947   6.165   6.739   6.959 -1.4176 -0.4683  1.2318
19178TIP3   OH278948   3.762   5.825   2.093  0.0334 -0.2224  0.1568
19178TIP3    H178949   3.688   5.870   2.051  1.4916  1.2341 -0.9525
19178TIP3    H278950   3.798   5.769   2.024 -0.7759 -1.9887  1.0747
19179TIP3   OH278951   5.238   4.123   3.027 -0.2941  0.4069 -0.4470
19179TIP3    H178952   5.144   4.101   3.027  0.0796 -1.5091  1.6253
19179TIP3    H278953   5.274   4.070   2.956 -0.3096 -1.4749  0.8874
19180TIP3   OH278954   5.072   1.757  14.644 -0.2959  0.5883 -0.1401
19180TIP3    H178955   5.000   1.715  14.691 -1.2135  2.0381 -0.1791
19180TIP3    H278956   5.117   1.809  14.711  1.3508 -0.9963  0.0948
19181TIP3   OH278957   6.204   1.174  15.005  0.1287  0.5464  0.0959
19181TIP3    H178958   6.270   1.114  14.971 -0.4102  0.0030 -0.0207
19181TIP3    H278959   6.195   1.151  15.097 -0.2957  0.2322 -0.0189
19182TIP3   OH278960   3.339   1.603  12.768  0.6687  0.1446  0.0329
19182TIP3    H178961   3.360   1.511  12.748 -1.8515 -0.7589  1.1296
19182TIP3    H278962   3.298   1.600  12.854 -0.9750  2.0584 -0.6057
19183TIP3   OH278963   5.694   5.221  14.875  0.5074 -0.3345  0.1316
19183TIP3    H178964   5.696   5.248  14.967 -0.4562  0.3564 -0.0288
19183TIP3    H278965   5.719   5.129  14.876 -1.7299 -0.9965  1.3658
19184TIP3   OH278966   6.039   4.137   0.162 -0.2546  0.1385 -0.3538
19184TIP3    H178967   6.071   4.156   0.073 -0.6372 -0.6606 -0.6665
19184TIP3    H278968   5.951   4.173   0.163 -1.6195 -2.8331 -1.4803
19185TIP3   OH278969   6.192   3.663  11.575  0.2438  0.1027 -0.4470
19185TIP3    H178970   6.232   3.628  11.654  0.1121 -0.1252 -0.4798
19185TIP3    H278971   6.166   3.752  11.598  1.4226  0.5204 -0.6349
19186TIP3   OH278972   3.236   4.528  13.624  0.0985  1.2120  0.0264
19186TIP3    H178973   3.251   4.435  13.637 -0.1193  1.1540 -0.1362
19186TIP3    H278974   3.155   4.547  13.670 -0.1461  1.2073 -0.3985
19187TIP3   OH278975   4.688   2.244  11.395  0.4181  0.5463 -0.0432
19187TIP3    H178976   4.763   2.193  11.365 -0.5213 -0.8372 -0.1280
19187TIP3    H278977   4.674   2.215  11.485  1.6844  2.8618  1.0044
19188TIP3   OH278978   1.008   5.869   4.160 -0.1464 -0.3251 -0.3134
19188TIP3    H178979   1.072   5.939   4.162 -1.2474  0.7297 -0.6265
19188TIP3    H278980   0.953   5.884   4.237 -0.6621 -0.5672 -0.6233
19189TIP3   OH278981   4.941   3.316   3.603  0.1833  0.4941 -0.4635
19189TIP3    H178982   4.878   3.326   3.674  0.4451  1.2848 -0.3324
19189TIP3    H278983   5.012   3.377   3.625  1.1765 -0.6517 -0.4094
19190TIP3   OH278984   0.468   5.035   0.655  0.0635 -0.7152  0.2150
19190TIP3    H178985   0.552   5.051   0.610 -0.0258  0.4739  0.4500
19190TIP3    H278986   0.490   5.037   0.748  0.2209 -3.0422  0.2993
19191TIP3   OH278987   5.819   1.707  13.241  0.0840 -0.3905 -0.4124
19191TIP3    H178988   5.820   1.694  13.146 -0.1814 -0.2612 -0.4343
19191TIP3    H278989   5.783   1.795  13.252  2.1398  0.5112 -0.2850
19192TIP3   OH278990   3.043   0.208   3.427 -0.4227 -0.1712 -0.1411
19192TIP3    H178991   2.987   0.131   3.423 -1.5121  0.5825  0.2351
19192TIP3    H278992   3.059   0.231   3.335  1.0062 -1.5910 -0.2880
19193TIP3   OH278993   1.732   4.160   1.292  0.1553 -0.2115  0.2366
19193TIP3    H178994   1.789   4.088   1.320 -0.6000 -1.7655 -1.8885
19193TIP3    H278995   1.655   4.116   1.256 -0.7634  1.7232 -0.2825
19194TIP3   OH278996   5.500   0.425  14.255  0.5097  0.1857  0.0511
19194TIP3    H178997   5.490   0.455  14.164  1.6658 -0.2579 -0.2383
19194TIP3    H278998   5.477   0.502  14.307  1.6661  1.0672 -0.6595
19195TIP3   OH278999   4.004   3.739   4.819  0.5121  0.4182 -0.0225
19195TIP3    H179000   3.932   3.765   4.876  0.4493 -0.7594  0.4498
19195TIP3    H279001   4.055   3.820   4.807  1.4586  0.4093  3.0420
19196TIP3   OH279002   3.703   3.958   4.338  0.2884  0.0071  0.1288
19196TIP3    H179003   3.651   3.878   4.337 -0.3235  0.3487  1.8900
19196TIP3    H279004   3.640   4.029   4.328  0.3921  0.4114  2.0106
19197TIP3   OH279005   5.802   3.137  15.304 -0.6984 -0.3408 -0.3678
19197TIP3    H179006   5.777   3.225  15.277 -2.5125 -0.5683  0.4030
19197TIP3    H279007   5.789   3.136  15.399  0.0839 -1.2076 -0.2505
19198TIP3   OH279008   5.737   2.065   4.627 -0.1861  0.6416  0.0326
19198TIP3    H179009   5.748   2.084   4.534 -0.2501  0.2751 -0.0505
19198TIP3    H279010   5.711   1.973   4.630  1.1891  0.2290  0.4731
19199TIP3   OH279011   2.884   6.103   4.580  0.1548  0.3428 -0.1183
19199TIP3    H179012   2.944   6.160   4.628  1.6204 -2.0822  1.1178
19199TIP3    H279013   2.941   6.038   4.539 -1.5272 -2.0352  1.0787
19200TIP3   OH279014   6.123   6.253   0.188 -0.3739 -0.2610  0.3640
19200TIP3    H179015   6.132   6.158   0.197 -0.9002 -0.5001 -1.2834
19200TIP3    H279016   6.058   6.265   0.119 -0.3223  1.3064  0.5463
19201TIP3   OH279017   0.094   0.566  17.212 -0.0265  0.0288  0.4863
19201TIP3    H179018   0.017   0.535  17.261  0.5984  0.3323  1.7087
19201TIP3    H279019   0.132   0.486  17.175 -0.3538 -0.2512  0.7439
19202TIP3   OH279020   1.854   5.480   3.732 -0.7143  0.3799 -0.1411
19202TIP3    H179021   1.759   5.473   3.722 -0.5152 -1.3000 -1.3932
19202TIP3    H279022   1.889   5.421   3.665  1.2270  1.3075  0.0013
19203TIP3   OH279023   6.396   6.340   3.750  0.4627 -0.5059  0.0407
19203TIP3    H179024   6.477   6.380   3.717 -0.0340  0.1044 -0.4584
19203TIP3    H279025   6.351   6.411   3.795 -0.3838 -0.5137 -0.7657
19204TIP3   OH279026   1.536   3.356   4.133  0.0961  0.2093  0.4137
19204TIP3    H179027   1.448   3.349   4.172 -0.4121  0.2951 -0.6634
19204TIP3    H279028   1.536   3.291   4.063  0.4221  1.1070 -0.4419
19205TIP3   OH279029   4.488   4.858  12.190 -0.0659  0.3468 -0.1174
19205TIP3    H179030   4.509   4.766  12.211  2.0334  0.8443  0.2645
19205TIP3    H279031   4.574   4.898  12.175 -1.0751  1.7937 -2.3547
19206TIP3   OH279032   4.998   0.775   6.127 -0.3101 -0.4911 -0.4217
19206TIP3    H179033   5.041   0.770   6.212 -1.5387  0.8028  0.3236
19206TIP3    H279034   5.057   0.830   6.074 -0.7716  0.9256  0.4609
19207TIP3   OH279035   1.934   0.723  12.975  0.4206  0.1457  0.7245
19207TIP3    H179036   1.941   0.797  13.036 -0.7691  1.6651 -0.8749
19207TIP3    H279037   1.920   0.764  12.890  0.6804 -1.9395 -0.3759
19208TIP3   OH279038   5.873   3.918  11.955  0.0737 -0.2958  0.2566
19208TIP3    H179039   5.848   4.003  11.993  4.8215  1.4969  0.0359
19208TIP3    H279040   5.925   3.876  12.023  1.6632 -0.8728 -1.2598
19209TIP3   OH279041   6.706   4.883   3.964 -0.0642 -0.1453  0.2058
19209TIP3    H179042   6.659   4.815   4.013  0.0725  0.0305  0.5864
19209TIP3    H279043   6.730   4.841   3.882  0.0312 -0.5636  0.4436
19210TIP3   OH279044   3.576   2.381  17.082 -0.2773 -0.7330 -0.1777
19210TIP3    H179045   3.645   2.414  17.140 -1.8912  2.1175  0.3136
19210TIP3    H279046   3.514   2.340  17.142 -0.1501 -1.1915 -0.3561
19211TIP3   OH279047   2.384   1.131  14.720  0.0237 -1.1810  0.3532
19211TIP3    H179048   2.371   1.225  14.732  1.2721 -0.7731 -1.0723
19211TIP3    H279049   2.321   1.090  14.778 -0.9430  0.5449  0.5902
19212TIP3   OH279050   4.731   2.624   5.508  0.4200 -0.3463 -0.4372
19212TIP3    H179051   4.738   2.675   5.428  2.8350 -0.0149 -0.1122
19212TIP3    H279052   4.720   2.689   5.577  3.2711 -0.1249 -0.0484
19213TIP3   OH279053   3.380   5.161   2.381 -0.1445  0.3080  0.7044
19213TIP3    H179054   3.340   5.129   2.462 -0.1076 -1.7115 -0.0172
19213TIP3    H279055   3.354   5.097   2.315  4.5231 -1.4587  0.2414
19214TIP3   OH279056   2.950   3.746   3.215  0.1470 -0.5985  0.1747
19214TIP3    H179057   3.006   3.705   3.148 -0.1499 -0.9274  0.1217
19214TIP3    H279058   2.979   3.708   3.297  0.2078 -0.5383  0.1810
19215TIP3   OH279059   0.510   4.156   5.552 -0.3628  0.1488 -0.2675
19215TIP3    H179060   0.517   4.196   5.466  0.1168  0.1437 -0.2298
19215TIP3    H279061   0.499   4.062   5.535  3.6652 -0.4712 -0.2981
19216TIP3   OH279062   3.928   5.528   5.456 -0.0984  0.1647 -0.2028
19216TIP3    H179063   3.846   5.577   5.453 -0.2758 -0.1347 -0.2955
19216TIP3    H279064   3.936   5.490   5.368 -0.4265 -0.7210  0.1368
19217TIP3   OH279065   3.459   3.056   0.783 -0.4486 -0.4054 -0.2647
19217TIP3    H179066   3.543   3.088   0.749 -0.1692  0.2220  0.9436
19217TIP3    H279067   3.437   3.118   0.853 -0.4411 -2.2308  1.4462
19218TIP3   OH279068   2.815   5.864   6.341 -0.6959  0.8085 -0.5426
19218TIP3    H179069   2.834   5.902   6.427  0.9654  1.4772 -1.1712
19218TIP3    H279070   2.739   5.807   6.357 -0.5376  1.0474  1.3206
19219TIP3   OH279071   2.914   2.274   5.461  0.5073  0.1289 -0.0724
19219TIP3    H179072   2.870   2.357   5.479  1.7123  0.7759 -0.0397
19219TIP3    H279073   2.913   2.267   5.365 -0.8951 -0.5675 -0.0418
19220TIP3   OH279074   3.777   1.633   5.688 -0.1481 -0.0590 -0.4378
19220TIP3    H179075   3.720   1.616   5.613 -0.6486  0.8446 -0.2723
19220TIP3    H279076   3.846   1.567   5.681 -1.7127 -1.8250 -0.1115
19221TIP3   OH279077   5.762   4.754  11.301 -0.2436 -0.3717  0.2772
19221TIP3    H179078   5.674   4.764  11.337  0.2381 -0.0961  1.4395
19221TIP3    H279079   5.784   4.840  11.267 -1.0693 -0.8715 -1.6037
19222TIP3   OH279080   5.938   1.938   2.598  0.2004  0.1509 -0.0985
19222TIP3    H179081   5.898   1.887   2.669 -0.2483  1.0890  0.3373
19222TIP3    H279082   5.865   1.962   2.541  0.6831 -1.4566 -1.4713
19223TIP3   OH279083   4.742   2.310  12.622  0.3828 -0.2300 -0.1668
19223TIP3    H179084   4.683   2.383  12.641 -0.4568 -0.9146 -0.0899
19223TIP3    H279085   4.715   2.278  12.536  1.3024  0.0721 -0.5871
19224TIP3   OH279086   4.247   5.837  14.520  0.1779  0.0073 -0.1482
19224TIP3    H179087   4.159   5.802  14.511  0.3719 -0.5729  0.1640
19224TIP3    H279088   4.268   5.827  14.613 -0.6982  3.2518  0.5501
19225TIP3   OH279089   2.851   0.815   5.093 -0.5032 -0.1780 -0.3057
19225TIP3    H179090   2.759   0.838   5.076 -0.3526 -1.0676 -2.7186
19225TIP3    H279091   2.858   0.815   5.189 -3.0037 -0.0566 -0.0433
19226TIP3   OH279092   6.206   6.728   0.253  0.1447  0.6183 -0.3155
19226TIP3    H179093   6.236   6.765   0.335  0.5312  2.1373 -1.1095
19226TIP3    H279094   6.283   6.683   0.217  0.1752  0.5760 -0.1963
19227TIP3   OH279095   3.230   4.501   2.768 -0.4072  0.3260  0.4173
19227TIP3    H179096   3.296   4.570   2.764 -1.0785  0.9689  0.1635
19227TIP3    H279097   3.260   4.436   2.704 -1.8989  2.3536 -2.6076
19228TIP3   OH279098   5.185   3.116  14.205 -0.3095  0.5621  0.0602
19228TIP3    H179099   5.226   3.193  14.165  0.2799  0.6518  0.8023
19228TIP3    H279100   5.255   3.051  14.208 -0.9563 -0.2217 -1.0931
19229TIP3   OH279101   1.845   0.901   4.250 -0.5395  0.2113 -0.1990
19229TIP3    H179102   1.829   0.814   4.287  0.3476  0.5371  1.0600
19229TIP3    H279103   1.903   0.943   4.314  0.4417  1.1146 -1.6185
19230TIP3   OH279104   3.599   3.342   1.659  0.6077 -0.2129 -0.0489
19230TIP3    H179105   3.683   3.385   1.647  0.7443 -0.7236 -1.0354
19230TIP3    H279106   3.615   3.275   1.725  1.3396 -1.2189 -1.2108
19231TIP3   OH279107   0.162   3.186   0.047 -0.4645 -0.1248  0.0735
19231TIP3    H179108   0.172   3.264   0.101 -1.2886 -0.1391  0.2620
19231TIP3    H279109   0.067   3.174   0.039 -0.3492 -0.8720 -0.2875
19232TIP3   OH279110   1.378   3.133  11.805  0.8349  0.6720 -0.1983
19232TIP3    H179111   1.348   3.209  11.755  0.3087  0.1734 -0.6616
19232TIP3    H279112   1.428   3.081  11.742  1.1251  0.5936  0.0947
19233TIP3   OH279113   5.795   4.463  14.241 -0.5011 -0.2961 -0.0702
19233TIP3    H179114   5.737   4.475  14.165 -1.6709  0.1408  0.8469
19233TIP3    H279115   5.883   4.475  14.206 -0.9554 -0.9621 -1.5190
19234TIP3   OH279116   1.166   2.971   0.354  0.1522  0.5050  0.8394
19234TIP3    H179117   1.163   3.024   0.434 -0.7030 -0.8042  1.7233
19234TIP3    H279118   1.075   2.944   0.340 -0.1518  2.6078 -1.9485
19235TIP3   OH279119   2.845   2.499   4.835 -0.0456  0.7058 -0.2201
19235TIP3    H179120   2.895   2.577   4.811  2.9633 -0.8738  0.3847
19235TIP3    H279121   2.870   2.481   4.926 -0.4712 -1.0492 -0.3999
19236TIP3   OH279122   6.570   1.263  14.034 -0.4095  0.4071 -0.7150
19236TIP3    H179123   6.565   1.305  13.948 -1.5736  2.3819  0.2523
19236TIP3    H279124   6.577   1.336  14.096 -0.3059 -0.9438  0.9261
19237TIP3   OH279125   1.275   3.767  13.665 -0.1916  0.0452  0.3346
19237TIP3    H179126   1.283   3.683  13.708 -3.1879 -1.0487 -0.9522
19237TIP3    H279127   1.202   3.811  13.710 -0.8096  0.5136 -1.0516
19238TIP3   OH279128   6.275   2.240   2.571  0.4216 -0.2256  0.1992
19238TIP3    H179129   6.333   2.234   2.647  0.8948  1.1344 -0.0231
19238TIP3    H279130   6.246   2.331   2.570 -0.7774 -0.5910 -0.3965
19239TIP3   OH279131   0.486   5.648  17.034  0.2481 -0.1082 -0.0749
19239TIP3    H179132   0.576   5.615  17.038  0.3056  0.1718  1.9662
19239TIP3    H279133   0.475   5.676  16.943  2.3164  0.1004 -0.3162
19240TIP3   OH279134   1.254   1.694  12.240 -0.5233  0.1220 -1.0753
19240TIP3    H179135   1.319   1.628  12.217  0.9907  1.6804 -1.4675
19240TIP3    H279136   1.303   1.759  12.292 -2.1878  0.4371  0.1883
19241TIP3   OH279137   1.400   0.471   2.624  0.9607  0.5031 -0.2117
19241TIP3    H179138   1.484   0.465   2.580  1.0521  1.1956 -0.1326
19241TIP3    H279139   1.343   0.412   2.574  1.6544 -0.5012  0.1466
19242TIP3   OH279140   0.379   6.113   0.674 -0.0255 -0.4046 -0.3360
19242TIP3    H179141   0.340   6.188   0.629 -1.8351 -0.4999  0.9786
19242TIP3    H279142   0.457   6.148   0.716 -0.7232  0.6924  0.0748
19243TIP3   OH279143   6.607   0.166  14.391 -0.2647  0.1654  0.1044
19243TIP3    H179144   6.512   0.167  14.390 -0.2600  1.1685 -0.5723
19243TIP3    H279145   6.631   0.214  14.471 -0.3221  0.7612 -0.2365
19244TIP3   OH279146   6.019   4.859   1.935  0.5337  0.8662  0.0598
19244TIP3    H179147   6.053   4.781   1.892  0.4419  1.2944 -0.8032
19244TIP3    H279148   5.956   4.895   1.873 -0.8996  0.5469  1.2631
19245TIP3   OH279149   5.568   2.659  11.413 -0.2408 -0.0627 -0.0165
19245TIP3    H179150   5.659   2.649  11.440 -0.0959 -0.6760 -0.7070
19245TIP3    H279151   5.518   2.611  11.478 -0.0839  0.3704  0.4284
19246TIP3   OH279152   1.815   6.599  11.054  0.4584  0.0766  0.6756
19246TIP3    H179153   1.861   6.683  11.061  1.1388 -0.2652  0.3980
19246TIP3    H279154   1.859   6.554  10.982 -1.5632  0.5117 -0.9203
19247TIP3   OH279155   6.606   4.257   6.244 -0.1688  0.1669  0.5026
19247TIP3    H179156   6.683   4.201   6.233  0.9270  1.6973  0.0769
19247TIP3    H279157   6.568   4.263   6.156  0.8940  1.6730  0.1063
19248TIP3   OH279158   4.127   6.162  16.084  0.0543  0.7785  0.0101
19248TIP3    H179159   4.180   6.215  16.144  0.4890  2.3034 -1.6361
19248TIP3    H279160   4.070   6.226  16.040  0.1629 -0.2001 -1.6059
19249TIP3   OH279161   0.794   2.843  12.767 -0.0844 -0.7012 -0.5626
19249TIP3    H179162   0.875   2.890  12.786 -0.4391  0.5583 -1.9757
19249TIP3    H279163   0.761   2.883  12.686 -2.2715 -0.9707  0.1166
19250TIP3   OH279164   1.123   5.655  14.072 -0.8365  0.0495  0.2450
19250TIP3    H179165   1.209   5.697  14.067 -0.2695 -1.1999 -2.1285
19250TIP3    H279166   1.115   5.629  14.164  1.5329 -0.1605  0.4722
19251TIP3   OH279167   0.216   1.005  17.184 -1.0937 -0.4226  0.0953
19251TIP3    H179168   0.192   0.936  17.246 -1.4916 -0.5180 -0.1591
19251TIP3    H279169   0.181   1.085  17.223  1.2871  0.0308  1.5196
19252TIP3   OH279170   6.706   5.567  15.629 -0.5818 -0.5465  0.3683
19252TIP3    H179171   6.637   5.598  15.571 -0.1577  0.5746  0.4397
19252TIP3    H279172   6.762   5.643  15.643  1.4721 -1.7221 -0.8140
19253TIP3   OH279173   5.482   4.517  16.042  0.0401 -0.3796  0.1134
19253TIP3    H179174   5.393   4.534  16.073 -0.6834 -2.6627 -0.5230
19253TIP3    H279175   5.522   4.466  16.113  1.1935  1.3641  0.7792
19254TIP3   OH279176   5.934   5.000   4.779 -0.2288 -0.1053 -0.2020
19254TIP3    H179177   5.951   5.078   4.726  1.4753 -0.5056 -0.3063
19254TIP3    H279178   5.974   4.929   4.730 -0.3621 -0.7932  0.6663
19255TIP3   OH279179   2.245   2.673   3.967  0.1772  0.5520 -0.2708
19255TIP3    H179180   2.284   2.621   3.897 -1.8601 -1.2709 -0.1859
19255TIP3    H279181   2.261   2.622   4.047 -1.2728  0.3359 -0.0830
19256TIP3   OH279182   2.794   0.463  12.773 -0.1856 -0.0287 -0.4489
19256TIP3    H179183   2.779   0.369  12.763  0.1503 -0.0749 -0.5066
19256TIP3    H279184   2.779   0.480  12.866 -0.3635 -0.1171 -0.4609
19257TIP3   OH279185   4.818   0.425   3.486 -0.0865 -0.4662  0.6708
19257TIP3    H179186   4.796   0.513   3.518 -1.4482  0.6156 -2.7818
19257TIP3    H279187   4.759   0.367   3.535 -2.3101  1.1118  0.0466
19258TIP3   OH279188   2.387   0.720  11.641 -0.1910 -0.3100 -0.3505
19258TIP3    H179189   2.472   0.722  11.599 -1.0627  0.6811 -2.1875
19258TIP3    H279190   2.376   0.808  11.678  0.0037 -0.7597  0.8137
19259TIP3   OH279191   2.873   5.589   0.187 -0.1122 -0.1276  0.1268
19259TIP3    H179192   2.956   5.592   0.235 -0.5062  1.1790  0.7457
19259TIP3    H279193   2.894   5.538   0.109  1.0920 -0.4382  0.6228
19260TIP3   OH279194   6.245   2.524   5.557 -0.4400  0.5792  0.0676
19260TIP3    H179195   6.183   2.598   5.557 -1.7911 -0.4841  1.9103
19260TIP3    H279196   6.303   2.542   5.630  1.0678  1.2156 -1.2349
19261TIP3   OH279197   1.174   3.228  15.935 -0.7603 -0.1186 -0.4046
19261TIP3    H179198   1.233   3.290  15.893 -1.2854 -0.3971 -1.6065
19261TIP3    H279199   1.201   3.226  16.026  2.2134 -1.5147 -1.1880
19262TIP3   OH279200   6.289   4.209   6.283 -0.5194 -0.6212 -0.3565
19262TIP3    H179201   6.280   4.252   6.198 -0.5641 -1.2708 -0.6860
19262TIP3    H279202   6.384   4.200   6.296 -0.4566  0.7203  0.3104
19263TIP3   OH279203   5.274   6.129   3.759 -0.7207 -0.0815 -0.1070
19263TIP3    H179204   5.221   6.095   3.686  0.4278  0.6468 -1.3302
19263TIP3    H279205   5.277   6.224   3.744 -0.2868  0.0472  0.7707
19264TIP3   OH279206   0.152   1.387  14.036  0.6048  0.0137 -0.4159
19264TIP3    H179207   0.067   1.431  14.034  0.1830 -0.7922 -1.0673
19264TIP3    H279208   0.205   1.434  13.972  0.5194  0.2677 -0.2998
19265TIP3   OH279209   1.226   4.099   1.609 -0.4380 -0.5989  0.1875
19265TIP3    H179210   1.313   4.106   1.649 -0.8891 -0.2052  1.1183
19265TIP3    H279211   1.174   4.167   1.651 -0.8580  0.0490 -1.3129
19266TIP3   OH279212   1.628   6.510  14.629 -0.9352 -0.3374 -0.5102
19266TIP3    H179213   1.686   6.484  14.700  0.5760 -0.5455 -1.7591
19266TIP3    H279214   1.594   6.596  14.656 -0.5431 -0.4968  0.5313
19267TIP3   OH279215   4.657   5.731   2.525  0.1339 -0.4697 -0.9351
19267TIP3    H179216   4.602   5.734   2.604 -0.8280 -0.5820 -1.5860
19267TIP3    H279217   4.631   5.650   2.481  1.3616 -0.9151 -0.8930
19268TIP3   OH279218   3.975   4.189   1.302  0.1218 -0.4105  0.0674
19268TIP3    H179219   3.964   4.144   1.386 -0.3233 -0.2716  0.0843
19268TIP3    H279220   3.962   4.122   1.236  0.2954 -0.4811  0.1023
19269TIP3   OH279221   5.224   3.835  11.981 -0.7386  0.3497 -0.5357
19269TIP3    H179222   5.129   3.830  11.995 -0.5844  0.1092  0.4622
19269TIP3    H279223   5.246   3.751  11.941 -0.8652  0.1898 -0.2712
19270TIP3   OH279224   3.081   5.306   2.436  1.4455  0.9465  0.0998
19270TIP3    H179225   3.159   5.324   2.383  0.2666  0.6098 -1.8774
19270TIP3    H279226   3.044   5.392   2.454  0.4080  1.0412 -2.0565
19271TIP3   OH279227   1.105   2.820  12.531  0.7322 -0.3004 -0.0595
19271TIP3    H179228   1.098   2.895  12.471  3.0852 -2.2500 -3.0795
19271TIP3    H279229   1.126   2.860  12.616 -1.7107  2.5599 -0.6020
19272TIP3   OH279230   2.252   6.652   3.830  0.1253 -0.2173  0.1753
19272TIP3    H179231   2.170   6.679   3.871 -0.3698 -1.6513  0.1965
19272TIP3    H279232   2.312   6.639   3.903 -0.4188 -1.6721  0.3845
19273TIP3   OH279233   6.312   1.432  14.325  0.3372  0.3235  0.1106
19273TIP3    H179234   6.238   1.408  14.269 -0.3735 -2.2873  2.0043
19273TIP3    H279235   6.271   1.461  14.407  1.4047  2.5051 -0.0438
19274TIP3   OH279236   0.939   2.182  12.641  0.6840  0.2430  0.2901
19274TIP3    H179237   0.974   2.160  12.555  0.6161  0.8946  0.0933
19274TIP3    H279238   0.851   2.143  12.641  0.1531  1.3895 -0.4600
19275TIP3   OH279239   6.728   3.595   1.172  0.5032  0.3372  0.0095
19275TIP3    H179240   6.790   3.562   1.237 -0.5697 -0.9702  0.4220
19275TIP3    H279241   6.674   3.658   1.221  0.1628 -0.1051  0.2135
19276TIP3   OH279242   1.427   6.456  17.036  0.4520 -0.0756  0.5252
19276TIP3    H179243   1.448   6.472  17.128  0.7133 -0.2402  0.4934
19276TIP3    H279244   1.472   6.525  16.988 -1.5571  1.4638  0.6910
19277TIP3   OH279245   5.535   3.088   3.426  0.5620  0.4436 -0.4869
19277TIP3    H179246   5.458   3.045   3.390 -0.2751  0.9529  0.6253
19277TIP3    H279247   5.540   3.171   3.379  1.2257 -0.1416 -1.4874
19278TIP3   OH279248   4.389   0.613   0.747  0.0984  0.7040  0.0432
19278TIP3    H179249   4.421   0.532   0.706  2.4571  1.1916  0.7898
19278TIP3    H279250   4.468   0.660   0.773 -1.2501  1.9027  2.2875
19279TIP3   OH279251   3.459   6.315   1.897  0.2209  0.0245  0.0275
19279TIP3    H179252   3.487   6.322   1.806 -0.8366  1.9280 -0.1916
19279TIP3    H279253   3.384   6.255   1.895 -0.8485  1.3605 -0.6287
19280TIP3   OH279254   1.416   0.322   4.662 -0.5121  0.1004  0.3171
19280TIP3    H179255   1.412   0.417   4.656  0.3960  0.1101 -0.4254
19280TIP3    H279256   1.327   0.292   4.643 -0.2780  0.7025 -2.0181
19281TIP3   OH279257   1.345   2.569  12.566 -0.2264 -0.0868 -0.4540
19281TIP3    H179258   1.419   2.519  12.599  0.4422  0.3141 -1.3159
19281TIP3    H279259   1.272   2.545  12.624  1.0350  1.0793  1.7052
19282TIP3   OH279260   1.483   2.413   4.454  0.1899 -0.4463  0.5084
19282TIP3    H179261   1.491   2.333   4.403 -2.1089  0.3720 -1.3420
19282TIP3    H279262   1.549   2.472   4.417 -0.7617 -0.2158 -0.9032
19283TIP3   OH279263   2.929   3.654  11.578  0.2477  0.0618  0.0169
19283TIP3    H179264   2.857   3.613  11.530  1.7515 -0.4856 -1.9149
19283TIP3    H279265   2.915   3.629  11.669 -2.6378  0.9992 -0.0861
19284TIP3   OH279266   2.599   0.478   4.451 -0.0597 -0.2610 -0.8886
19284TIP3    H179267   2.618   0.393   4.491 -0.7004  0.0821  0.1846
19284TIP3    H279268   2.537   0.458   4.381 -1.9098 -0.4851  0.7211
19285TIP3   OH279269   3.453   3.606   1.368 -0.3138 -0.2037  0.4761
19285TIP3    H179270   3.417   3.692   1.389 -0.0669 -0.6729  3.1110
19285TIP3    H279271   3.547   3.621   1.356 -0.4715  0.0850 -0.4856
19286TIP3   OH279272   6.486   3.992  13.949 -0.4271  0.2249 -0.2926
19286TIP3    H179273   6.471   4.086  13.958  0.9933  0.3613  1.2800
19286TIP3    H279274   6.579   3.981  13.969 -0.2991 -1.3890 -1.5910
19287TIP3   OH279275   4.377   0.809   2.557 -0.4493  0.2881 -0.3159
19287TIP3    H179276   4.347   0.734   2.505  0.1728  0.1298 -0.4590
19287TIP3    H279277   4.469   0.790   2.575 -0.4204  0.7785  0.0803
19288TIP3   OH279278   6.296   0.403   4.992 -0.5431 -0.0034  0.2073
19288TIP3    H179279   6.269   0.312   5.000  0.2030 -0.2400  0.1209
19288TIP3    H279280   6.328   0.411   4.902  1.9892 -0.4099  0.9836
19289TIP3   OH279281   3.908   6.145  15.116 -0.4585 -0.1704 -0.0937
19289TIP3    H179282   3.867   6.134  15.031  0.6297  0.2104 -0.6833
19289TIP3    H279283   3.934   6.057  15.142 -3.2338 -0.7294  1.1576
19290TIP3   OH279284   1.081   4.710   1.217  0.6826 -0.4106 -1.2044
19290TIP3    H179285   1.079   4.614   1.215  0.1865 -0.4553  0.2076
19290TIP3    H279286   0.996   4.736   1.183  0.7314 -0.4785 -1.3797
19291TIP3   OH279287   2.691   3.292   2.198  0.0427  0.2727 -0.4196
19291TIP3    H179288   2.758   3.308   2.266  1.0666 -2.2795 -0.7289
19291TIP3    H279289   2.711   3.357   2.130  0.6382  1.1560  0.5537
19292TIP3   OH279290   4.710   2.380  14.121  0.6867  0.3995  0.0251
19292TIP3    H179291   4.786   2.435  14.100  1.4286 -0.6135 -0.0357
19292TIP3    H279292   4.744   2.318  14.185 -0.3022  0.3990  0.5588
19293TIP3   OH279293   5.754   2.077   1.248  0.1993  0.1597  0.0144
19293TIP3    H179294   5.755   2.173   1.242  0.9795  0.1832  0.4257
19293TIP3    H279295   5.773   2.048   1.159  1.2646  0.4019  0.1564
19294TIP3   OH279296   0.792   4.826   1.448  0.1213 -0.4489 -0.1229
19294TIP3    H179297   0.716   4.872   1.411  1.0591 -0.5891 -2.4403
19294TIP3    H279298   0.865   4.888   1.435  0.8503 -1.3458 -0.3868
19295TIP3   OH279299   6.339   0.977   6.285  0.2699  0.3419  0.0751
19295TIP3    H179300   6.386   0.996   6.204 -1.4124  0.4473 -0.9443
19295TIP3    H279301   6.407   0.964   6.351  1.6807  0.4700 -1.3045
19296TIP3   OH279302   5.947   2.436  16.817 -0.4142 -0.6801 -0.1415
19296TIP3    H179303   5.887   2.464  16.748  0.5276  0.9062 -0.3684
19296TIP3    H279304   5.924   2.490  16.892  0.7544  0.0299 -0.2630
19297TIP3   OH279305   2.394   1.193  15.092 -0.3293  0.0519  0.4675
19297TIP3    H179306   2.375   1.284  15.069 -2.3408 -0.4056  0.1399
19297TIP3    H279307   2.313   1.161  15.132  0.8237 -1.1845  1.9341
19298TIP3   OH279308   2.189   2.994   4.515  0.0619  0.4125 -0.1062
19298TIP3    H179309   2.271   3.006   4.468 -0.2498  2.2908 -0.2560
19298TIP3    H279310   2.164   2.903   4.497  1.8161 -0.0394 -0.4824
19299TIP3   OH279311   2.649   2.590   0.347 -0.6301 -0.0241 -1.0494
19299TIP3    H179312   2.554   2.598   0.359 -0.3674 -0.9629  2.9533
19299TIP3    H279313   2.683   2.678   0.364 -0.5919 -0.5264  1.9976
19300TIP3   OH279314   5.161   3.762   3.774 -0.0311 -0.3205  0.2470
19300TIP3    H179315   5.073   3.750   3.737  0.3124 -2.1108 -0.0873
19300TIP3    H279316   5.147   3.816   3.852 -1.4847 -0.9183  0.4309
19301TIP3   OH279317   5.655   5.880   6.499  0.4114  0.2916  0.1104
19301TIP3    H179318   5.655   5.786   6.515  0.1687  0.6444  2.5644
19301TIP3    H279319   5.562   5.905   6.501  0.5449  0.7724  0.9875
19302TIP3   OH279320   2.033   4.972  11.715  0.2196  0.0666  0.1823
19302TIP3    H179321   2.106   4.910  11.720  0.1621 -0.0212 -0.0570
19302TIP3    H279322   2.050   5.034  11.787  1.1785  0.7359 -0.5804
19303TIP3   OH279323   1.795   5.050  16.827  0.2686 -0.1932 -0.3608
19303TIP3    H179324   1.813   5.144  16.828 -1.3205  0.2553  3.1508
19303TIP3    H279325   1.881   5.009  16.837  0.7917  1.0160  0.3417
19304TIP3   OH279326   1.569   1.486  11.901 -0.0097  0.9342  0.0349
19304TIP3    H179327   1.545   1.443  11.983 -0.1981 -1.3279 -1.1242
19304TIP3    H279328   1.608   1.569  11.928 -0.4136  0.4362  2.3783
19305TIP3   OH279329   6.192   2.357  10.879  0.4505 -0.6162  0.3827
19305TIP3    H179330   6.240   2.436  10.903 -0.3956  0.4405 -1.1875
19305TIP3    H279331   6.257   2.300  10.840  0.8355 -0.1167  0.2891
19306TIP3   OH279332   4.059   4.042   1.071 -0.3074 -0.0051  0.1476
19306TIP3    H179333   4.152   4.063   1.080 -0.0218 -0.6307 -1.0956
19306TIP3    H279334   4.029   4.096   0.998 -0.9090  0.1166  0.4733
19307TIP3   OH279335   6.516   1.383  14.954  0.6893  0.1111 -0.2494
19307TIP3    H179336   6.608   1.409  14.948  1.0210 -0.3795  1.8168
19307TIP3    H279337   6.473   1.455  14.998  0.2321  0.0046 -0.5138
19308TIP3   OH279338   5.538   1.952   6.337  0.1733 -0.6883  0.1865
19308TIP3    H179339   5.595   1.882   6.370  0.2437 -1.4284 -1.4005
19308TIP3    H279340   5.543   2.020   6.404  0.7311 -1.8661  1.4085
19309TIP3   OH279341   0.781   2.233   5.643  0.1636 -0.4907  0.2411
19309TIP3    H179342   0.774   2.314   5.594 -0.4355  0.4138  1.7479
19309TIP3    H279343   0.773   2.164   5.577 -0.5762  0.6633 -0.9206
19310TIP3   OH279344   4.917   3.368   6.243  0.2612  0.0446 -0.7841
19310TIP3    H179345   4.905   3.294   6.303  0.7191  0.7420  0.2018
19310TIP3    H279346   4.832   3.412   6.243 -0.2864 -0.9359 -2.0538
19311TIP3   OH279347   6.169   6.569   3.099  0.2318  0.4221  0.1832
19311TIP3    H179348   6.218   6.614   3.168  0.1617  0.6181  0.1067
19311TIP3    H279349   6.134   6.491   3.141  2.0124 -0.6206 -0.1645
19312TIP3   OH279350   5.687   1.636  12.031  0.1748  0.7179 -0.1138
19312TIP3    H179351   5.621   1.614  12.097  0.4016  0.3174 -0.0188
19312TIP3    H279352   5.768   1.595  12.064 -0.0545 -0.9114 -1.4732
19313TIP3   OH279353   1.567   2.152  11.722  0.6175  0.4825  0.5150
19313TIP3    H179354   1.509   2.228  11.725  0.2973  0.2619  0.0254
19313TIP3    H279355   1.634   2.170  11.788 -0.1573  0.6106  1.2700
19314TIP3   OH279356   5.880   1.428  11.419  0.6103  0.1909  0.1925
19314TIP3    H179357   5.840   1.452  11.335 -1.6725 -0.3757  1.0445
19314TIP3    H279358   5.972   1.411  11.398  0.4146  1.4170 -1.9186
19315TIP3   OH279359   3.100   4.839  16.545  0.4618  0.6501  0.4678
19315TIP3    H179360   3.119   4.833  16.639 -0.3611 -0.7398  0.5788
19315TIP3    H279361   3.058   4.756  16.524 -0.1552  1.2885 -0.9598
19316TIP3   OH279362   4.336   2.314  15.442 -0.3019  0.3440  0.1321
19316TIP3    H179363   4.392   2.338  15.369  1.0444 -3.1130 -0.1864
19316TIP3    H279364   4.293   2.395  15.469  0.9129  2.1521 -2.9764
19317TIP3   OH279365   0.868   3.093   1.992 -0.5335 -0.4964 -0.6484
19317TIP3    H179366   0.935   3.161   1.992 -0.3621 -0.6204  1.3114
19317TIP3    H279367   0.821   3.105   1.909  1.3914  0.0779 -1.7024
19318TIP3   OH279368   2.710   0.520   2.045 -0.7189  0.0265 -0.3708
19318TIP3    H179369   2.776   0.456   2.020 -0.5000  0.3291 -0.5659
19318TIP3    H279370   2.634   0.467   2.070  0.0854 -0.3978  1.3683
19319TIP3   OH279371   1.019   3.282  13.833 -0.5558  0.2054  0.1488
19319TIP3    H179372   1.093   3.337  13.858  0.2432 -0.8811  0.2539
19319TIP3    H279373   1.008   3.296  13.739 -0.8612  1.1148  0.3120
19320TIP3   OH279374   4.824   3.138   5.466 -0.1390  0.2155  0.4865
19320TIP3    H179375   4.858   3.226   5.484  0.5391  1.2163 -4.2517
19320TIP3    H279376   4.729   3.148   5.471 -0.0678  1.1784  0.2084
19321TIP3   OH279377   1.876   3.463  16.559 -0.5481 -0.1325 -0.2220
19321TIP3    H179378   1.825   3.403  16.613 -0.3029  0.2782  0.4854
19321TIP3    H279379   1.872   3.547  16.606 -0.2757  0.2179 -0.8106
19322TIP3   OH279380   2.728   5.702   3.885  0.7946  0.5396  0.6352
19322TIP3    H179381   2.766   5.615   3.897 -2.5259 -1.4833 -1.7561
19322TIP3    H279382   2.796   5.751   3.838  2.1341 -1.2943  0.5474
19323TIP3   OH279383   2.104   3.925   5.603  0.1689  0.4406 -0.3880
19323TIP3    H179384   2.199   3.935   5.602  0.0346  1.9968 -0.6855
19323TIP3    H279385   2.089   3.841   5.646  1.6259  0.9739  1.2824
19324TIP3   OH279386   2.731   5.661  11.244  0.2803 -0.3901 -0.2596
19324TIP3    H179387   2.728   5.611  11.326 -0.3887  1.0107  0.6092
19324TIP3    H279388   2.639   5.676  11.222  0.4459  1.6006  0.2546
19325TIP3   OH279389   2.047   0.554   3.326 -0.8480  0.4173 -0.0333
19325TIP3    H179390   1.970   0.603   3.297 -0.4442 -0.0244 -2.0236
19325TIP3    H279391   2.117   0.620   3.329 -1.0304  0.5862  0.5759
19326TIP3   OH279392   4.747   5.619   1.895  0.3625  0.3398 -0.4167
19326TIP3    H179393   4.770   5.703   1.935  0.4843 -0.1229  0.5099
19326TIP3    H279394   4.831   5.575   1.883  0.1612 -0.6690  1.4383
19327TIP3   OH279395   5.528   5.926  15.410  0.3538 -0.4029 -0.1035
19327TIP3    H179396   5.485   5.907  15.327  0.5469  0.1273 -0.3305
19327TIP3    H279397   5.532   5.842  15.455 -1.0583 -0.4524 -0.0087
19328TIP3   OH279398   1.080   6.620   4.960  0.6944 -0.2916 -0.2111
19328TIP3    H179399   1.057   6.606   4.868 -1.0188  0.3753  0.0777
19328TIP3    H279400   1.044   6.543   5.005  0.1628  0.1270  0.0893
19329TIP3   OH279401   1.486   6.354  11.010 -0.2158 -0.0621 -0.7329
19329TIP3    H179402   1.550   6.361  10.939  0.6521  0.3996  0.0591
19329TIP3    H279403   1.470   6.260  11.019 -0.5719 -0.1063 -1.7303
19330TIP3   OH279404   4.694   3.752  13.743 -0.2384  0.2438  0.3689
19330TIP3    H179405   4.628   3.705  13.793 -1.1428  0.4604 -0.5815
19330TIP3    H279406   4.707   3.699  13.664 -0.4097  0.9647 -0.1574
19331TIP3   OH279407   4.828   5.562   4.549  0.3744 -0.0672 -0.1409
19331TIP3    H179408   4.857   5.599   4.465 -1.0738  0.1296 -0.5776
19331TIP3    H279409   4.784   5.635   4.593 -0.1048 -0.5492  0.1868
19332TIP3   OH279410   2.308   3.774  13.599 -0.2832 -0.2412 -0.1173
19332TIP3    H179411   2.267   3.689  13.588 -0.0106 -0.3522 -0.2789
19332TIP3    H279412   2.253   3.819  13.662 -0.6893 -0.3659 -0.3807
19333TIP3   OH279413   3.391   6.694   5.054 -0.2024 -0.0347  0.2897
19333TIP3    H179414   3.434   6.642   5.121  2.0399 -0.0885 -1.0595
19333TIP3    H279415   3.333   6.633   5.009  1.6663 -1.2422 -0.6459
19334TIP3   OH279416   5.457   0.451   3.810  0.4417 -0.2285 -0.6560
19334TIP3    H179417   5.385   0.502   3.773  0.0289 -0.2020  0.1633
19334TIP3    H279418   5.426   0.360   3.809  0.6687 -0.3071 -0.9187
19335TIP3   OH279419   3.745   1.041  16.560 -0.5205 -0.2924 -0.0714
19335TIP3    H179420   3.788   0.967  16.518 -0.5285 -0.9997  1.1067
19335TIP3    H279421   3.679   1.002  16.617 -0.6027  0.6140  0.4879
19336TIP3   OH279422   3.582   5.264   0.844  0.1317  0.2965  0.2746
19336TIP3    H179423   3.670   5.279   0.881  0.5568 -2.6315  0.7071
19336TIP3    H279424   3.596   5.262   0.750  0.3852  0.5489  0.3036
19337TIP3   OH279425   4.257   4.748  11.654  0.1382  0.1906 -0.1650
19337TIP3    H179426   4.255   4.757  11.750 -0.1143  0.7473 -0.2221
19337TIP3    H279427   4.255   4.838  11.621  0.9136  0.0271 -0.6882
19338TIP3   OH279428   1.512   0.827  13.918 -0.2614  0.8504 -0.3968
19338TIP3    H179429   1.498   0.757  13.853  2.7205  0.7164 -1.0457
19338TIP3    H279430   1.603   0.853  13.906 -0.7847  3.7556  0.9740
19339TIP3   OH279431   2.629   0.787  15.558  0.5255 -0.3762  0.1049
19339TIP3    H179432   2.550   0.806  15.610  0.9195 -3.0138  1.8987
19339TIP3    H279433   2.697   0.840  15.598  0.4404 -1.0451  1.1842
19340TIP3   OH279434   6.785   2.885  15.647  0.5503  0.2084  0.5221
19340TIP3    H179435   6.849   2.924  15.707  0.0039 -1.8266  2.6079
19340TIP3    H279436   6.700   2.907  15.686  0.1433 -0.3265 -0.0531
19341TIP3   OH279437   2.089   5.712  14.959  0.2660 -0.1174 -0.6578
19341TIP3    H179438   2.036   5.768  14.903  0.0700 -0.4638 -0.8191
19341TIP3    H279439   2.026   5.659  15.006  0.4536 -0.2107 -0.5125
19342TIP3   OH279440   4.953   3.414   0.187 -0.5620 -0.2586 -0.6217
19342TIP3    H179441   5.043   3.389   0.164 -0.3489  0.8805 -1.0921
19342TIP3    H279442   4.926   3.471   0.116 -0.8631  1.2049  0.6292
19343TIP3   OH279443   5.615   4.539  13.007 -0.0941 -0.1651  0.2218
19343TIP3    H179444   5.602   4.557  13.100  0.0596 -1.2817  0.4627
19343TIP3    H279445   5.701   4.497  13.002 -0.6572 -1.3053 -0.2554
19344TIP3   OH279446   0.796   2.495   5.938 -0.4101 -0.5527  0.5218
19344TIP3    H179447   0.826   2.574   5.984 -0.5183  0.2196 -0.7165
19344TIP3    H279448   0.851   2.490   5.860 -1.8976 -0.4419 -0.5649
19345TIP3   OH279449   1.006   1.769  11.316 -0.0799 -0.4795  0.4064
19345TIP3    H179450   1.002   1.682  11.276  0.6127 -0.8377  1.0936
19345TIP3    H279451   1.002   1.753  11.410 -3.6498  0.4459  0.5746
19346TIP3   OH279452   3.868   1.788  14.637  0.3288  0.2679 -0.5290
19346TIP3    H179453   3.822   1.781  14.553 -2.1013 -0.6416  0.7577
19346TIP3    H279454   3.900   1.878  14.640  0.3220  0.3631 -2.3517
19347TIP3   OH279455   6.771   5.194  13.099  0.2480  0.1690  0.0925
19347TIP3    H179456   6.863   5.209  13.121  0.4872 -0.5953 -0.3572
19347TIP3    H279457   6.746   5.118  13.151  0.6934 -1.3766 -1.8124
19348TIP3   OH279458   0.201   1.449   0.772  0.0246  0.3337 -0.6042
19348TIP3    H179459   0.148   1.502   0.832  1.2924  0.0628  0.8283
19348TIP3    H279460   0.289   1.451   0.810  0.2814 -2.1535 -0.9104
19349TIP3   OH279461   1.695   5.129  14.859 -0.4594  0.4574 -0.0046
19349TIP3    H179462   1.717   5.209  14.906  1.0805 -0.2987  0.6473
19349TIP3    H279463   1.631   5.156  14.793  0.7247  2.4104 -0.4373
19350TIP3   OH279464   1.850   4.025  12.320 -0.2587 -0.1696 -0.1439
19350TIP3    H179465   1.931   3.975  12.331 -1.2329 -1.6668  0.4404
19350TIP3    H279466   1.853   4.056  12.230  1.6557  1.0941  0.2987
19351TIP3   OH279467   5.210   0.372  15.172  0.2970  0.2928  0.3525
19351TIP3    H179468   5.138   0.309  15.184 -0.8040  1.8825  2.7715
19351TIP3    H279469   5.260   0.336  15.099 -1.2729 -2.4401  0.4615
19352TIP3   OH279470   5.213   4.138  15.051  0.8624  0.6390 -0.4715
19352TIP3    H179471   5.193   4.093  15.133 -0.9454  2.1306 -0.0156
19352TIP3    H279472   5.258   4.073  14.998  0.0463 -1.0927  0.8547
19353TIP3   OH279473   0.513   6.757   0.234  0.2866  0.2427 -0.4678
19353TIP3    H179474   0.454   6.832   0.221 -0.5469 -0.2106  0.5919
19353TIP3    H279475   0.556   6.775   0.317 -0.5309 -0.8456  0.2042
19354TIP3   OH279476   3.670   0.075  12.166  0.1321 -0.0524 -0.0739
19354TIP3    H179477   3.676   0.165  12.196  1.4493  0.2380 -1.1141
19354TIP3    H279478   3.577   0.053  12.173 -0.2497  1.4755 -0.1034
19355TIP3   OH279479   4.762   1.237   1.667 -0.2778  0.0270 -0.2542
19355TIP3    H179480   4.812   1.304   1.621  0.6853 -0.2447  0.3744
19355TIP3    H279481   4.671   1.263   1.656  0.1192  2.3248  1.3255
19356TIP3   OH279482   4.949   2.641  14.779  0.3966  0.0547  0.1142
19356TIP3    H179483   4.882   2.576  14.760 -0.5486  0.5732  1.5235
19356TIP3    H279484   5.019   2.622  14.717 -0.2392 -1.7156 -0.1195
19357TIP3   OH279485   2.961   2.374   2.797 -0.3934  0.0992 -0.5770
19357TIP3    H179486   2.935   2.298   2.746  2.3725 -1.0799 -0.4278
19357TIP3    H279487   2.965   2.446   2.734  1.8412 -1.0786 -1.9223
19358TIP3   OH279488   6.629   4.028  11.077  0.5615 -0.2549  0.3362
19358TIP3    H179489   6.544   3.984  11.089  0.6769 -0.6123 -0.1121
19358TIP3    H279490   6.610   4.120  11.092 -0.3602 -0.0579 -1.6867
19359TIP3   OH279491   6.661   2.190   3.211 -0.0536 -0.3500  0.2885
19359TIP3    H179492   6.676   2.102   3.245 -0.1406 -0.4605  0.0470
19359TIP3    H279493   6.697   2.187   3.122 -0.5914 -0.3158  0.0656
19360TIP3   OH279494   6.070   1.153   0.301 -0.1380 -0.1336 -0.3027
19360TIP3    H179495   6.026   1.091   0.242  0.1471 -1.7655  1.1085
19360TIP3    H279496   6.061   1.238   0.257 -1.5219 -0.9756 -1.7891
19361TIP3   OH279497   2.887   4.906  16.252 -0.1156 -0.1142 -0.0126
19361TIP3    H179498   2.841   4.984  16.283  1.6569  0.3813  1.5270
19361TIP3    H279499   2.937   4.937  16.177  0.3160  0.1508  0.3824
19362TIP3   OH279500   5.014   4.710  10.186  0.0376 -0.1942  0.2591
19362TIP3    H179501   5.069   4.758  10.248  2.0021 -1.8899 -0.0406
19362TIP3    H279502   5.064   4.713  10.104 -0.4616 -1.5180 -0.1094
19363TIP3   OH279503   3.958   0.041   5.524  0.4358  0.6112 -0.5199
19363TIP3    H179504   3.952   0.096   5.446  1.0979 -0.2082 -1.1776
19363TIP3    H279505   4.045   0.000   5.518  0.0287 -0.3786  0.0107
19364TIP3   OH279506   0.110   2.911  12.317  0.5948  0.5129  0.3177
19364TIP3    H179507   0.184   2.958  12.357  0.6729  0.7532 -0.0935
19364TIP3    H279508   0.101   2.952  12.231  1.9267 -1.5005 -0.8774
19365TIP3   OH279509   0.310   4.817   4.140 -0.1650 -0.3707  0.1475
19365TIP3    H179510   0.295   4.779   4.054 -0.5837 -1.8645  0.8478
19365TIP3    H279511   0.242   4.779   4.195 -1.8052  2.8028  0.5460
19366TIP3   OH279512   6.145   5.564   4.282  0.0695 -0.0195 -0.4933
19366TIP3    H179513   6.055   5.592   4.265 -0.4143  0.0341  1.7592
19366TIP3    H279514   6.196   5.601   4.210 -1.4477  1.5501 -0.8250
19367TIP3   OH279515   6.653   4.375   4.285 -0.3033  0.2103  0.3461
19367TIP3    H179516   6.576   4.420   4.319 -0.2681  0.5155  0.0346
19367TIP3    H279517   6.635   4.363   4.192  0.1259  0.5012  0.2211
19368TIP3   OH279518   0.072   4.798   2.189  0.5475 -0.0508  0.1823
19368TIP3    H179519   0.017   4.876   2.179  1.4234  0.3851 -1.9797
19368TIP3    H279520   0.161   4.832   2.182  1.0511 -0.9731  1.7297
19369TIP3   OH279521   1.014   0.879   0.748 -0.3134  0.0487 -0.2339
19369TIP3    H179522   1.096   0.891   0.796  0.1133  1.1462 -1.1926
19369TIP3    H279523   1.040   0.843   0.664 -0.7574  0.7302 -0.6807
19370TIP3   OH279524   6.062   0.476  16.768 -0.1673 -0.0386  0.0139
19370TIP3    H179525   6.018   0.531  16.703 -2.0699 -0.6983  0.6624
19370TIP3    H279526   6.154   0.475  16.742 -0.7612  0.2597 -2.2398
19371TIP3   OH279527   1.733   3.825  15.668  0.5034  0.5375 -0.9666
19371TIP3    H179528   1.698   3.767  15.736  0.3140  0.4920 -1.1030
19371TIP3    H279529   1.769   3.899  15.717 -1.4583  1.5131 -0.8876
19372TIP3   OH279530   4.101   6.641  11.003 -0.1354 -0.1467  0.3946
19372TIP3    H179531   4.145   6.722  11.027  1.1643 -0.7902  0.2589
19372TIP3    H279532   4.022   6.669  10.956 -0.1637  1.0360  1.1171
19373TIP3   OH279533   6.341   6.756  12.118 -0.1266 -0.2456 -1.0813
19373TIP3    H179534   6.315   6.742  12.027  1.2639  2.0860 -1.9494
19373TIP3    H279535   6.434   6.781  12.112  0.1247 -0.5069  1.0396
19374TIP3   OH279536   5.338   2.923   4.141  0.5321  0.0758 -0.0063
19374TIP3    H179537   5.338   2.864   4.217 -1.1649 -0.2949 -0.2570
19374TIP3    H279538   5.260   2.898   4.091 -0.5064  2.8512  0.1040
19375TIP3   OH279539   1.842   3.296  10.457 -0.4612  0.8159 -0.2600
19375TIP3    H179540   1.857   3.388  10.435  0.2089  0.5390 -0.9927
19375TIP3    H279541   1.921   3.270  10.505 -0.2656  0.3964 -0.7981
19376TIP3   OH279542   4.933   2.395  16.059 -0.4861 -0.2765 -0.2563
19376TIP3    H179543   4.998   2.422  15.994  0.6665  0.6376  1.2005
19376TIP3    H279544   4.946   2.456  16.131 -2.4962 -0.5496  0.3862
19377TIP3   OH279545   1.985   0.073   1.603 -0.4626 -0.2190 -0.4223
19377TIP3    H179546   1.903   0.034   1.634 -0.0776 -0.7449 -0.0567
19377TIP3    H279547   1.966   0.098   1.512 -1.2539  0.3443 -0.1099
19378TIP3   OH279548   6.251   4.457   6.116 -0.6664 -0.3145  0.4527
19378TIP3    H179549   6.169   4.504   6.101 -0.3056 -0.0146 -0.6727
19378TIP3    H279550   6.245   4.380   6.060 -0.0254 -0.0974  0.0775
19379TIP3   OH279551   5.357   5.551  14.301 -0.3995  0.1914  0.6206
19379TIP3    H179552   5.429   5.519  14.357 -0.3220  1.5018  1.2930
19379TIP3    H279553   5.343   5.479  14.239  1.8661  0.1019  0.1052
19380TIP3   OH279554   1.898   5.586   5.237 -0.2568 -0.6620 -0.2946
19380TIP3    H179555   1.851   5.668   5.221  0.1430 -0.5479 -0.9300
19380TIP3    H279556   1.981   5.613   5.276 -0.1956 -0.7782 -0.3452
19381TIP3   OH279557   3.118   1.957   5.524 -0.0314  0.2651  0.6174
19381TIP3    H179558   3.201   2.005   5.522 -1.1451  2.2887 -0.9765
19381TIP3    H279559   3.051   2.024   5.513 -1.7006 -1.6363 -2.0869
19382TIP3   OH279560   3.922   1.865  17.239  0.2437 -0.5000 -0.6061
19382TIP3    H179561   3.893   1.779  17.207 -0.4608 -0.4254 -0.1686
19382TIP3    H279562   3.847   1.923  17.225  0.6764  0.0210 -0.7905
19383TIP3   OH279563   5.451   4.324   3.724  0.1044  0.3649 -0.7152
19383TIP3    H179564   5.477   4.415   3.740 -1.4103  0.7053 -0.0159
19383TIP3    H279565   5.386   4.330   3.654 -2.0210  0.1817  1.1131
19384TIP3   OH279566   2.503   6.557  12.811  0.3454  0.1193  0.1527
19384TIP3    H179567   2.477   6.514  12.730 -0.2562 -0.6476  0.7411
19384TIP3    H279568   2.514   6.486  12.874  2.5734  0.5042  0.3056
19385TIP3   OH279569   5.266   4.723  14.101 -0.0030  0.3188 -0.6142
19385TIP3    H179570   5.306   4.807  14.077  3.1656 -0.8292  0.0779
19385TIP3    H279571   5.284   4.715  14.195 -0.7570 -0.9059 -0.5583
19386TIP3   OH279572   3.723   2.477  13.582 -0.1207  0.1213  0.4090
19386TIP3    H179573   3.788   2.546  13.569  0.8346 -1.1052 -1.7363
19386TIP3    H279574   3.649   2.523  13.622  1.4875  1.8291  1.5949
19387TIP3   OH279575   6.220   5.919  12.656 -0.2270 -0.9304  0.1831
19387TIP3    H179576   6.287   5.976  12.619  1.2343  0.2401  4.1291
19387TIP3    H279577   6.164   5.978  12.707  0.4590 -2.7042  3.2080
19388TIP3   OH279578   2.247   2.652  15.954  0.1952  0.3922  0.5587
19388TIP3    H179579   2.308   2.714  15.915  0.2386 -0.3440 -0.5889
19388TIP3    H279580   2.284   2.566  15.933 -1.0587 -0.0627  0.1157
19389TIP3   OH279581   4.481   6.444  13.144  0.0188 -0.3678  0.1238
19389TIP3    H179582   4.389   6.441  13.170  0.2680  0.8312  1.2358
19389TIP3    H279583   4.524   6.380  13.201 -0.0821 -0.7078 -0.1833
19390TIP3   OH279584   1.859   2.711   2.325 -0.0272 -0.5469  0.2663
19390TIP3    H179585   1.769   2.703   2.357 -0.0336 -0.5180  0.2552
19390TIP3    H279586   1.858   2.789   2.270  0.2915  0.1316  1.2231
19391TIP3   OH279587   0.365   2.346   6.032  0.3155  0.1250  0.1274
19391TIP3    H179588   0.346   2.254   6.018  0.1982  0.4472 -2.1546
19391TIP3    H279589   0.281   2.384   6.059 -0.4565  0.0836 -2.0098
19392TIP3   OH279590   0.785   0.629   5.679 -0.0995  0.1856 -0.3873
19392TIP3    H179591   0.712   0.624   5.618  0.0777 -0.4016 -0.5611
19392TIP3    H279592   0.774   0.552   5.736  0.2711  0.1992 -0.2925
19393TIP3   OH279593   3.007   2.722  14.969 -0.3026  0.4182 -0.3260
19393TIP3    H179594   2.981   2.650  15.027  0.3371  0.6347  0.2545
19393TIP3    H279595   3.084   2.760  15.013  0.8903 -0.1077 -1.8690
19394TIP3   OH279596   6.649   2.097   0.617 -0.0145  0.4700 -0.1596
19394TIP3    H179597   6.672   2.169   0.559 -1.1262  1.1505  0.2004
19394TIP3    H279598   6.608   2.031   0.561  0.1748  0.5235 -0.3564
19395TIP3   OH279599   6.389   4.005   5.876  0.0562  0.0157 -0.5091
19395TIP3    H179600   6.341   3.936   5.831 -0.5906 -0.1132  0.3435
19395TIP3    H279601   6.436   3.960   5.946  0.3411  0.3177 -0.5042
19396TIP3   OH279602   0.253   0.339   3.143 -0.1571  0.2195 -0.0209
19396TIP3    H179603   0.319   0.318   3.209 -1.3121 -0.7569  0.8943
19396TIP3    H279604   0.289   0.308   3.061  0.2208 -1.0098  0.5825
19397TIP3   OH279605   2.530   6.276   4.820 -0.1555  0.7304  0.0115
19397TIP3    H179606   2.603   6.245   4.874 -0.7346 -0.1374  0.3335
19397TIP3    H279607   2.566   6.349   4.770  0.4106  1.5665  1.5644
19398TIP3   OH279608   1.568   5.269   0.983  0.3317 -0.3341  0.0568
19398TIP3    H179609   1.483   5.246   1.021  0.3155  0.8631  0.7985
19398TIP3    H279610   1.549   5.344   0.925  0.9279  0.1885  0.5207
19399TIP3   OH279611   4.727   1.688   3.292  0.1119 -0.1069 -0.5060
19399TIP3    H179612   4.649   1.699   3.239 -1.1849 -2.4986  0.7260
19399TIP3    H279613   4.764   1.604   3.263 -0.2273 -1.1177  1.7651
19400TIP3   OH279614   6.686   6.005   0.444  0.5018 -0.1854  0.5673
19400TIP3    H179615   6.749   6.048   0.502  0.7212 -1.5603  1.4215
19400TIP3    H279616   6.692   6.052   0.361  2.6696 -0.2470  0.6261
19401TIP3   OH279617   6.494   3.991   0.224 -0.3020 -0.0391 -0.2807
19401TIP3    H179618   6.566   3.944   0.266 -0.9987  0.3771  1.4547
19401TIP3    H279619   6.431   4.006   0.294 -1.3677  1.0199 -1.4170
19402TIP3   OH279620   0.837   2.651   3.906  0.2702  0.4773  0.4984
19402TIP3    H179621   0.871   2.564   3.923  0.2900  0.4710  0.4292
19402TIP3    H279622   0.764   2.637   3.847 -1.1005  0.3241  2.1679
19403TIP3   OH279623   6.696   0.563  13.506  0.1185 -0.1196  0.2202
19403TIP3    H179624   6.681   0.575  13.600 -0.3449  0.7970  0.0417
19403TIP3    H279625   6.620   0.605  13.464  0.2023 -0.7261 -0.5568
19404TIP3   OH279626   2.295   5.896   2.730 -0.2259  0.2458 -0.0017
19404TIP3    H179627   2.258   5.909   2.643 -0.9372  0.3824  0.3187
19404TIP3    H279628   2.286   5.981   2.773  1.0307  0.4653 -0.1232
19405TIP3   OH279629   6.542   2.452  16.764  0.7320 -0.4700 -0.2996
19405TIP3    H179630   6.541   2.511  16.689  1.3266  0.9796  0.7796
19405TIP3    H279631   6.602   2.494  16.826 -0.8164 -0.8544  1.5551
19406TIP3   OH279632   4.475   3.587  13.812 -0.1450 -0.4561  0.0297
19406TIP3    H179633   4.451   3.614  13.900 -2.2096 -0.2105 -0.5713
19406TIP3    H279634   4.448   3.496  13.806 -0.3828 -0.3523 -0.4888
19407TIP3   OH279635   2.823   0.930  12.581  0.4129 -0.0922  0.2197
19407TIP3    H179636   2.779   1.007  12.617 -2.0802 -1.9570  1.4085
19407TIP3    H279637   2.804   0.860  12.643  3.8018 -1.4309 -0.0848
19408TIP3   OH279638   6.462   0.428   6.447 -0.0463 -0.3324  0.4363
19408TIP3    H179639   6.522   0.490   6.407 -1.3354  0.0729 -0.9590
19408TIP3    H279640   6.386   0.481   6.471 -1.1093 -1.3242 -0.6438
19409TIP3   OH279641   3.848   5.871   3.560 -0.1902 -0.2784  0.1860
19409TIP3    H179642   3.760   5.908   3.558  0.1437  0.5033 -1.0331
19409TIP3    H279643   3.849   5.815   3.638 -1.3233  0.7848  1.0000
19410TIP3   OH279644   6.519   6.546   2.381 -0.2110  0.8869 -0.0892
19410TIP3    H179645   6.568   6.539   2.463 -0.6120  1.4538  0.2010
19410TIP3    H279646   6.547   6.630   2.343 -1.5952  1.6486  0.5106
19411TIP3   OH279647   3.332   0.762  12.721  0.0986  0.6430 -0.0247
19411TIP3    H179648   3.271   0.802  12.659 -0.2256  0.0037 -0.1301
19411TIP3    H279649   3.409   0.742  12.668 -0.5365 -0.7741 -0.4722
19412TIP3   OH279650   3.202   6.698  16.857  0.3565 -0.3647 -0.3290
19412TIP3    H179651   3.209   6.604  16.841 -0.1975 -0.9263  2.2335
19412TIP3    H279652   3.108   6.716  16.858  0.4298  0.0316  0.0463
19413TIP3   OH279653   3.083   0.706  13.466  0.1329 -0.5985 -0.7795
19413TIP3    H179654   3.093   0.689  13.372 -0.2993 -0.8587 -0.7836
19413TIP3    H279655   2.988   0.714  13.478  0.1601 -0.9736 -0.2991
19414TIP3   OH279656   2.107   2.251  15.160  0.5536  0.3440 -0.2739
19414TIP3    H179657   2.047   2.325  15.159  1.3855  1.0512  0.3914
19414TIP3    H279658   2.061   2.182  15.207 -0.0390  0.6011 -0.4717
19415TIP3   OH279659   4.399   2.847   1.579  0.2903  0.2045 -0.1279
19415TIP3    H179660   4.409   2.936   1.546 -1.0100  0.7596  0.8626
19415TIP3    H279661   4.377   2.795   1.502 -1.1635  1.1731 -0.4102
19416TIP3   OH279662   4.071   1.830   0.929  0.1775 -0.2125  0.4801
19416TIP3    H179663   3.981   1.856   0.909  0.2722  2.2347  2.7273
19416TIP3    H279664   4.064   1.774   1.006  0.5968  0.6402  1.1524
19417TIP3   OH279665   5.341   3.525   6.073  0.0921 -0.0105 -0.1169
19417TIP3    H179666   5.272   3.516   6.140  0.5515  1.8059  0.6516
19417TIP3    H279667   5.310   3.596   6.017 -0.1593 -1.3447 -1.7399
19418TIP3   OH279668   0.491   4.266  13.946 -0.1855 -0.3491 -0.2234
19418TIP3    H179669   0.457   4.244  13.859 -0.5174 -0.9952  0.0583
19418TIP3    H279670   0.507   4.360  13.943 -2.2438  0.0534 -0.3054
19419TIP3   OH279671   4.814   1.177  14.824 -0.3188 -0.1915  0.5825
19419TIP3    H179672   4.892   1.125  14.841 -0.0209  0.6840  2.0298
19419TIP3    H279673   4.763   1.171  14.905 -1.4629 -0.2486 -0.1196
19420TIP3   OH279674   4.463   6.681  10.996  0.1591  0.4559  0.4975
19420TIP3    H179675   4.412   6.706  10.919  0.3207  1.0037  0.5616
19420TIP3    H279676   4.413   6.610  11.036 -0.4668  0.8654  0.4599
19421TIP3   OH279677   4.361   1.277   4.185  0.3217 -0.3029  0.1059
19421TIP3    H179678   4.446   1.305   4.218  0.8870 -0.8533 -0.8392
19421TIP3    H279679   4.298   1.334   4.229  1.0505 -0.7503  1.8386
19422TIP3   OH279680   0.737   1.564   5.035 -0.0999  0.0517 -0.8945
19422TIP3    H179681   0.739   1.495   4.969 -1.0827  0.3258 -1.2298
19422TIP3    H279682   0.806   1.625   5.009  0.9585 -0.9347 -0.4361
19423TIP3   OH279683   2.649   3.200   6.085  0.1718 -0.0049  0.5272
19423TIP3    H179684   2.743   3.185   6.081 -0.0197 -1.4079  0.7996
19423TIP3    H279685   2.610   3.112   6.089 -1.3133  0.3903 -2.3329
19424TIP3   OH279686   2.058   5.773  15.708 -0.6073 -0.1065 -0.1420
19424TIP3    H179687   2.099   5.848  15.665 -1.0154  0.0311 -0.2870
19424TIP3    H279688   1.980   5.754  15.656 -0.1653 -1.0403 -0.4833
19425TIP3   OH279689   5.160   0.127  15.984  1.0440  0.6651 -0.0995
19425TIP3    H179690   5.115   0.152  15.904  1.3286 -0.2826 -0.5742
19425TIP3    H279691   5.159   0.031  15.983  0.8284  0.6334  1.1606
19426TIP3   OH279692   2.257   0.029  13.121  0.2138 -0.3089 -0.4260
19426TIP3    H179693   2.218   0.116  13.113 -0.4499 -0.5769 -0.1912
19426TIP3    H279694   2.319   0.023  13.048  0.5051  0.4789 -0.2495
19427TIP3   OH279695   5.866   6.655  12.701 -0.2853 -0.4013 -0.3635
19427TIP3    H179696   5.814   6.727  12.665 -0.6352 -0.5923 -0.2509
19427TIP3    H279697   5.817   6.576  12.677 -1.2211 -0.4807  1.6047
19428TIP3   OH279698   6.376   5.366  11.401  0.1124 -0.1143  0.3460
19428TIP3    H179699   6.430   5.439  11.431 -0.4858  0.8688 -0.8767
19428TIP3    H279700   6.438   5.303  11.364  0.4647  1.0702 -1.1930
19429TIP3   OH279701   3.722   3.358   0.638 -0.4155  0.0554  0.2903
19429TIP3    H179702   3.735   3.452   0.625 -1.6081  0.5849  2.4359
19429TIP3    H279703   3.628   3.349   0.651 -0.4778 -1.6441 -1.0299
19430TIP3   OH279704   3.522   1.820  15.130 -0.0482  0.0034 -0.5883
19430TIP3    H179705   3.447   1.796  15.076  0.1772  0.4676 -1.1174
19430TIP3    H279706   3.484   1.844  15.215 -0.3478 -1.3815 -0.3012
19431TIP3   OH279707   5.661   0.085  11.926 -0.6717  0.1734 -0.3764
19431TIP3    H179708   5.753   0.088  11.897 -0.5534  0.5100  0.0219
19431TIP3    H279709   5.629   0.001  11.895 -0.0028 -0.2815  0.1422
19432TIP3   OH279710   1.787   2.361  17.135  0.6965  0.0677 -0.1887
19432TIP3    H179711   1.838   2.376  17.056  0.6387 -2.5630 -0.7844
19432TIP3    H279712   1.785   2.266  17.146 -0.3043  0.2903  2.3206
19433TIP3   OH279713   0.710   6.618  12.092  0.5711  0.2714  0.6493
19433TIP3    H179714   0.628   6.595  12.049  0.2682  0.0862  1.3106
19433TIP3    H279715   0.689   6.697  12.143  0.9807  0.6198  0.2949
19434TIP3   OH279716   6.250   0.173   2.848  0.0353 -0.1448 -0.2010
19434TIP3    H179717   6.244   0.117   2.926 -0.0702 -0.1901 -0.2421
19434TIP3    H279718   6.176   0.146   2.794 -0.4140  0.5049  0.0867
19435TIP3   OH279719   1.177   3.254   1.029 -0.0510 -0.3956  0.5476
19435TIP3    H179720   1.094   3.295   1.006 -0.1436  0.5290  2.2860
19435TIP3    H279721   1.232   3.263   0.951 -2.4425 -3.7469 -1.7847
19436TIP3   OH279722   2.895   5.226   0.256 -0.1688 -0.5066 -0.1314
19436TIP3    H179723   2.974   5.186   0.292  0.4612  1.0644  0.3239
19436TIP3    H279724   2.839   5.243   0.332 -0.4167 -0.5067 -0.3117
19437TIP3   OH279725   2.924   1.333  12.227 -0.0829  0.3873  0.5942
19437TIP3    H179726   2.848   1.302  12.178 -0.5422  1.9405  0.2477
19437TIP3    H279727   2.909   1.304  12.317  0.6550 -2.3004 -0.0570
19438TIP3   OH279728   3.015   5.373  14.267  0.3218  0.2684  0.6501
19438TIP3    H179729   2.958   5.441  14.230  4.2534  2.7372 -1.6400
19438TIP3    H279730   3.035   5.404  14.356  1.0177  1.4706  0.0968
19439TIP3   OH279731   1.826   5.510  12.101 -0.5493 -0.4278 -0.1183
19439TIP3    H179732   1.877   5.479  12.026  1.0323 -1.4233  1.3131
19439TIP3    H279733   1.843   5.604  12.105  1.0706 -0.7029  0.2043
19440TIP3   OH279734   5.207   0.300  13.080 -0.3220  0.6806  0.5213
19440TIP3    H179735   5.168   0.333  13.161  0.4096  2.1798  0.3143
19440TIP3    H279736   5.178   0.363  13.013  0.1569  0.2217 -0.1294
19441TIP3   OH279737   2.571   1.189   4.039  0.1723 -0.0336  0.5744
19441TIP3    H179738   2.548   1.132   4.112  0.2481  0.2629  0.8326
19441TIP3    H279739   2.596   1.272   4.080  3.0193 -0.7075  0.4423
19442TIP3   OH279740   4.879   6.727  16.823 -0.3571 -0.3025 -0.0686
19442TIP3    H179741   4.975   6.730  16.831 -0.3201 -1.2704 -0.1192
19442TIP3    H279742   4.860   6.784  16.749 -0.0739  2.3340  1.7202
19443TIP3   OH279743   6.379   4.887   5.055 -0.0931 -0.3756 -0.5764
19443TIP3    H179744   6.307   4.949   5.043 -0.9370 -1.1825  0.1617
19443TIP3    H279745   6.370   4.825   4.983 -1.1833 -1.4417  0.4373
19444TIP3   OH279746   0.747   4.369   3.299 -1.0868  0.0585  0.1859
19444TIP3    H179747   0.822   4.314   3.276 -0.0119  0.7306  1.9273
19444TIP3    H279748   0.679   4.344   3.236  0.6704 -0.3439 -1.6685
19445TIP3   OH279749   5.996   5.075  17.204 -0.3845  0.1414 -0.2477
19445TIP3    H179750   5.939   5.061  17.128 -1.3450 -0.1832  0.5158
19445TIP3    H279751   5.985   5.168  17.226  0.2458  0.3496 -0.7641
19446TIP3   OH279752   4.034   1.279  14.278 -0.8906 -0.0022  0.4766
19446TIP3    H179753   3.998   1.334  14.347 -0.6669  0.3323  0.3297
19446TIP3    H279754   4.095   1.221  14.322 -1.0731 -0.0834  0.6226
19447TIP3   OH279755   2.022   0.520   1.863  0.3635  0.3478  0.3267
19447TIP3    H179756   2.051   0.475   1.783  0.6241  1.0218  0.0335
19447TIP3    H279757   2.103   0.537   1.911  0.2439  0.3130  0.5403
19448TIP3   OH279758   0.043   2.084  11.398  0.1369  0.1431 -0.2641
19448TIP3    H179759   0.123   2.124  11.364 -0.8111  1.5186 -0.9785
19448TIP3    H279760   0.023   2.133  11.477  0.0834 -0.3127  0.0106
19449TIP3   OH279761   4.583   5.057   1.185 -0.0726  0.3725  0.5367
19449TIP3    H179762   4.575   5.095   1.098 -0.6516 -2.4453 -0.7372
19449TIP3    H279763   4.561   4.965   1.174 -2.0129  0.2390  4.0244
19450TIP3   OH279764   0.962   4.141  12.564 -0.2018 -0.8487 -0.1042
19450TIP3    H179765   0.907   4.219  12.557 -0.4906 -1.0894 -0.6377
19450TIP3    H279766   1.000   4.131  12.477  0.5993 -0.7518  0.2348
19451TIP3   OH279767   4.988   1.981   3.584  0.6534  0.1789  0.7918
19451TIP3    H179768   4.962   1.929   3.508 -0.6406  1.1878  0.5167
19451TIP3    H279769   4.914   2.040   3.599  1.9648  1.7574  1.2665
19452TIP3   OH279770   3.743   3.760   4.683  0.0775  0.1196  0.6218
19452TIP3    H179771   3.730   3.851   4.655 -0.0156 -0.8333 -2.9065
19452TIP3    H279772   3.655   3.730   4.706 -0.3576  0.2178 -0.7991
19453TIP3   OH279773   2.758   3.753   1.210  0.6796  0.1158  0.0287
19453TIP3    H179774   2.765   3.781   1.119 -1.1681  0.0869 -0.1675
19453TIP3    H279775   2.805   3.819   1.260  0.7852  0.7272 -0.8595
19454TIP3   OH279776   1.353   0.253   1.871  0.3415 -0.0067  0.3312
19454TIP3    H179777   1.368   0.200   1.948 -0.9749 -0.1816  0.4941
19454TIP3    H279778   1.436   0.251   1.823  0.5348 -1.6266  0.6800
19455TIP3   OH279779   4.399   6.678  13.327 -0.3349 -0.4041 -0.0399
19455TIP3    H179780   4.352   6.596  13.310 -2.1853  0.3614  1.0344
19455TIP3    H279781   4.360   6.740  13.266  0.7089 -0.1849 -0.4988
19456TIP3   OH279782   6.541   4.588   0.096 -0.1750  0.1944 -0.0426
19456TIP3    H179783   6.628   4.591   0.137  0.0633  1.4306 -0.6199
19456TIP3    H279784   6.546   4.512   0.037  0.3875  0.0296  0.2082
19457TIP3   OH279785   1.059   0.923   2.109 -0.0543 -0.1472 -0.7486
19457TIP3    H179786   0.967   0.903   2.092  0.0275 -2.0239  0.6750
19457TIP3    H279787   1.103   0.905   2.025 -1.0595  1.7769 -1.7549
19458TIP3   OH279788   2.844   5.156   2.822 -0.0222  0.3891  0.5437
19458TIP3    H179789   2.913   5.091   2.810  1.5364  1.7692  1.5393
19458TIP3    H279790   2.825   5.189   2.734  0.9404  0.3332  0.3123
19459TIP3   OH279791   3.563   1.228   2.115 -0.1544  0.3389 -0.2762
19459TIP3    H179792   3.602   1.296   2.061  0.9535 -0.1122 -0.0780
19459TIP3    H279793   3.527   1.165   2.053 -0.7722  0.8700 -0.4616
19460TIP3   OH279794   5.759   4.406  16.163 -0.8027 -0.1293 -0.2976
19460TIP3    H179795   5.802   4.326  16.194 -0.3108  0.2795  0.1017
19460TIP3    H279796   5.688   4.421  16.225 -0.9241 -0.2737 -0.3987
19461TIP3   OH279797   3.915   4.421  16.768 -0.0477  0.0730 -0.5986
19461TIP3    H179798   3.858   4.349  16.794  0.0695  1.3115  3.9435
19461TIP3    H279799   4.003   4.383  16.768 -0.1906 -0.2631 -0.6016
19462TIP3   OH279800   1.592   3.065   2.699  0.1754  0.8545  0.1720
19462TIP3    H179801   1.527   3.120   2.656  0.4795  1.2558  0.2140
19462TIP3    H279802   1.549   2.980   2.711  0.0154  0.7997 -0.7339
19463TIP3   OH279803   4.625   2.920   1.244  1.1093 -0.5311 -0.3993
19463TIP3    H179804   4.622   2.967   1.161  5.1506  1.2661  0.2361
19463TIP3    H279805   4.571   2.972   1.303 -0.9013 -1.2196 -1.5440
19464TIP3   OH279806   1.602   3.631   0.411  0.6709 -0.0345 -0.1835
19464TIP3    H179807   1.625   3.653   0.321  1.4906  0.5363  0.1514
19464TIP3    H279808   1.569   3.712   0.449  3.0757  0.5712  0.8573
19465TIP3   OH279809   4.896   3.478  14.397  0.2807  0.1383 -0.5447
19465TIP3    H179810   4.881   3.487  14.303 -2.0481  0.7608 -0.1873
19465TIP3    H279811   4.899   3.384  14.412 -0.8690 -0.0039 -1.0816
19466TIP3   OH279812   6.373   0.179  17.205  0.2709 -0.0869 -0.2505
19466TIP3    H179813   6.382   0.191  17.110 -0.1809 -0.1384 -0.2982
19466TIP3    H279814   6.288   0.216  17.226 -0.9996 -2.7545 -0.3200
19467TIP3   OH279815   3.709   2.210  15.719  0.1889 -0.5774  0.5126
19467TIP3    H179816   3.790   2.161  15.735  1.1489  0.3204 -1.2868
19467TIP3    H279817   3.713   2.283  15.781 -0.7385 -2.0941  2.4730
19468TIP3   OH279818   1.877   1.425   6.606 -0.5225 -0.1675  0.4857
19468TIP3    H179819   1.798   1.479   6.603 -0.4639 -0.1252 -0.6803
19468TIP3    H279820   1.882   1.396   6.697 -0.2511  2.2139  1.2878
19469TIP3   OH279821   6.787   1.885  16.604  0.7414  0.7188  0.4366
19469TIP3    H179822   6.835   1.957  16.561  0.7857  0.8404  0.6890
19469TIP3    H279823   6.701   1.922  16.623  0.6609  0.6071  0.2910
19470TIP3   OH279824   2.762   4.177   2.220 -0.2553 -0.2899  0.1118
19470TIP3    H179825   2.831   4.244   2.219 -0.1768 -0.3672  0.3004
19470TIP3    H279826   2.699   4.209   2.284  0.1828 -0.7919  0.8148
19471TIP3   OH279827   6.038   2.197  13.145  0.0422  0.6338  0.3106
19471TIP3    H179828   6.087   2.237  13.216  0.7965  1.2087 -0.5211
19471TIP3    H279829   6.076   2.110  13.135  0.6366  0.9307 -0.0645
19472TIP3   OH279830   5.087   3.271  14.705  0.3648 -0.2346  0.4159
19472TIP3    H179831   5.154   3.256  14.772  0.8178 -1.1960 -0.2219
19472TIP3    H279832   5.130   3.247  14.623 -0.1464  1.0074 -0.2409
19473TIP3   OH279833   1.328   3.019   5.245  0.9648 -0.1483  0.1253
19473TIP3    H179834   1.382   3.095   5.222  1.4128 -0.5828 -0.2841
19473TIP3    H279835   1.243   3.056   5.265  0.9350  0.3917 -0.9124
19474TIP3   OH279836   0.677   1.287  15.264  0.0915  0.2667  0.2123
19474TIP3    H179837   0.582   1.283  15.259 -0.2289  2.1021  2.7883
19474TIP3    H279838   0.705   1.195  15.267 -1.5414 -0.3049 -0.6747
19475TIP3   OH279839   3.931   5.766   3.792  0.0966 -0.6273  0.0621
19475TIP3    H179840   4.003   5.827   3.809 -0.8925  0.3875  0.7291
19475TIP3    H279841   3.971   5.679   3.799  1.3580 -0.0775 -0.0861
19476TIP3   OH279842   4.679   6.146  14.770 -0.4236  1.0479 -0.0929
19476TIP3    H179843   4.751   6.190  14.725  0.6238 -0.3438  0.1722
19476TIP3    H279844   4.641   6.088  14.703  1.2267 -1.1338  0.7705
19477TIP3   OH279845   4.653   0.799   3.184 -0.0176 -0.4713 -0.3614
19477TIP3    H179846   4.716   0.757   3.242  0.2407  0.5212  0.0999
19477TIP3    H279847   4.567   0.776   3.220  0.1497  1.1792  1.2222
19478TIP3   OH279848   5.385   0.842  11.713 -0.7058  0.1971  0.5016
19478TIP3    H179849   5.385   0.894  11.793  1.0777 -0.7067  1.1328
19478TIP3    H279850   5.471   0.858  11.674 -1.4090  0.3376 -1.0596
19479TIP3   OH279851   0.416   5.350   0.802 -0.5295 -0.7298 -0.2875
19479TIP3    H179852   0.501   5.340   0.758 -0.5360 -0.8506 -0.2720
19479TIP3    H279853   0.373   5.421   0.754 -0.3693 -0.5818 -0.2159
19480TIP3   OH279854   2.536   3.421   0.364  0.0609  0.4327 -0.3619
19480TIP3    H179855   2.523   3.366   0.441  2.2009 -1.3689 -1.1706
19480TIP3    H279856   2.629   3.445   0.367 -0.2425  1.8932 -1.4043
19481TIP3   OH279857   6.672   1.240  16.721  0.0727 -0.1910  0.1853
19481TIP3    H179858   6.649   1.222  16.630  0.2755  0.1203  0.0738
19481TIP3    H279859   6.665   1.154  16.764  0.3336 -0.4094 -0.1983
19482TIP3   OH279860   5.812   2.084   4.365  0.3820  1.0461  0.5199
19482TIP3    H179861   5.730   2.105   4.321  0.1264  0.5657  0.7561
19482TIP3    H279862   5.870   2.158   4.346 -0.5066  1.9754  1.3857
19483TIP3   OH279863   5.775   6.506  15.893  0.3889  0.1108 -0.3598
19483TIP3    H179864   5.790   6.534  15.802 -1.2080  0.3688 -0.5888
19483TIP3    H279865   5.742   6.585  15.936 -1.1927 -0.5946 -0.2020
19484TIP3   OH279866   4.191   5.613  12.460  0.1776 -0.1462 -0.3715
19484TIP3    H179867   4.230   5.690  12.419 -0.4496  0.0419 -0.6276
19484TIP3    H279868   4.120   5.587  12.400  0.6012 -1.1333 -0.4657
19485TIP3   OH279869   6.187   5.165  15.429 -0.1961  0.4037  0.1202
19485TIP3    H179870   6.233   5.166  15.345  0.2164 -1.2348  0.2934
19485TIP3    H279871   6.252   5.198  15.492 -0.3108  1.0627 -0.0959
19486TIP3   OH279872   6.345   4.145  13.505  0.5690  0.3189 -0.4714
19486TIP3    H179873   6.421   4.164  13.560 -0.4357  1.4519  0.5752
19486TIP3    H279874   6.286   4.095  13.562 -0.5060  1.5482 -0.4588
19487TIP3   OH279875   1.496   1.135  13.462  0.2836 -0.1382 -0.2814
19487TIP3    H179876   1.581   1.173  13.481  0.5222  0.0867 -1.6819
19487TIP3    H279877   1.437   1.173  13.527  0.8841  1.1631 -0.4750
19488TIP3   OH279878   3.969   0.496   3.804  0.3021  0.5925  1.0194
19488TIP3    H179879   3.892   0.483   3.859  1.1671 -3.0459  1.6792
19488TIP3    H279880   4.029   0.548   3.858 -1.1698  2.4363  0.9557
19489TIP3   OH279881   5.142   6.314  12.141  0.0740  0.7079 -0.4631
19489TIP3    H179882   5.148   6.219  12.151 -0.1282  0.5716 -1.5089
19489TIP3    H279883   5.116   6.346  12.227  2.0750  0.0099  0.4706
19490TIP3   OH279884   0.828   4.778   3.158 -0.0166  0.3421 -0.1403
19490TIP3    H179885   0.797   4.849   3.101  1.9389  0.5859 -0.9736
19490TIP3    H279886   0.810   4.698   3.108  1.1668  0.5194 -0.8849
19491TIP3   OH279887   1.723   5.718   4.832 -0.1023 -0.0564 -0.0085
19491TIP3    H179888   1.738   5.812   4.844 -0.2079 -0.1125  0.6008
19491TIP3    H279889   1.681   5.690   4.913  2.1802 -1.1106  0.8811
19492TIP3   OH279890   0.093   2.495  14.945  0.1100  0.0967  0.7823
19492TIP3    H179891   0.049   2.437  14.882 -0.7973 -0.2092  1.6744
19492TIP3    H279892   0.055   2.472  15.030  0.7558  1.0363  1.3455
19493TIP3   OH279893   4.046   1.095   4.175 -0.3653  0.3210 -0.0363
19493TIP3    H179894   3.977   1.143   4.220 -0.9394  1.0799 -1.6306
19493TIP3    H279895   4.003   1.056   4.098  0.1746 -2.4639  0.9526
19494TIP3   OH279896   4.599   2.788   5.255  0.6104  0.2517  0.2513
19494TIP3    H179897   4.531   2.779   5.188  0.0993 -0.4717  0.8498
19494TIP3    H279898   4.673   2.738   5.221  0.3126 -0.2107  0.2788
19495TIP3   OH279899   0.116   5.418  14.968  0.2969 -0.5239  0.1132
19495TIP3    H179900   0.153   5.330  14.959  0.7239 -0.2280 -1.2601
19495TIP3    H279901   0.192   5.477  14.965  0.1875 -0.1537  2.7545
19496TIP3   OH279902   4.471   1.278   0.711  0.1375  0.2405 -0.2330
19496TIP3    H179903   4.522   1.321   0.779  2.4575 -2.7129  0.1094
19496TIP3    H279904   4.514   1.302   0.629  0.4118 -0.1425 -0.1995
19497TIP3   OH279905   4.286   1.371  11.729  0.5354  0.1787 -0.5207
19497TIP3    H179906   4.292   1.432  11.802 -0.8175  0.4455 -0.6068
19497TIP3    H279907   4.308   1.286  11.767  1.4570  0.5569 -0.1818
19498TIP3   OH279908   1.583   3.174   3.229  0.1762 -0.2147  0.0913
19498TIP3    H179909   1.539   3.175   3.313 -0.0862 -0.4466 -0.0433
19498TIP3    H279910   1.672   3.204   3.248  0.3304 -0.9458  0.5639
19499TIP3   OH279911   3.709   5.158   1.958 -0.5564  0.0600 -0.0908
19499TIP3    H179912   3.678   5.243   1.926  1.8065  0.6457 -1.0785
19499TIP3    H279913   3.742   5.176   2.046 -1.0280 -0.0598  0.1076
19500TIP3   OH279914   3.147   6.359   5.725  0.2960 -0.2809  0.5150
19500TIP3    H179915   3.067   6.321   5.762  0.2271  0.3270  1.0008
19500TIP3    H279916   3.117   6.407   5.647  0.1281  0.2351  0.8896
19501TIP3   OH279917   1.080   3.727   3.802  0.1169 -0.0112 -0.0021
19501TIP3    H179918   1.164   3.770   3.815 -0.2514  1.0415 -0.9868
19501TIP3    H279919   1.074   3.664   3.874  1.3436  0.5180  0.5867
19502TIP3   OH279920   5.127   2.861   3.517 -0.6933 -0.6752  0.5529
19502TIP3    H179921   5.181   2.908   3.580 -1.6624 -0.8503  1.5384
19502TIP3    H279922   5.179   2.785   3.492 -0.7197 -1.1916  1.9797
19503TIP3   OH279923   5.834   4.193  16.311 -0.2958  1.0402 -0.1962
19503TIP3    H179924   5.899   4.150  16.366 -0.9799  0.3001  0.0515
19503TIP3    H279925   5.750   4.162  16.344 -0.7209  0.3670 -1.8188
19504TIP3   OH279926   5.487   1.460   2.177  0.2425  0.4928 -0.1815
19504TIP3    H179927   5.447   1.471   2.091 -0.6892 -0.6349  0.0901
19504TIP3    H279928   5.416   1.476   2.239  0.6113  0.1133  0.3543
19505TIP3   OH279929   5.281   2.772   0.039 -0.5451 -0.1887  0.3186
19505TIP3    H179930   5.220   2.775   0.113  0.8943  0.1876  1.5314
19505TIP3    H279931   5.229   2.737  -0.034 -1.8556 -1.0982  1.6442
19506TIP3   OH279932   0.109   2.365  14.153  0.4090  0.7775 -0.0020
19506TIP3    H179933   0.094   2.441  14.209 -0.1073  1.0140 -0.4537
19506TIP3    H279934   0.143   2.401  14.071  2.6006  0.3240  0.6452
19507TIP3   OH279935   1.776   4.427  12.540  0.0760  0.2445  0.7458
19507TIP3    H179936   1.790   4.518  12.512  2.5733 -0.5426 -0.8911
19507TIP3    H279937   1.729   4.387  12.467  3.0054 -0.8105 -0.7054
19508TIP3   OH279938   4.435   5.466   2.801 -0.6599 -0.3857 -0.0969
19508TIP3    H179939   4.420   5.389   2.746  0.5792 -1.9502  1.6382
19508TIP3    H279940   4.385   5.449   2.880  2.3223 -1.1721  1.7644
19509TIP3   OH279941   5.236   5.230  11.370  0.1310  0.1982  1.1303
19509TIP3    H179942   5.327   5.251  11.386  0.5113 -0.0004 -0.5431
19509TIP3    H279943   5.229   5.136  11.389  0.2781  0.2097  1.2422
19510TIP3   OH279944   0.397   1.988  15.809 -0.0313 -0.2914 -0.0973
19510TIP3    H179945   0.461   1.972  15.740  0.8657  0.0990  0.6133
19510TIP3    H279946   0.435   2.059  15.860 -1.9323  1.3213 -0.7680
19511TIP3   OH279947   1.295   5.243   4.977 -0.0857  0.2763 -0.0670
19511TIP3    H179948   1.242   5.170   5.007  1.4151 -1.3080 -1.0604
19511TIP3    H279949   1.362   5.254   5.044  0.3987 -0.0826 -0.4780
19512TIP3   OH279950   6.587   0.627  11.378 -0.0264  0.5526  0.5066
19512TIP3    H179951   6.542   0.624  11.294 -1.2023  0.0552  1.1293
19512TIP3    H279952   6.546   0.700  11.425 -1.4788 -0.9679  1.7451
19513TIP3   OH279953   4.569   1.621  12.967 -0.4747  0.1306 -0.2319
19513TIP3    H179954   4.520   1.550  13.007 -1.0918  0.6197 -0.1021
19513TIP3    H279955   4.509   1.696  12.968  0.8167  1.2162  1.4357
19514TIP3   OH279956   2.836   3.782   5.568 -0.1525 -0.4934 -0.2098
19514TIP3    H179957   2.765   3.717   5.575  0.0870 -0.7734 -0.3700
19514TIP3    H279958   2.910   3.742   5.614 -0.9686  1.0659  2.6738
19515TIP3   OH279959   0.083   3.271   5.129  0.2982 -0.8468 -0.6034
19515TIP3    H179960   0.020   3.276   5.058  0.4060  1.5671 -0.6031
19515TIP3    H279961   0.144   3.343   5.113  0.9841 -0.9317  1.3056
19516TIP3   OH279962   1.721   5.379  14.461 -0.0070  0.3359  0.2214
19516TIP3    H179963   1.667   5.448  14.422 -0.1445 -1.2098 -2.5886
19516TIP3    H279964   1.728   5.403  14.553 -1.2829  3.2652 -0.3410
19517TIP3   OH279965   6.583   3.845   5.693  0.3051 -0.4446 -0.0696
19517TIP3    H179966   6.651   3.813   5.753 -0.8469 -2.1819  0.3974
19517TIP3    H279967   6.606   3.807   5.608 -0.4032 -1.5958  0.2298
19518TIP3   OH279968   2.697   5.280  15.145  0.0212  0.1300 -0.4464
19518TIP3    H179969   2.674   5.191  15.121 -1.4361 -0.0878  1.5210
19518TIP3    H279970   2.626   5.334  15.109 -0.7752  0.0926  0.9865
19519TIP3   OH279971   4.060   2.447   3.617 -0.4933  0.0669 -0.2714
19519TIP3    H179972   4.124   2.515   3.636 -0.5954 -0.4010  1.9644
19519TIP3    H279973   4.086   2.372   3.670 -2.0617 -0.6335 -0.4077
19520TIP3   OH279974   4.305   2.026   6.162  0.6024  0.7711 -0.0185
19520TIP3    H179975   4.298   2.015   6.067 -0.8482  2.5699 -0.1860
19520TIP3    H279976   4.399   2.034   6.178  0.8469  0.9762 -1.4021
19521TIP3   OH279977   5.572   5.185   4.635  0.1933 -0.2050 -0.1022
19521TIP3    H179978   5.528   5.183   4.550 -0.9801  1.3393  0.4005
19521TIP3    H279979   5.579   5.094   4.661  1.4622 -0.7966 -2.2558
19522TIP3   OH279980   4.431   2.967   3.326 -0.7711 -0.0132 -0.4040
19522TIP3    H179981   4.490   2.965   3.251  0.1316  1.0943  0.2488
19522TIP3    H279982   4.482   2.932   3.398 -1.1981  0.1706 -0.0065
19523TIP3   OH279983   1.503   1.944  13.215 -0.1330  0.1007  0.0910
19523TIP3    H179984   1.492   2.038  13.200 -2.0507  0.0592  0.9357
19523TIP3    H279985   1.429   1.903  13.169 -0.8322 -0.7482  1.8648
19524TIP3   OH279986   3.420   2.579  15.290  0.3133 -0.5308 -0.1908
19524TIP3    H179987   3.370   2.499  15.273  0.3903 -0.7830  0.7210
19524TIP3    H279988   3.498   2.570  15.236 -0.4580 -0.2813 -1.3852
19525TIP3   OH279989   3.442   3.082  14.496 -0.1117 -0.1873 -0.0536
19525TIP3    H179990   3.433   3.120  14.584 -0.6032  0.2782 -0.3006
19525TIP3    H279991   3.405   2.994  14.504 -1.5203  0.3697 -0.1377
19526TIP3   OH279992   2.378   5.036  11.965  0.3004 -0.3748  0.2097
19526TIP3    H179993   2.316   5.098  11.927  0.2186  0.1444  1.1559
19526TIP3    H279994   2.464   5.067  11.936  0.1188 -1.4281 -1.5811
19527TIP3   OH279995   3.385   5.352  13.636 -0.1211  0.3552  0.2157
19527TIP3    H179996   3.379   5.349  13.732 -1.2728  2.6844  0.2822
19527TIP3    H279997   3.466   5.401  13.619  1.2866 -1.9270 -0.1219
19528TIP3   OH279998   1.493   3.897  14.453 -0.1031  0.2484  0.1822
19528TIP3    H179999   1.446   3.895  14.370  1.5642  0.6174 -0.7975
19528TIP3    H280000   1.508   3.805  14.474 -0.2683  0.1672 -0.0522
19529TIP3   OH280001   1.559   1.118   4.089  0.4983 -0.2207 -0.1442
19529TIP3    H180002   1.642   1.164   4.100  0.4136  0.2337 -1.3344
19529TIP3    H280003   1.581   1.038   4.042  0.2283  0.0119 -0.6691
19530TIP3   OH280004   4.181   0.994  11.628 -0.3576  0.0654 -0.6771
19530TIP3    H180005   4.201   0.950  11.545  0.5474  0.3726 -0.6319
19530TIP3    H280006   4.086   0.990  11.635 -0.5720  1.1797 -2.3747
19531TIP3   OH280007   1.133   2.444  13.692  0.5020 -0.2166  0.3483
19531TIP3    H180008   1.050   2.445  13.644  0.3109 -0.3961  0.6695
19531TIP3    H280009   1.196   2.485  13.633  0.4012 -0.9885 -0.3026
19532TIP3   OH280010   5.977   4.746   5.114 -0.5427 -0.2957  0.0396
19532TIP3    H180011   6.013   4.767   5.200  1.4781 -0.8399 -0.6022
19532TIP3    H280012   5.884   4.764   5.121 -0.0301  2.1683  1.5500
19533TIP3   OH280013   1.643   4.733   3.157  0.3995  0.3739  0.2830
19533TIP3    H180014   1.695   4.684   3.221  1.9711  1.1732 -0.2961
19533TIP3    H280015   1.661   4.690   3.073 -1.4612 -0.5247  0.3067
19534TIP3   OH280016   1.908   5.120   0.440 -0.2748  0.3469 -0.8408
19534TIP3    H180017   1.842   5.070   0.489 -1.3378  1.2771 -1.2758
19534TIP3    H280018   1.991   5.082   0.467 -0.8694  0.2394  1.0178
19535TIP3   OH280019   6.779   2.303   5.789 -0.1160  0.3648 -0.1464
19535TIP3    H180020   6.846   2.273   5.728  1.8707  1.4633  1.4009
19535TIP3    H280021   6.702   2.320   5.734  0.8081 -1.0082 -1.9556
19536TIP3   OH280022   4.805   3.268  13.481 -0.3514  0.1093 -0.3563
19536TIP3    H180023   4.765   3.309  13.404 -0.3995 -0.4688 -0.6407
19536TIP3    H280024   4.857   3.196  13.447 -1.0711 -0.7006  0.2150
19537TIP3   OH280025   0.855   4.259  17.060 -0.4548 -0.1456  0.3147
19537TIP3    H180026   0.892   4.174  17.084 -0.2661 -0.4767 -1.0854
19537TIP3    H280027   0.909   4.322  17.107 -0.6494 -0.7722  1.4415
19538TIP3   OH280028   4.623   5.697  11.708 -0.3278 -0.4847 -0.0446
19538TIP3    H180029   4.615   5.686  11.803 -0.7966  0.8934  0.1071
19538TIP3    H280030   4.536   5.726  11.681 -0.3128 -1.2743 -0.9762
19539TIP3   OH280031   3.315   2.773  15.888 -0.1985 -0.5174  0.4503
19539TIP3    H180032   3.239   2.809  15.844 -0.5778 -0.9267  0.7554
19539TIP3    H280033   3.315   2.680  15.863  0.7120 -0.3365 -0.2594
19540TIP3   OH280034   5.120   5.817   3.017  0.2636 -0.2628  0.1140
19540TIP3    H180035   5.197   5.868   3.044  1.0197 -1.5590  0.4973
19540TIP3    H280036   5.062   5.818   3.093 -1.2643  2.6854 -0.9163
19541TIP3   OH280037   4.364   2.321   3.242  0.3016 -0.0441  0.3224
19541TIP3    H180038   4.366   2.416   3.256 -0.3816  0.6307 -3.1710
19541TIP3    H280039   4.449   2.301   3.202 -0.1816 -0.5486 -0.4973
19542TIP3   OH280040   2.855   2.072  17.040  0.9733 -0.0296 -0.0326
19542TIP3    H180041   2.930   2.127  17.021  2.4827 -1.8427  0.4310
19542TIP3    H280042   2.782   2.134  17.053  1.8205  1.6709 -2.7040
19543TIP3   OH280043   0.013   1.540  17.176 -0.5049 -0.4752 -0.5689
19543TIP3    H180044   0.004   1.527  17.271 -2.6182  0.4783 -0.5887
19543TIP3    H280045   0.104   1.515  17.157  0.8413  1.8399  2.1127
19544TIP3   OH280046   2.270   5.467   4.654  0.3935  0.3036 -0.3459
19544TIP3    H180047   2.225   5.393   4.693 -0.0557  0.3356 -0.7907
19544TIP3    H280048   2.362   5.440   4.650 -0.0901 -1.3689 -2.9485
19545TIP3   OH280049   4.636   5.519   1.562  0.4680  0.5530 -0.0183
19545TIP3    H180050   4.558   5.481   1.603  1.8837 -2.7677 -0.0955
19545TIP3    H280051   4.616   5.518   1.468  0.5221 -0.2176 -0.0331
19546TIP3   OH280052   3.087   2.812   0.000 -0.0530 -0.0539 -0.3810
19546TIP3    H180053   3.093   2.745  -0.067 -2.3318 -1.1259  0.3971
19546TIP3    H280054   2.998   2.845  -0.006 -0.1572  0.2064  1.7174
19547TIP3   OH280055   3.815   1.686   4.143 -0.6926  0.1280  0.3610
19547TIP3    H180056   3.853   1.751   4.084  0.0543  0.0481  0.7539
19547TIP3    H280057   3.722   1.709   4.146 -1.0596 -0.7479 -1.9931
19548TIP3   OH280058   4.662   6.552  11.729 -0.5778  0.1347  0.2909
19548TIP3    H180059   4.574   6.516  11.721  0.0659 -2.0104  1.9320
19548TIP3    H280060   4.688   6.532  11.819  1.9729 -0.3142 -0.4636
19549TIP3   OH280061   3.969   5.421   1.577  0.0191 -0.7360  0.7489
19549TIP3    H180062   3.923   5.384   1.501 -0.9784  0.2766  0.8300
19549TIP3    H280063   4.044   5.363   1.590  1.0943 -0.0906 -1.9517
19550TIP3   OH280064   2.766   2.910  16.274  0.4130  0.0750  0.0906
19550TIP3    H180065   2.811   2.873  16.350  1.4089 -0.9065 -0.9448
19550TIP3    H280066   2.823   2.981  16.245  0.3482  0.0466 -0.1062
19551TIP3   OH280067   2.776   2.884  14.977  0.0089  0.2622 -0.2247
19551TIP3    H180068   2.828   2.920  15.050  0.2521 -2.1923  0.9232
19551TIP3    H280069   2.840   2.839  14.922 -0.4230  0.4558 -0.8934
19552TIP3   OH280070   3.194   4.898  13.519  0.5528 -0.1125  0.2023
19552TIP3    H180071   3.254   4.973  13.511 -2.3683  2.4713  0.7136
19552TIP3    H280072   3.111   4.930  13.485 -1.8370 -1.8471  3.7690
19553TIP3   OH280073   2.376   0.981  11.768  0.2173 -0.6182 -0.3188
19553TIP3    H180074   2.391   1.065  11.724  0.0337 -0.1727  0.4507
19553TIP3    H280075   2.359   1.004  11.859  1.3447 -1.5704  0.1646
19554TIP3   OH280076   6.528   3.853   6.113 -0.2806  0.3372  0.4828
19554TIP3    H180077   6.580   3.914   6.164  0.3381  0.9486 -0.8576
19554TIP3    H280078   6.560   3.767   6.138  0.4265  0.6571  0.6828
19555TIP3   OH280079   3.524   0.279  15.745  0.2525  0.2248  0.4685
19555TIP3    H180080   3.476   0.293  15.663  0.2812  2.0644  0.7267
19555TIP3    H280081   3.587   0.351  15.749  0.8853 -0.3554  1.6783
19556TIP3   OH280082   2.576   0.682  14.423  0.3743 -0.1814  0.1612
19556TIP3    H180083   2.540   0.620  14.487  2.0272  0.4613  1.8184
19556TIP3    H280084   2.554   0.768  14.457  3.6843  0.2627  1.5343
19557TIP3   OH280085   5.666   3.898  12.205 -0.2232  0.3267  0.2202
19557TIP3    H180086   5.671   3.990  12.228  0.1262  0.3888 -0.0813
19557TIP3    H280087   5.611   3.896  12.126  0.0604  0.3209  0.0201
19558TIP3   OH280088   1.385   3.881   4.443  0.5966  0.4734 -0.4715
19558TIP3    H180089   1.461   3.823   4.443  0.0840 -0.2160 -0.0919
19558TIP3    H280090   1.387   3.923   4.357  1.1694  0.1605 -0.6192
19559TIP3   OH280091   5.718   2.445   5.585  0.1733  0.4307 -0.1025
19559TIP3    H180092   5.650   2.445   5.518  1.2022 -0.3148 -1.1841
19559TIP3    H280093   5.679   2.400   5.659 -0.4290 -0.2049 -0.7926
19560TIP3   OH280094   4.932   1.401  16.754  0.1621 -0.1803 -0.8194
19560TIP3    H180095   5.003   1.452  16.793  1.4580 -1.5257 -1.3301
19560TIP3    H280096   4.854   1.456  16.766  0.9740  0.6430  1.2032
19561TIP3   OH280097   5.641   6.412  14.824 -0.3796  0.0013  0.5163
19561TIP3    H180098   5.730   6.377  14.825 -0.1261  0.6222  1.6199
19561TIP3    H280099   5.588   6.341  14.862 -0.4934 -0.6428 -0.7851
19562TIP3   OH280100   4.807   4.895  16.043 -0.2798 -0.0618  0.0269
19562TIP3    H180101   4.808   4.954  16.118  0.4915  0.5671 -0.4637
19562TIP3    H280102   4.774   4.812  16.078  0.7609 -0.0028  1.2283
19563TIP3   OH280103   0.829   0.640  11.758 -0.3237 -0.3312  0.0292
19563TIP3    H180104   0.860   0.686  11.836 -1.5783  1.7628 -0.6194
19563TIP3    H280105   0.778   0.567  11.792 -0.4158  0.2441  1.1721
19564TIP3   OH280106   2.676   3.739   3.834  0.3795  0.1710  0.1827
19564TIP3    H180107   2.671   3.653   3.877 -0.2271 -0.3617 -0.9077
19564TIP3    H280108   2.584   3.765   3.823  0.5333  1.8563  2.1623
19565TIP3   OH280109   5.619   6.046  13.091 -0.1814 -0.5785 -0.0651
19565TIP3    H180110   5.673   5.975  13.054  1.2407  0.7773 -0.7212
19565TIP3    H280111   5.594   6.098  13.015 -2.6550 -1.2621  0.2069
19566TIP3   OH280112   1.183   5.352   3.065 -0.4863 -0.1919  0.4863
19566TIP3    H180113   1.219   5.264   3.053 -0.3695 -0.2893  1.4687
19566TIP3    H280114   1.095   5.337   3.099 -0.6767  0.0712  0.1125
19567TIP3   OH280115   5.484   3.108  15.711  0.2064  0.1463 -0.0677
19567TIP3    H180116   5.469   3.167  15.785  0.5010  1.4750 -1.0224
19567TIP3    H280117   5.566   3.064  15.730 -0.3613 -0.4849  0.9840
19568TIP3   OH280118   4.672   2.938  14.321  0.3403  0.2741  0.3299
19568TIP3    H180119   4.592   2.889  14.303  0.6441  0.0947 -0.5783
19568TIP3    H280120   4.689   2.923  14.414 -0.7729  0.4622  0.5726
19569TIP3   OH280121   3.840   3.052  13.958 -0.1641 -0.4676  0.2617
19569TIP3    H180122   3.836   2.958  13.943 -0.2279 -0.5731  0.9289
19569TIP3    H280123   3.860   3.061  14.051  0.1742  0.1749  0.1366
19570TIP3   OH280124   0.825   3.707  16.714 -0.6122  0.2915 -0.0921
19570TIP3    H180125   0.860   3.626  16.752 -1.6956  0.4735  1.3400
19570TIP3    H280126   0.889   3.774  16.736 -0.0597 -0.0225 -0.6838
19571TIP3   OH280127   6.512   4.599   3.341 -0.0654 -0.5396 -0.2853
19571TIP3    H180128   6.518   4.518   3.290 -0.5138 -1.4700  1.0638
19571TIP3    H280129   6.422   4.629   3.328 -0.2341 -0.8743  0.0754
19572TIP3   OH280130   1.235   1.012   2.480 -0.0240 -0.2428 -0.0187
19572TIP3    H180131   1.305   1.071   2.453 -0.3390 -0.2340 -0.8504
19572TIP3    H280132   1.156   1.067   2.482 -0.3786 -0.6765 -1.1106
19573TIP3   OH280133   2.592   0.823  11.864 -0.0258  0.6962 -0.5793
19573TIP3    H180134   2.511   0.869  11.844  0.3454  1.4030 -0.4963
19573TIP3    H280135   2.630   0.804  11.778 -0.0229  0.8362 -0.6093
19574TIP3   OH280136   5.352   5.926   0.499 -0.1743  0.3639 -0.2277
19574TIP3    H180137   5.394   5.935   0.585  0.8001 -0.1056 -0.6412
19574TIP3    H280138   5.400   5.986   0.443 -0.3738  0.1854 -0.5884
19575TIP3   OH280139   4.724   1.985  16.177 -0.0919 -0.1412 -0.0517
19575TIP3    H180140   4.734   1.973  16.083  1.0450 -0.1778  0.0536
19575TIP3    H280141   4.814   2.000  16.209 -0.5121  0.3612  0.9518
19576TIP3   OH280142   1.585   5.794  12.724  0.4203  0.9011  0.8213
19576TIP3    H180143   1.540   5.873  12.696 -0.6526 -0.0267 -0.1914
19576TIP3    H280144   1.520   5.747  12.777 -0.3849 -1.0478 -1.6637
19577TIP3   OH280145   3.203   4.294   4.388 -0.1771 -0.0091 -0.2478
19577TIP3    H180146   3.251   4.370   4.356  0.1575  0.0881  0.4747
19577TIP3    H280147   3.265   4.248   4.445 -0.4983 -0.6177 -0.3799
19578TIP3   OH280148   2.140   5.979  13.375  0.5216 -0.2465 -0.3324
19578TIP3    H180149   2.136   6.075  13.375 -0.9646 -0.2856 -0.3734
19578TIP3    H280150   2.103   5.954  13.460  0.5296 -0.8028 -0.4904
19579TIP3   OH280151   0.966   0.537   3.794 -0.0210  0.3392  0.0866
19579TIP3    H180152   0.925   0.540   3.881 -1.4987 -1.0107 -0.5268
19579TIP3    H280153   0.950   0.624   3.757  2.3072  1.6348  1.8355
19580TIP3   OH280154   6.255   0.774  12.578  0.6474  0.0171 -0.1908
19580TIP3    H180155   6.221   0.702  12.631  1.4212  0.0129  0.3077
19580TIP3    H280156   6.333   0.739  12.536 -0.0376 -0.0252 -1.4781
19581TIP3   OH280157   1.791   3.885  15.252  0.4214 -0.4818 -0.7017
19581TIP3    H180158   1.885   3.885  15.233  0.4956 -0.8519 -0.3428
19581TIP3    H280159   1.761   3.972  15.224  0.9582 -0.1813 -0.3574
19582TIP3   OH280160   5.100   1.782   1.434  0.4779  0.8304 -0.4080
19582TIP3    H180161   5.055   1.803   1.516 -0.7112 -0.0510 -0.8048
19582TIP3    H280162   5.117   1.688   1.439  0.3946  0.7637 -1.1617
19583TIP3   OH280163   0.584   4.994   4.521 -0.2992 -0.0024  0.5117
19583TIP3    H180164   0.552   4.948   4.443 -1.2122 -0.0298  0.8868
19583TIP3    H280165   0.672   5.024   4.497 -1.0458  1.1235 -1.0003
19584TIP3   OH280166   0.015   6.541  15.575 -0.0722  0.4841  0.2971
19584TIP3    H180167   0.090   6.539  15.516 -0.5389  0.9852 -0.3231
19584TIP3    H280168   0.007   6.633  15.600 -0.9046  0.5619 -0.2064
19585TIP3   OH280169   6.187   2.657  13.813 -0.3609  0.0958  0.0274
19585TIP3    H180170   6.094   2.667  13.791  0.2112  3.3625 -1.6002
19585TIP3    H280171   6.214   2.745  13.841  2.0460 -1.0039  1.4723
19586TIP3   OH280172   5.443   1.492  14.974 -0.5727 -0.3413  0.1709
19586TIP3    H180173   5.371   1.515  14.914 -3.0444 -0.1644  2.9750
19586TIP3    H280174   5.452   1.397  14.964 -0.6777 -0.2705 -0.7361
19587TIP3   OH280175   2.643   2.717   4.120 -0.0587 -0.3783  0.2392
19587TIP3    H180176   2.570   2.686   4.174  0.7547  2.1605  3.0912
19587TIP3    H280177   2.602   2.773   4.054 -0.8736 -1.3447 -0.1031
19588TIP3   OH280178   1.435   1.077   2.937 -0.8913 -0.2879 -0.0443
19588TIP3    H180179   1.488   1.114   3.007 -2.8821 -0.5983  1.7449
19588TIP3    H280180   1.489   1.007   2.901  0.2696 -0.0203  1.0865
19589TIP3   OH280181   5.107   4.089  16.723 -0.2197 -0.1595  0.5937
19589TIP3    H180182   5.143   4.000  16.718 -0.5086 -0.3064  1.0651
19589TIP3    H280183   5.179   4.141  16.759 -0.0954 -0.2260  0.4456
19590TIP3   OH280184   4.724   4.292  10.934  0.1244  0.3963  0.3798
19590TIP3    H180185   4.767   4.213  10.899 -0.7708 -0.1044  0.3719
19590TIP3    H280186   4.759   4.301  11.023  0.8056  0.4310  0.1103
19591TIP3   OH280187   6.137   1.697  13.943  0.1963  0.6059 -0.1241
19591TIP3    H180188   6.123   1.602  13.939 -0.6929  0.7637 -1.6669
19591TIP3    H280189   6.052   1.733  13.970  0.1056  1.0308 -0.9373
19592TIP3   OH280190   5.550   3.626   6.655  0.0241  0.3873 -0.4536
19592TIP3    H180191   5.557   3.666   6.568  1.8605  1.1012 -0.0325
19592TIP3    H280192   5.599   3.686   6.712 -2.3757  0.7557  1.3988
19593TIP3   OH280193   4.553   5.569   1.023  0.2299  0.3893 -0.5554
19593TIP3    H180194   4.533   5.662   1.035 -1.3560  0.0429 -0.2935
19593TIP3    H280195   4.545   5.532   1.111  0.5269 -0.0539 -0.7149
19594TIP3   OH280196   5.102   6.012   4.417  0.0921  0.1896  0.2649
19594TIP3    H180197   5.028   5.966   4.458  0.9848 -1.5137  0.0691
19594TIP3    H280198   5.179   5.963   4.445  0.7536 -1.6387 -3.8742
19595TIP3   OH280199   4.656   5.811  11.404  0.2226  1.0429 -0.2665
19595TIP3    H180200   4.587   5.850  11.456 -0.3348  1.9534 -1.6416
19595TIP3    H280201   4.669   5.871  11.331  0.8114 -0.2940 -1.3163
19596TIP3   OH280202   4.812   5.323  15.178 -0.2526  0.2549  0.0915
19596TIP3    H180203   4.821   5.292  15.088  0.8367 -0.9296  0.5766
19596TIP3    H280204   4.757   5.258  15.220  0.1156  0.2326  0.5426
19597TIP3   OH280205   3.852   4.076   5.086  0.1769 -0.6028 -0.7723
19597TIP3    H180206   3.852   4.165   5.123 -2.3471 -0.3188 -1.2517
19597TIP3    H280207   3.859   4.089   4.992  0.5657 -0.9620 -0.7945
19598TIP3   OH280208   6.200   5.791   1.767  0.1034  0.4578 -0.5675
19598TIP3    H180209   6.118   5.788   1.816  0.5447  1.1890  0.2455
19598TIP3    H280210   6.207   5.882   1.738  1.4566  0.8323  0.8413
19599TIP3   OH280211   0.329   2.132   3.146 -0.0461  0.3256 -0.1406
19599TIP3    H180212   0.332   2.226   3.132 -2.9199  0.5020 -0.0823
19599TIP3    H280213   0.236   2.110   3.143  0.4165 -2.2716  1.4746
19600TIP3   OH280214   2.563   3.136   4.473  0.1488 -0.3778 -0.2622
19600TIP3    H180215   2.559   3.043   4.451  1.2986 -0.5141  0.0168
19600TIP3    H280216   2.651   3.163   4.445 -1.0930  1.3307 -2.9440
19601TIP3   OH280217   4.740   4.330  10.638 -0.1927  0.2997  0.8262
19601TIP3    H180218   4.644   4.329  10.642 -0.2506  0.6305 -0.1653
19601TIP3    H280219   4.764   4.245  10.600 -0.2122  0.8960 -0.5937
19602TIP3   OH280220   1.285   5.589   4.892  0.2403 -0.1171  0.2338
19602TIP3    H180221   1.204   5.546   4.863  0.1006  0.6944 -0.6325
19602TIP3    H280222   1.271   5.606   4.985 -0.7630  0.3526  0.0192
19603TIP3   OH280223   2.261   5.463  16.952 -0.1300 -0.5785 -0.1794
19603TIP3    H180224   2.280   5.383  16.904  0.8844  0.6500 -1.9594
19603TIP3    H280225   2.332   5.471  17.016  0.9447 -0.1218 -1.3755
19604TIP3   OH280226   3.964   4.624  14.058 -0.0762  0.2367 -0.1842
19604TIP3    H180227   3.875   4.589  14.064  0.3640 -1.2810 -1.6424
19604TIP3    H280228   4.019   4.546  14.048  1.3535  1.1946 -0.0217
19605TIP3   OH280229   3.886   5.891   0.662  0.1858 -0.2093 -0.6288
19605TIP3    H180230   3.948   5.830   0.621  0.9737  0.4374 -0.4108
19605TIP3    H280231   3.899   5.879   0.756  1.6991  1.6200 -0.5670
19606TIP3   OH280232   2.145   1.341   0.162 -0.0995  0.4106  0.0337
19606TIP3    H180233   2.176   1.255   0.187  0.5902  1.1376  1.8380
19606TIP3    H280234   2.123   1.384   0.244 -1.7065  1.4990 -0.9128
19607TIP3   OH280235   2.987   4.701  17.060  0.1541  0.2251  0.2684
19607TIP3    H180236   2.930   4.763  17.014 -1.1889 -0.2160  1.2860
19607TIP3    H280237   2.981   4.621  17.008  0.6687  0.4595 -0.1764
19608TIP3   OH280238   1.244   5.608   5.161  0.4390 -0.3638 -0.1025
19608TIP3    H180239   1.319   5.648   5.204  0.5084 -0.6943  0.0815
19608TIP3    H280240   1.238   5.520   5.197 -0.3297 -0.1846  0.2394
19609TIP3   OH280241   1.396   2.289  12.039  0.3095  0.3822 -0.0008
19609TIP3    H180242   1.390   2.323  11.949 -2.8578  2.1371  0.6848
19609TIP3    H280243   1.315   2.319  12.081  1.1411 -1.3063  3.1638
19610TIP3   OH280244   6.453   1.539   2.326  0.4654 -0.1965  0.0312
19610TIP3    H180245   6.529   1.594   2.346 -1.1407  2.3438 -0.4468
19610TIP3    H280246   6.381   1.600   2.316 -1.4258 -2.4163 -0.8019
19611TIP3   OH280247   6.782   2.524   5.066 -0.2868  0.3832  0.8611
19611TIP3    H180248   6.751   2.521   5.156  1.0693 -2.4834  1.3287
19611TIP3    H280249   6.795   2.433   5.042  0.4198  1.1157 -1.9069
19612TIP3   OH280250   6.123   6.026  14.251  0.2736  0.0131  0.1074
19612TIP3    H180251   6.058   5.957  14.239  1.7832 -1.2416 -1.3603
19612TIP3    H280252   6.110   6.056  14.341 -0.7431 -1.8548  0.6299
19613TIP3   OH280253   3.237   4.290   2.247  0.0399  0.3896  0.2023
19613TIP3    H180254   3.172   4.273   2.179  1.5997 -2.1614 -0.7783
19613TIP3    H280255   3.273   4.376   2.225 -0.9544  0.5508 -0.9208
19614TIP3   OH280256   5.293   3.218   2.288  0.1259 -0.1796  0.5409
19614TIP3    H180257   5.270   3.268   2.366  1.1584 -1.3055  1.5965
19614TIP3    H280258   5.388   3.216   2.287  0.1230 -0.7363 -0.3986
19615TIP3   OH280259   2.426   0.695   5.007  0.1901  0.1308  0.2813
19615TIP3    H180260   2.509   0.668   4.967  1.0151 -1.1901  2.6740
19615TIP3    H280261   2.441   0.786   5.035 -0.7113  1.4104 -2.9745
19616TIP3   OH280262   2.434   3.007   1.156 -0.4851  0.1447  0.5993
19616TIP3    H180263   2.497   2.987   1.226  0.6413  0.2533 -0.3501
19616TIP3    H280264   2.452   3.098   1.133 -0.6273  0.0130 -0.0463
19617TIP3   OH280265   0.263   2.818   2.505  0.1201 -0.0287 -0.5312
19617TIP3    H180266   0.233   2.828   2.595  0.6379  0.4136 -0.4049
19617TIP3    H280267   0.339   2.875   2.498 -0.2822  0.4240 -1.4232
19618TIP3   OH280268   2.040   1.467   4.453  0.3272 -0.2597  0.2353
19618TIP3    H180269   1.950   1.497   4.441  0.3201 -0.4092 -0.1172
19618TIP3    H280270   2.064   1.494   4.541  0.8060  2.0198 -0.5401
19619TIP3   OH280271   4.422   6.184   6.477 -0.0232 -0.3826  0.5565
19619TIP3    H180272   4.346   6.237   6.452  0.0759 -1.2097 -1.6717
19619TIP3    H280273   4.396   6.146   6.561 -1.0866  1.2089  1.0127
19620TIP3   OH280274   3.945   2.313  17.131  0.5179 -0.5468  0.1325
19620TIP3    H180275   3.911   2.247  17.071  1.2253 -1.2057  0.4327
19620TIP3    H280276   3.907   2.290  17.216  2.4516 -1.9660  0.7147
19621TIP3   OH280277   3.403   5.844   1.805 -0.1328 -0.4289 -0.2215
19621TIP3    H180278   3.310   5.865   1.817  0.0704  0.8620 -0.7802
19621TIP3    H280279   3.405   5.789   1.727 -0.2093  1.7486 -1.8587
19622TIP3   OH280280   4.103   0.865   5.301  0.0809  0.4068 -0.0773
19622TIP3    H180281   4.163   0.804   5.259 -2.1509 -1.0244 -1.4154
19622TIP3    H280282   4.118   0.853   5.394  0.6728 -1.1934 -0.3380
19623TIP3   OH280283   0.469   3.022   2.485  0.7628 -0.1004 -0.4136
19623TIP3    H180284   0.557   3.050   2.459  0.6794  0.7915  0.2145
19623TIP3    H280285   0.460   3.053   2.575  0.4018 -1.6161  0.1026
19624TIP3   OH280286   1.747   5.612   3.250  0.0431 -0.6418  0.8139
19624TIP3    H180287   1.819   5.584   3.306 -0.1819 -0.1921  1.3377
19624TIP3    H280288   1.669   5.602   3.304 -0.3769 -1.7246  0.0415
19625TIP3   OH280289   3.087   6.592   0.306  0.0331 -0.5830 -0.1589
19625TIP3    H180290   3.058   6.531   0.238 -0.2328  0.3537 -0.9067
19625TIP3    H280291   3.165   6.550   0.344 -0.5823 -1.7439 -0.1194
19626TIP3   OH280292   5.445   1.371   5.293 -0.2030  0.2102 -0.1042
19626TIP3    H180293   5.435   1.281   5.264  1.7608 -0.3509  0.7943
19626TIP3    H280294   5.357   1.397   5.320 -0.5884 -1.9105  0.8857
19627TIP3   OH280295   0.818   3.871   1.209 -0.0385 -0.0849 -0.1338
19627TIP3    H180296   0.849   3.781   1.199  0.4245  0.0390  0.1269
19627TIP3    H280297   0.832   3.891   1.302  0.1622  0.3572 -0.2536
19628TIP3   OH280298   5.881   3.251   3.191 -0.1177  0.1250  0.0252
19628TIP3    H180299   5.849   3.341   3.198 -0.5039 -0.1048  1.4522
19628TIP3    H280300   5.823   3.200   3.247  0.7937 -0.8299  0.1314
19629TIP3   OH280301   5.469   0.378  15.357 -0.0456  0.0701  0.4438
19629TIP3    H180302   5.425   0.423  15.285  1.4317 -0.9126 -1.1729
19629TIP3    H280303   5.402   0.366  15.424 -0.9760  2.8024  0.1007
19630TIP3   OH280304   3.464   1.204  15.438  0.6551 -0.0822  0.0621
19630TIP3    H180305   3.371   1.205  15.417  0.4537  0.8236  0.8995
19630TIP3    H280306   3.508   1.211  15.353 -0.0987  1.6319 -0.2410
19631TIP3   OH280307   4.626   0.533  14.631  0.8033 -0.4200 -0.4457
19631TIP3    H180308   4.708   0.581  14.630  1.3586 -1.2850 -2.9314
19631TIP3    H280309   4.572   0.578  14.696  2.0088  2.2897 -1.2098
19632TIP3   OH280310   3.262   5.925   2.971 -0.1920  0.2011  0.2121
19632TIP3    H180311   3.185   5.877   3.004  0.7342 -1.2268  0.3519
19632TIP3    H280312   3.307   5.863   2.914  0.0366  1.5539 -1.1360
19633TIP3   OH280313   2.370   6.423  11.290  0.1134  0.2611  0.2047
19633TIP3    H180314   2.313   6.469  11.228 -0.3443 -0.3988  0.1286
19633TIP3    H280315   2.314   6.408  11.366 -0.1845 -1.3908 -0.2968
19634TIP3   OH280316   6.764   0.161   2.449 -0.6998 -0.1507 -0.0181
19634TIP3    H180317   6.744   0.254   2.462 -1.6929 -0.3583 -0.0579
19634TIP3    H280318   6.845   0.162   2.398 -1.0828  0.6988 -0.6356
19635TIP3   OH280319   3.796   4.619  16.617  0.0542 -0.1291 -0.3748
19635TIP3    H180320   3.783   4.617  16.522  3.3459  3.2725 -1.1139
19635TIP3    H280321   3.844   4.538  16.635 -3.1559 -2.3335 -0.9308
19636TIP3   OH280322   4.942   6.341  11.894 -0.0002 -0.7429  0.1391
19636TIP3    H180323   5.017   6.301  11.938  0.9117 -0.3954 -1.0486
19636TIP3    H280324   4.870   6.334  11.957  1.1218 -0.7368  1.4547
19637TIP3   OH280325   2.319   5.210  15.448 -0.0035 -0.6749  0.2151
19637TIP3    H180326   2.231   5.214  15.409  0.7646  1.7256 -1.5608
19637TIP3    H280327   2.353   5.124  15.423 -0.9572 -0.6634 -1.2214
19638TIP3   OH280328   4.219   4.091   2.105  0.1358 -0.5011  0.0459
19638TIP3    H180329   4.155   4.040   2.057 -0.5640  0.0758  0.3527
19638TIP3    H280330   4.279   4.124   2.038 -0.3157 -0.4296 -0.3224
19639TIP3   OH280331   6.521   1.666  15.461 -0.2386  0.3397 -0.1911
19639TIP3    H180332   6.551   1.695  15.374 -0.5916 -0.1866 -0.4929
19639TIP3    H280333   6.427   1.656  15.452 -0.4263  1.3086  0.5668
19640TIP3   OH280334   2.737   1.550   3.578  0.3156 -0.1555 -0.1354
19640TIP3    H180335   2.821   1.585   3.548 -0.0598  0.1447 -0.8688
19640TIP3    H280336   2.742   1.553   3.673  0.8269  0.6297 -0.1789
19641TIP3   OH280337   5.582   6.746   0.651 -0.7426 -0.5867  0.2053
19641TIP3    H180338   5.496   6.707   0.637  0.0818 -2.1441 -0.7764
19641TIP3    H280339   5.644   6.675   0.638  0.7404  0.5781  0.5118
19642TIP3   OH280340   3.234   1.396   1.678  0.2228 -0.0924 -0.1358
19642TIP3    H180341   3.250   1.356   1.763  1.6985 -1.3839 -0.9548
19642TIP3    H280342   3.308   1.368   1.624 -0.9930  0.1248 -2.0297
19643TIP3   OH280343   3.866   0.196  12.835  0.1669 -0.3204 -0.1123
19643TIP3    H180344   3.776   0.227  12.834  0.1273 -0.2658 -2.7028
19643TIP3    H280345   3.859   0.102  12.817  0.5203 -1.1485  3.3582
19644TIP3   OH280346   5.884   4.509  11.297  0.7506  0.3676  0.3555
19644TIP3    H180347   5.879   4.466  11.212  0.6005  1.4092 -0.1658
19644TIP3    H280348   5.846   4.595  11.283 -0.4727  0.1021  1.7771
19645TIP3   OH280349   3.033   4.113  10.803  0.0286 -0.5159  0.2399
19645TIP3    H180350   3.022   4.018  10.809 -0.5884 -0.5400 -0.8636
19645TIP3    H280351   3.052   4.141  10.892  0.6466 -1.7254  0.5114
19646TIP3   OH280352   5.596   2.742  16.170 -0.9407  0.2986 -0.3695
19646TIP3    H180353   5.600   2.704  16.258 -2.7644  0.9142  0.0315
19646TIP3    H280354   5.637   2.828  16.179 -1.1337  0.3645 -0.1138
19647TIP3   OH280355   3.264   6.559  17.115 -0.5545  0.4521 -0.0044
19647TIP3    H180356   3.238   6.571  17.023 -1.8373  1.3895  0.4491
19647TIP3    H280357   3.206   6.489  17.147 -0.2924  0.3113  0.1655
19648TIP3   OH280358   0.797   0.598  15.503  0.5137 -0.0494 -0.1808
19648TIP3    H180359   0.871   0.619  15.445  0.5249  1.0584  0.2242
19648TIP3    H280360   0.831   0.528  15.559  0.7747 -0.5565 -0.9513
19649TIP3   OH280361   3.075   3.380   1.362  0.4169  0.2491  0.1237
19649TIP3    H180362   3.170   3.392   1.351  0.4370 -0.4837 -0.5904
19649TIP3    H280363   3.036   3.424   1.287  0.1977  0.4246  0.3404
19650TIP3   OH280364   6.703   1.185   1.234  0.0916  0.3702 -0.4258
19650TIP3    H180365   6.716   1.101   1.276  0.0155  0.8836  0.6646
19650TIP3    H280366   6.648   1.166   1.158  1.8953 -0.8807 -1.5094
19651TIP3   OH280367   0.569   5.050   1.689 -0.1201  0.0048  0.7896
19651TIP3    H180368   0.520   5.052   1.771  0.6943  0.5063  1.2754
19651TIP3    H280369   0.509   5.087   1.624 -0.6484 -0.0911  1.2181
19652TIP3   OH280370   2.074   2.600  12.623  0.3163  0.7119 -0.5887
19652TIP3    H180371   2.067   2.638  12.536  3.8117  1.6176 -0.6154
19652TIP3    H280372   2.115   2.667  12.677 -0.8062 -0.1926  1.5573
19653TIP3   OH280373   6.233   0.392   4.196 -0.3635  0.0966 -0.4553
19653TIP3    H180374   6.271   0.472   4.158  0.9654 -0.9797 -1.5223
19653TIP3    H280375   6.287   0.322   4.160  0.2207 -1.1256  2.5539
19654TIP3   OH280376   3.595   2.624  15.029  0.3810 -0.4196  0.3440
19654TIP3    H180377   3.657   2.652  15.096 -0.8523  0.7794  1.0231
19654TIP3    H280378   3.588   2.699  14.970  0.3107 -0.9116 -0.2902
19655TIP3   OH280379   1.365   6.322  13.802 -0.4405  0.0646  0.4396
19655TIP3    H180380   1.339   6.335  13.711 -1.6393 -2.1976  0.3866
19655TIP3    H280381   1.438   6.260  13.798 -1.1349 -0.8142  1.0344
19656TIP3   OH280382   1.041   4.426  17.203 -0.6646 -0.0754 -0.0579
19656TIP3    H180383   0.984   4.470  17.266  1.4393  0.3830  1.6767
19656TIP3    H280384   1.092   4.365  17.257  0.4704 -0.4594 -1.5102
19657TIP3   OH280385   3.083   6.533   1.875 -0.2059 -0.3915 -0.3961
19657TIP3    H180386   3.021   6.574   1.814 -1.5799  0.5817  1.5466
19657TIP3    H280387   3.033   6.523   1.956  1.8127 -0.8345  0.8528
19658TIP3   OH280388   4.976   0.024  16.387  0.3389  0.2359  0.2171
19658TIP3    H180389   5.041  -0.032  16.344  0.0941  0.2847 -0.2249
19658TIP3    H280390   4.901   0.024  16.327  0.6272  1.6581 -0.1962
19659TIP3   OH280391   6.282   6.016  15.210 -0.3440  0.2988 -0.0077
19659TIP3    H180392   6.223   5.960  15.159 -1.6044 -0.7194  2.3995
19659TIP3    H280393   6.339   6.057  15.144 -2.1924 -0.4749 -2.2459
19660TIP3   OH280394   1.523   2.873   5.365  0.1793  0.0065 -0.2359
19660TIP3    H180395   1.448   2.919   5.327  1.1222  3.2211  1.3880
19660TIP3    H280396   1.495   2.849   5.453  0.1262 -1.4849 -0.6433
19661TIP3   OH280397   2.682   6.614   6.628  0.4484  0.1783 -0.0250
19661TIP3    H180398   2.761   6.639   6.581  1.2638 -1.1174  0.6016
19661TIP3    H280399   2.712   6.554   6.696 -1.1594 -0.9265 -0.2205
19662TIP3   OH280400   0.322   1.533  10.935  0.6616  0.0308  0.0047
19662TIP3    H180401   0.313   1.490  10.850  0.9672  0.0244 -0.0235
19662TIP3    H280402   0.234   1.568  10.953  0.6586  0.2620 -0.4343
19663TIP3   OH280403   4.371   4.826  15.169 -0.8283 -0.3436  0.1479
19663TIP3    H180404   4.285   4.866  15.179 -1.0679 -1.1387  1.6771
19663TIP3    H280405   4.353   4.732  15.161 -0.1708 -0.3779 -1.1365
19664TIP3   OH280406   6.740   1.583   4.850 -0.1937 -0.2300 -0.0950
19664TIP3    H180407   6.816   1.618   4.896  1.6915 -4.2606  0.2215
19664TIP3    H280408   6.676   1.565   4.919 -0.8153  1.5173 -0.1656
19665TIP3   OH280409   2.126   5.259   1.918 -0.3709  0.3960  0.0574
19665TIP3    H180410   2.200   5.313   1.945 -0.8622  2.3542 -2.1224
19665TIP3    H280411   2.067   5.257   1.993  1.2174 -0.0048  1.3300
19666TIP3   OH280412   6.329   3.910  15.651 -0.5905  0.1606  0.1629
19666TIP3    H180413   6.355   3.820  15.670 -1.4035 -0.3838 -1.1598
19666TIP3    H280414   6.299   3.908  15.560 -0.0221  1.9097 -0.1047
19667TIP3   OH280415   2.540   0.543   1.018  0.2034 -0.3882  0.0163
19667TIP3    H180416   2.576   0.483   0.952  1.0782  0.8937 -0.7086
19667TIP3    H280417   2.526   0.625   0.970 -2.8514 -0.5308  0.4903
19668TIP3   OH280418   2.875   4.955   5.444 -0.2202 -0.1360  0.0306
19668TIP3    H180419   2.871   4.911   5.529 -0.8840 -1.8182 -0.8304
19668TIP3    H280420   2.953   4.919   5.402 -0.3538  0.0776 -0.4066
19669TIP3   OH280421   1.559   5.598  14.455 -0.1256  0.1955 -0.0428
19669TIP3    H180422   1.619   5.649  14.402  0.8678 -0.3002  0.5748
19669TIP3    H280423   1.559   5.643  14.540  0.6381 -0.7156  0.4561
19670TIP3   OH280424   5.903   2.084  11.742 -0.4639  0.1176  0.0427
19670TIP3    H180425   5.871   2.039  11.820 -1.0110  1.3680  0.5752
19670TIP3    H280426   5.859   2.041  11.669 -2.3822  0.9090  0.6600
19671TIP3   OH280427   2.449   0.162  14.817  0.5830 -0.0288 -0.2889
19671TIP3    H180428   2.395   0.155  14.738 -2.0648  1.2233  1.2964
19671TIP3    H280429   2.464   0.256  14.827  0.4626 -0.1332  0.9724
19672TIP3   OH280430   2.575   3.438  13.072  0.6810  0.1792 -0.9273
19672TIP3    H180431   2.636   3.425  13.145 -1.0085 -0.4891  0.4595
19672TIP3    H280432   2.626   3.482  13.005  2.2334  1.1971  0.8196
19673TIP3   OH280433   6.748   3.016   5.567 -0.3869 -0.2973 -0.1956
19673TIP3    H180434   6.717   2.932   5.601  1.0134 -0.2384  1.4036
19673TIP3    H280435   6.831   2.995   5.523 -0.8090  0.0349 -1.1564
19674TIP3   OH280436   2.588   4.485   4.432 -0.4573  0.2861 -0.0443
19674TIP3    H180437   2.572   4.524   4.518 -0.7417  2.1697 -0.8947
19674TIP3    H280438   2.637   4.405   4.451  0.2241  1.0777  1.8298
19675TIP3   OH280439   6.495   3.018   3.833  0.0253  0.2348  0.0758
19675TIP3    H180440   6.475   2.934   3.873 -0.1248 -1.2440 -2.8286
19675TIP3    H280441   6.577   3.003   3.786 -0.5077  1.3911 -1.2854
19676TIP3   OH280442   4.944   5.422   1.346 -0.0659 -0.4589 -0.3828
19676TIP3    H180443   4.952   5.428   1.441 -0.6988  1.2215 -0.3990
19676TIP3    H280444   4.873   5.359   1.332  0.3273 -1.0496  0.2296
19677TIP3   OH280445   3.963   1.888   5.482  0.2443 -0.3574 -0.2195
19677TIP3    H180446   3.973   1.977   5.450 -0.4384  0.0108  0.5551
19677TIP3    H280447   3.870   1.868   5.469  0.4287 -1.0206 -0.5491
19678TIP3   OH280448   5.060   0.613  15.567  0.3828  0.7051  0.3884
19678TIP3    H180449   5.033   0.589  15.479 -1.1950  1.0955  0.7287
19678TIP3    H280450   5.153   0.595  15.570  0.4755  0.7539 -1.3810
19679TIP3   OH280451   0.891   0.883   6.659  0.1172 -0.5945 -0.0855
19679TIP3    H180452   0.960   0.937   6.697 -0.7680  0.5795 -0.0969
19679TIP3    H280453   0.842   0.850   6.735  0.7386 -1.5391 -0.0704
19680TIP3   OH280454   2.811   4.640  16.211  0.1405 -0.0740  0.7158
19680TIP3    H180455   2.833   4.732  16.225 -1.1434  0.3333  0.1629
19680TIP3    H280456   2.868   4.593  16.272  1.7904  0.9724  0.0484
19681TIP3   OH280457   5.623   3.534   3.408 -0.0398 -0.2184  0.1617
19681TIP3    H180458   5.651   3.614   3.454 -1.0804  0.2787 -0.0276
19681TIP3    H280459   5.681   3.466   3.441  1.1122  0.6834  0.0658
19682TIP3   OH280460   5.398   2.638   6.183 -0.0367  0.4680 -0.5659
19682TIP3    H180461   5.433   2.647   6.272  0.5303 -0.7418 -0.6432
19682TIP3    H280462   5.306   2.613   6.196  0.0780  0.1697 -0.3206
19683TIP3   OH280463   1.936   4.739   5.324 -0.0343  0.1315 -0.1344
19683TIP3    H180464   2.013   4.767   5.275 -0.7502 -0.6973 -1.8495
19683TIP3    H280465   1.933   4.644   5.312 -1.9091  0.2526 -1.0842
19684TIP3   OH280466   3.303   5.252  14.464  0.1598  0.5133 -0.1062
19684TIP3    H180467   3.383   5.293  14.498  1.7557 -2.3816 -0.0503
19684TIP3    H280468   3.315   5.252  14.369 -0.0564  0.5742 -0.1330
19685TIP3   OH280469   4.800   2.215  12.164  0.0056  0.0486 -0.4017
19685TIP3    H180470   4.779   2.227  12.072  0.4130  0.4610 -0.4402
19685TIP3    H280471   4.872   2.275  12.181 -0.0738 -0.0143  0.1889
19686TIP3   OH280472   5.986   5.025  15.556  0.3844 -0.1656 -0.2845
19686TIP3    H180473   6.037   5.008  15.635  0.2749 -0.8556 -0.3581
19686TIP3    H280474   6.041   5.084  15.505  0.2344  0.7160  0.5300
19687TIP3   OH280475   2.065   0.880   0.081 -0.5748 -0.1338  0.2461
19687TIP3    H180476   2.002   0.817   0.115  1.8485 -3.1112 -0.3977
19687TIP3    H280477   2.050   0.881  -0.013  0.8238 -1.5230 -0.0203
19688TIP3   OH280478   3.703   3.066   0.420  0.0329 -0.6527  0.2903
19688TIP3    H180479   3.698   2.971   0.414  0.2753 -0.7084  0.9336
19688TIP3    H280480   3.613   3.095   0.434 -0.5727 -0.5358 -2.8949
19689TIP3   OH280481   6.251   4.897  15.150 -0.3264  0.0651  0.0989
19689TIP3    H180482   6.309   4.920  15.077  0.2858 -1.5535  0.0214
19689TIP3    H280483   6.211   4.980  15.176  1.3677  1.1008 -0.4174
19690TIP3   OH280484   4.349   5.020  11.684  0.7469  0.7581  0.0372
19690TIP3    H180485   4.423   4.998  11.741  1.2790  1.2771 -0.4395
19690TIP3    H280486   4.291   5.072  11.740  0.3565 -0.2902  0.6377
19691TIP3   OH280487   2.988   3.529   4.904 -0.2645 -0.2083  0.2299
19691TIP3    H180488   3.045   3.477   4.960  1.5145 -0.3049 -1.5202
19691TIP3    H280489   3.014   3.504   4.815 -2.0990  0.8148 -0.6383
19692TIP3   OH280490   2.809   1.410  13.986 -0.4080 -0.4100  0.0882
19692TIP3    H180491   2.800   1.422  14.081 -2.3419  0.7484 -0.1786
19692TIP3    H280492   2.841   1.320  13.976  0.3322 -0.3900  1.8292
19693TIP3   OH280493   1.279   2.225  15.819 -0.3522 -0.6994 -0.3803
19693TIP3    H180494   1.327   2.147  15.791 -0.1779  0.1597 -2.7163
19693TIP3    H280495   1.241   2.260  15.738 -1.8228  0.7204  0.8574
19694TIP3   OH280496   0.894   1.270   2.560 -0.3285  0.1768  0.2242
19694TIP3    H180497   0.938   1.221   2.490 -0.8869 -0.1733  0.1157
19694TIP3    H280498   0.929   1.359   2.551  2.8572 -0.7130  2.1910
19695TIP3   OH280499   5.062   2.648   1.057  0.5550 -0.3715  0.2840
19695TIP3    H180500   5.152   2.673   1.077 -0.0269  2.5622 -0.2696
19695TIP3    H280501   5.041   2.699   0.979 -1.4546 -1.3227  0.1619
19696TIP3   OH280502   6.401   0.436  13.700  0.2106  0.7162 -0.0854
19696TIP3    H180503   6.401   0.526  13.666 -0.7573  1.1725  1.0616
19696TIP3    H280504   6.309   0.416  13.713  0.4825 -0.0186  0.7787
19697TIP3   OH280505   4.837   4.621   4.100  0.1238  0.1963 -0.1636
19697TIP3    H180506   4.912   4.611   4.158  1.2053  1.0575 -1.3705
19697TIP3    H280507   4.763   4.633   4.159  0.7527 -1.5213  1.0711
19698TIP3   OH280508   4.507   3.894   4.120 -0.0513 -0.3764 -0.0695
19698TIP3    H180509   4.454   3.815   4.112 -1.7813  0.8042 -0.7648
19698TIP3    H280510   4.597   3.862   4.116 -0.6252 -2.5189  1.7626
19699TIP3   OH280511   3.380   2.353   5.606  0.1590  0.0850  0.2736
19699TIP3    H180512   3.320   2.410   5.558 -0.0333 -0.8436 -0.6271
19699TIP3    H280513   3.453   2.410   5.631 -0.3698  0.8788  0.0315
19700TIP3   OH280514   2.059   1.123   4.975 -0.6564  0.1214  0.0782
19700TIP3    H180515   2.000   1.199   4.971 -0.2330  0.4258 -0.8813
19700TIP3    H280516   2.135   1.150   4.922 -0.7566 -1.1820 -0.7724
19701TIP3   OH280517   4.507   2.261  13.840  0.2385  0.1944 -0.2064
19701TIP3    H180518   4.592   2.240  13.879  0.4177 -0.3695 -0.8992
19701TIP3    H280519   4.451   2.279  13.916  0.6029 -0.8008  0.3260
19702TIP3   OH280520   0.764   6.673  12.664  0.0388 -0.5039 -0.0824
19702TIP3    H180521   0.688   6.725  12.691 -0.2612 -2.2268  2.6933
19702TIP3    H280522   0.730   6.584  12.655  0.9975 -0.7027 -2.6069
19703TIP3   OH280523   2.170   3.453  17.236  0.1900  0.2374 -0.3695
19703TIP3    H180524   2.134   3.366  17.220 -0.0085  0.4445 -1.0994
19703TIP3    H280525   2.114   3.512  17.186 -0.4135  0.9369  1.0829
19704TIP3   OH280526   1.333   1.555  12.902  0.1894  0.2667  0.1518
19704TIP3    H180527   1.323   1.471  12.947  0.9820  0.0006 -0.1534
19704TIP3    H280528   1.392   1.605  12.958  3.0462 -0.8946 -1.6161
19705TIP3   OH280529   2.731   3.498  12.400 -0.7224 -0.4351 -0.1538
19705TIP3    H180530   2.742   3.558  12.327 -0.2111 -0.1246  0.1711
19705TIP3    H280531   2.787   3.423  12.378  0.4286  0.2087  0.4964
19706TIP3   OH280532   1.917   6.096   6.291  0.1108 -0.1378  0.3653
19706TIP3    H180533   1.914   6.108   6.386  1.2248 -1.8110  0.6488
19706TIP3    H280534   1.857   6.024   6.274  0.2804 -0.1654 -0.1337
19707TIP3   OH280535   3.686   0.646   0.005  0.6102  0.6821 -0.2076
19707TIP3    H180536   3.726   0.672   0.088  0.9856  0.1180 -0.2109
19707TIP3    H280537   3.602   0.693   0.004 -0.7580 -1.5150  1.8739
19708TIP3   OH280538   5.019   5.044  11.813 -0.7517 -0.2219 -0.3506
19708TIP3    H180539   5.001   5.131  11.849 -0.6302 -0.3795  0.0927
19708TIP3    H280540   5.105   5.021  11.848 -0.6160 -0.3669 -0.7695
19709TIP3   OH280541   5.101   3.025   3.895  0.1348 -0.3652 -0.3707
19709TIP3    H180542   5.023   3.028   3.951 -0.2996 -1.2690 -0.9044
19709TIP3    H280543   5.154   3.099   3.924 -1.2042  0.6540 -0.3966
19710TIP3   OH280544   2.811   1.957   4.691 -0.1273  0.3342 -0.0157
19710TIP3    H180545   2.830   1.870   4.657 -0.4688 -0.1312  0.9434
19710TIP3    H280546   2.888   2.009   4.667 -1.3130  0.6887 -3.4839
19711TIP3   OH280547   5.850   2.042  12.278 -0.3323 -0.3500  0.3412
19711TIP3    H180548   5.763   2.017  12.310 -0.7709  0.1165 -0.4515
19711TIP3    H280549   5.839   2.052  12.184  0.3919  0.4798  0.3281
19712TIP3   OH280550   5.862   0.013   5.836 -0.0048  0.1718 -0.3581
19712TIP3    H180551   5.838   0.071   5.909 -0.6260 -0.2597 -0.2166
19712TIP3    H280552   5.904   0.071   5.773  2.7220  0.1737  1.3295
19713TIP3   OH280553   0.435   1.093  11.910 -0.3393  1.0370  0.1575
19713TIP3    H180554   0.370   1.134  11.968 -0.4454  0.0055  0.7777
19713TIP3    H280555   0.515   1.144  11.925 -0.2279  0.4722  1.5996
19714TIP3   OH280556   1.026   2.012   1.719 -0.0883 -0.3765 -0.6349
19714TIP3    H180557   0.948   2.040   1.670  0.7044  0.2458 -1.6059
19714TIP3    H280558   1.064   2.094   1.752  0.4363 -0.6204 -0.6186
19715TIP3   OH280559   1.666   3.187  10.715 -0.6008  0.1776 -0.0755
19715TIP3    H180560   1.712   3.261  10.754 -0.1323 -0.4690  0.6145
19715TIP3    H280561   1.681   3.197  10.621  0.7974  0.0754  0.1282
19716TIP3   OH280562   0.119   2.050  16.195 -0.8020 -0.3418 -0.0007
19716TIP3    H180563   0.182   2.015  16.132 -0.7444 -0.0035 -0.1330
19716TIP3    H280564   0.056   2.099  16.142 -1.1661 -0.6545  0.1347
19717TIP3   OH280565   1.031   5.724  13.353 -1.4868 -0.1688 -0.2353
19717TIP3    H180566   0.969   5.723  13.280 -0.6249  0.1527 -1.0039
19717TIP3    H280567   0.980   5.696  13.429 -3.1187  2.1136 -0.3787
19718TIP3   OH280568   1.851   1.969   0.522  0.7175  0.2387 -0.0004
19718TIP3    H180569   1.883   2.010   0.442  0.7662  0.6181  0.2115
19718TIP3    H280570   1.929   1.937   0.567  0.5832 -1.4469 -0.8827
19719TIP3   OH280571   6.144   2.735   4.175  0.5025  0.0377 -0.1277
19719TIP3    H180572   6.067   2.757   4.227  0.2756 -0.5023 -0.2236
19719TIP3    H280573   6.170   2.817   4.133 -0.4860  0.0667 -0.7174
19720TIP3   OH280574   0.013   3.639   1.947 -0.1279  0.3988 -0.4842
19720TIP3    H180575   0.033   3.714   2.002 -0.8599  0.8610 -0.8399
19720TIP3    H280576   0.046   3.564   1.997  1.7663  1.0385 -0.6892
19721TIP3   OH280577   5.929   6.579   5.514 -0.1000 -0.0939 -0.3617
19721TIP3    H180578   5.863   6.648   5.517 -0.9880 -0.9575  0.4216
19721TIP3    H280579   5.970   6.590   5.427 -1.8999 -0.1206 -1.2562
19722TIP3   OH280580   2.540   6.506  14.484 -0.7247  0.2514  0.2467
19722TIP3    H180581   2.502   6.584  14.444 -0.2923 -0.7046 -2.1770
19722TIP3    H280582   2.632   6.509  14.458 -0.8979 -1.5049 -0.6755
19723TIP3   OH280583   2.338   6.415   4.979 -0.1366 -0.8044  0.4066
19723TIP3    H180584   2.247   6.445   4.973  0.3701  0.5632 -1.2759
19723TIP3    H280585   2.342   6.341   4.918  0.3027  0.3702 -1.0320
19724TIP3   OH280586   4.284   5.494  15.580 -0.1857  0.1033 -0.3934
19724TIP3    H180587   4.361   5.548  15.561  0.1518 -0.7774 -1.5846
19724TIP3    H280588   4.215   5.558  15.601  0.7096  0.9185  0.1426
19725TIP3   OH280589   6.605   4.681  11.506 -0.3135 -0.3165 -0.4604
19725TIP3    H180590   6.656   4.710  11.581 -3.4657  3.1429  0.6462
19725TIP3    H280591   6.598   4.586  11.517 -0.6733 -0.0044  3.7331
19726TIP3   OH280592   0.255   1.937  11.076  0.8040  0.1001  0.5144
19726TIP3    H180593   0.280   1.849  11.105  1.4037 -0.0228 -0.3551
19726TIP3    H280594   0.280   1.993  11.149 -0.3889 -0.5279  1.4574
19727TIP3   OH280595   5.374   1.411  15.825  0.1469 -0.5586 -0.1376
19727TIP3    H180596   5.392   1.411  15.919  0.3831 -0.0029 -0.1755
19727TIP3    H280597   5.280   1.391  15.818 -0.0642  0.2230  0.2683
19728TIP3   OH280598   6.764   2.536   1.916  0.3531 -0.2132 -0.0499
19728TIP3    H180599   6.823   2.474   1.873  0.4494  0.0515 -0.3094
19728TIP3    H280600   6.703   2.482   1.966  0.5794 -0.5039 -0.0897
19729TIP3   OH280601   5.397   4.929   1.048 -0.0406 -0.1977 -0.2605
19729TIP3    H180602   5.372   4.859   1.109  3.2456 -0.1527  1.3971
19729TIP3    H280603   5.374   5.010   1.094  1.1549 -0.1815  0.3424
19730TIP3   OH280604   6.095   6.163   1.493  0.3085 -0.3007 -0.1989
19730TIP3    H180605   6.053   6.122   1.417  0.7090 -1.4971  0.2106
19730TIP3    H280606   6.152   6.095   1.529  0.6875  0.4941  0.7390
19731TIP3   OH280607   0.297   6.702   6.611  0.5805 -0.0921  0.3022
19731TIP3    H180608   0.277   6.763   6.681  0.2627 -0.0164  0.1475
19731TIP3    H280609   0.212   6.676   6.576  0.7421  0.1896 -0.3238
19732TIP3   OH280610   2.433   1.126  13.824  0.0291  0.1730  0.1468
19732TIP3    H180611   2.514   1.157  13.865 -1.4264  4.9773  0.0099
19732TIP3    H280612   2.457   1.111  13.732  1.2741 -1.3163  0.6711
19733TIP3   OH280613   1.357   2.763  17.191 -0.8721  0.2314  0.6809
19733TIP3    H180614   1.365   2.745  17.097 -2.2105 -0.2254  0.6301
19733TIP3    H280615   1.389   2.853  17.201 -0.7861  0.3083 -0.2206
19734TIP3   OH280616   0.955   6.459   0.749  0.7324 -0.2497  0.4242
19734TIP3    H180617   0.935   6.447   0.656 -0.2256 -0.8538  0.6914
19734TIP3    H280618   1.050   6.466   0.753  0.9613 -2.2830 -0.4044
19735TIP3   OH280619   5.867   1.891   5.102  0.2074  0.0901 -0.3534
19735TIP3    H180620   5.961   1.909   5.101  0.8407 -2.1254  2.7170
19735TIP3    H280621   5.826   1.977   5.115  2.0384  0.8250  0.9822
19736TIP3   OH280622   4.430   1.120  11.520 -0.0765 -0.0390  0.3636
19736TIP3    H180623   4.337   1.100  11.532 -0.0080 -0.4143  0.2658
19736TIP3    H280624   4.434   1.166  11.437 -0.4703  2.0046  1.4049
19737TIP3   OH280625   4.744   5.660  14.762 -0.0875  0.0622 -0.8284
19737TIP3    H180626   4.650   5.682  14.760 -0.4307 -1.3720 -1.1859
19737TIP3    H280627   4.788   5.744  14.748 -1.2441  1.1219  1.3736
19738TIP3   OH280628   5.619   6.603   5.688 -0.0001 -0.3136 -0.1376
19738TIP3    H180629   5.549   6.640   5.634  0.4359  1.1117  0.2333
19738TIP3    H280630   5.692   6.663   5.677  0.8582 -1.2625  0.2444
19739TIP3   OH280631   1.548   2.598  14.670  0.1508 -0.7068  0.1429
19739TIP3    H180632   1.620   2.536  14.681  0.8603  0.0853  0.0232
19739TIP3    H280633   1.589   2.684  14.679 -0.8462 -0.2539  0.4516
19740TIP3   OH280634   3.214   0.232   6.300 -0.6094  0.4905  0.1603
19740TIP3    H180635   3.224   0.326   6.283  2.4893  0.4267  1.0957
19740TIP3    H280636   3.181   0.229   6.390 -1.1788  0.6519 -0.0342
19741TIP3   OH280637   2.407   3.440   1.927  1.0004  0.0593  0.3181
19741TIP3    H180638   2.445   3.509   1.872  3.2190  0.2070  1.8853
19741TIP3    H280639   2.461   3.363   1.909  0.2562 -0.5419  0.6003
19742TIP3   OH280640   5.283   4.723   1.212  0.2066  0.3201  0.3746
19742TIP3    H180641   5.294   4.642   1.262  1.6230 -0.0016 -0.3884
19742TIP3    H280642   5.248   4.786   1.275 -2.4353 -1.2470  0.6117
19743TIP3   OH280643   6.585   5.614   1.215  0.1474 -0.6361  0.6381
19743TIP3    H180644   6.666   5.628   1.263  0.4876 -1.9276  0.4567
19743TIP3    H280645   6.577   5.692   1.160  2.9108 -1.7732 -1.6470
19744TIP3   OH280646   3.515   0.476  13.030 -0.2095 -0.2270 -0.4541
19744TIP3    H180647   3.443   0.420  13.059 -0.0809 -1.2311 -1.9720
19744TIP3    H280648   3.473   0.559  13.007 -0.4362  0.2706  1.5674
19745TIP3   OH280649   2.844   6.177  16.522  0.4803 -0.3497  0.8714
19745TIP3    H180650   2.771   6.236  16.504  0.5833 -0.5349 -0.1714
19745TIP3    H280651   2.828   6.101  16.466  1.0412 -0.7517  1.2477
19746TIP3   OH280652   5.627   1.970   1.454 -0.3850 -0.1064  0.0661
19746TIP3    H180653   5.678   2.022   1.393  0.5275 -2.1458 -1.0035
19746TIP3    H280654   5.611   2.029   1.528  3.7753  0.6323  0.6236
19747TIP3   OH280655   0.469   5.126   2.812  0.2927 -0.2741  0.1609
19747TIP3    H180656   0.488   5.038   2.779  0.4503 -0.0727 -0.2889
19747TIP3    H280657   0.378   5.143   2.787 -0.1630 -0.8233  1.3974
19748TIP3   OH280658   5.054   5.050  13.190 -0.6279 -0.1816 -0.3277
19748TIP3    H180659   5.000   5.052  13.270  2.1134  0.8147  1.6449
19748TIP3    H280660   4.992   5.070  13.120 -2.5921  2.8464  1.9550
19749TIP3   OH280661   0.870   1.667   4.743  1.0708 -0.5030  0.2773
19749TIP3    H180662   0.825   1.595   4.699  0.9704 -1.0144  1.1897
19749TIP3    H280663   0.800   1.724   4.774  1.1369 -0.2088 -0.1051
19750TIP3   OH280664   4.002   5.578   4.565 -0.7419 -0.3185 -0.5735
19750TIP3    H180665   4.013   5.492   4.606 -1.6759 -0.5345 -0.7445
19750TIP3    H280666   3.948   5.561   4.488 -1.0156  0.4347 -0.5574
19751TIP3   OH280667   3.294   5.583   6.626  0.2485 -0.1241 -0.1444
19751TIP3    H180668   3.330   5.604   6.540  1.8639  0.1495  0.5646
19751TIP3    H280669   3.214   5.635   6.631  0.3632  0.2005 -1.3050
19752TIP3   OH280670   1.027   1.218   5.077  0.0515  0.3787 -0.2409
19752TIP3    H180671   1.045   1.312   5.086  0.0388  0.2571  1.3202
19752TIP3    H280672   1.090   1.176   5.136  1.2582 -0.7445 -2.2184
19753TIP3   OH280673   2.775   5.838  13.090 -0.2170 -0.1594 -0.1980
19753TIP3    H180674   2.836   5.912  13.099  0.2525 -0.5762  0.1342
19753TIP3    H280675   2.698   5.864  13.140  0.0018  0.0476  0.0349
19754TIP3   OH280676   6.551   3.948  11.870 -1.0821  0.3635 -0.5445
19754TIP3    H180677   6.552   3.932  11.964 -0.4689  1.4005 -0.3520
19754TIP3    H280678   6.474   3.902  11.838 -0.4687 -1.2604  0.2164
19755TIP3   OH280679   4.300   5.385   4.425  0.0316 -0.3754  0.2025
19755TIP3    H180680   4.301   5.470   4.470  1.3277 -1.0702  1.5614
19755TIP3    H280681   4.383   5.382   4.378 -0.6346 -0.3265 -1.0245
19756TIP3   OH280682   6.476   6.589  11.246 -0.2636  0.6550 -0.8841
19756TIP3    H180683   6.451   6.677  11.271 -0.7340 -0.0418  1.2865
19756TIP3    H280684   6.421   6.569  11.170 -1.1106  1.7475 -0.5845
19757TIP3   OH280685   6.312   3.221   1.172 -0.4638  0.3105 -0.0572
19757TIP3    H180686   6.246   3.244   1.238  1.2386 -0.2302  1.9564
19757TIP3    H280687   6.270   3.152   1.119 -1.6064  0.1657  0.9760
19758TIP3   OH280688   0.709   6.515  16.355 -0.1975  0.0764  0.7813
19758TIP3    H180689   0.773   6.515  16.284  2.0014  2.5909  2.5510
19758TIP3    H280690   0.754   6.471  16.428  0.2296  3.0735  2.4816
19759TIP3   OH280691   5.710   4.047  13.785  0.0195  0.4665 -0.4623
19759TIP3    H180692   5.622   4.080  13.803 -0.6935  0.0068 -2.8362
19759TIP3    H280693   5.700   3.991  13.708  2.0284 -1.3580  0.4905
19760TIP3   OH280694   3.808   6.596   3.301 -0.5984  0.3514  0.1359
19760TIP3    H180695   3.864   6.672   3.316 -0.3895 -0.2157  2.6005
19760TIP3    H280696   3.864   6.520   3.320 -1.5272 -0.3155  0.2852
19761TIP3   OH280697   2.217   0.297  15.939  0.6153 -0.0600 -0.2062
19761TIP3    H180698   2.125   0.284  15.916  0.7057  0.1405 -0.6999
19761TIP3    H280699   2.243   0.375  15.890  0.9783  0.0332  0.1327
19762TIP3   OH280700   5.093   0.811  14.641  0.1048  0.0807  0.1810
19762TIP3    H180701   5.058   0.891  14.680  0.1682 -0.2226  0.8811
19762TIP3    H280702   5.181   0.803  14.677 -0.1683 -0.6879  0.7113
19763TIP3   OH280703   5.932   1.898  15.497  0.4445  0.4117  0.4013
19763TIP3    H180704   5.836   1.898  15.495  0.4355  1.3288  0.3786
19763TIP3    H280705   5.955   1.827  15.558 -0.1806 -1.2211 -1.1835
19764TIP3   OH280706   0.796   5.020  14.277  0.5346 -0.4035  0.0986
19764TIP3    H180707   0.816   5.078  14.204 -0.8317  0.6998  0.5582
19764TIP3    H280708   0.739   4.952  14.240 -0.4135  0.3305  0.1828
19765TIP3   OH280709   3.786   0.383  10.673 -0.2897 -0.4360 -0.3240
19765TIP3    H180710   3.781   0.307  10.731  0.7070 -0.2377  0.0416
19765TIP3    H280711   3.740   0.452  10.720  0.9407 -0.1345  0.4959
19766TIP3   OH280712   2.159   6.158  14.330 -0.2208 -0.9573  0.1606
19766TIP3    H180713   2.130   6.143  14.420 -0.0306 -1.3136  0.1659
19766TIP3    H280714   2.216   6.235  14.335 -2.0704  0.5008 -0.0423
19767TIP3   OH280715   1.914   2.474   1.425 -0.6029  0.1623 -0.4479
19767TIP3    H180716   1.900   2.556   1.471  1.2409 -0.3403  1.1296
19767TIP3    H280717   1.981   2.494   1.360 -0.2000 -0.0591 -0.1066
19768TIP3   OH280718   1.697   5.776   1.318 -0.6830 -0.0249 -0.2526
19768TIP3    H180719   1.677   5.719   1.392 -1.3057  2.9692  2.0984
19768TIP3    H280720   1.792   5.788   1.322 -0.4976 -1.1043 -0.9886
19769TIP3   OH280721   5.871   4.021   0.614  0.1259  0.0357  0.6664
19769TIP3    H180722   5.829   4.042   0.530  0.5886 -0.5105  0.2966
19769TIP3    H280723   5.910   4.104   0.642  3.5126 -0.5719 -1.6702
19770TIP3   OH280724   1.440   2.547  14.247 -0.0207 -0.0174 -0.4006
19770TIP3    H180725   1.520   2.503  14.275  0.4966  2.0986  1.7350
19770TIP3    H280726   1.380   2.537  14.320 -1.0076  0.1023 -1.1787
19771TIP3   OH280727   2.911   5.491   4.029 -0.0336 -0.0764 -0.5681
19771TIP3    H180728   2.951   5.521   3.947 -0.9653 -1.8699 -1.7469
19771TIP3    H280729   2.880   5.403   4.010 -2.5053  0.3562  0.9396
19772TIP3   OH280730   1.862   1.442   1.154 -0.3360 -0.4512  0.2421
19772TIP3    H180731   1.806   1.405   1.222 -1.1222  0.2667  0.0054
19772TIP3    H280732   1.843   1.536   1.156  1.7820  0.0115  0.9901
19773TIP3   OH280733   0.214   5.757  13.634 -0.6074 -0.3275 -0.0225
19773TIP3    H180734   0.201   5.714  13.718  0.6720 -0.1731  0.2782
19773TIP3    H280735   0.158   5.834  13.637  0.0646  0.1443  1.0513
19774TIP3   OH280736   0.163   4.610  12.399  0.6589 -0.1047  0.2183
19774TIP3    H180737   0.079   4.657  12.402  1.2043  0.8418  1.0766
19774TIP3    H280738   0.228   4.675  12.426  1.5022 -1.2130  0.9112
19775TIP3   OH280739   4.942   6.092   2.644 -0.8387  0.3665 -0.2923
19775TIP3    H180740   4.999   6.123   2.575 -2.0510  0.1090 -1.4501
19775TIP3    H280741   4.986   6.014   2.679 -0.0387  0.7141 -0.5047
19776TIP3   OH280742   5.446   2.530  12.817  0.4000 -0.1068  0.0304
19776TIP3    H180743   5.499   2.548  12.895  1.3945  1.4399 -0.9464
19776TIP3    H280744   5.411   2.616  12.792 -0.4460 -0.6906 -0.8560
19777TIP3   OH280745   2.589   1.229  16.598 -0.0473  0.2366  0.1392
19777TIP3    H180746   2.507   1.217  16.646  0.3309  1.2617  1.0790
19777TIP3    H280747   2.629   1.142  16.596 -0.5690 -0.0223  0.7781
19778TIP3   OH280748   6.643   0.216   0.391 -0.5719 -0.2526 -0.2329
19778TIP3    H180749   6.654   0.292   0.447 -0.2473  2.8546 -4.0592
19778TIP3    H280750   6.561   0.232   0.345 -0.2542 -1.9929 -1.5139
19779TIP3   OH280751   0.705   2.301   1.357 -0.0214 -0.3889 -0.2382
19779TIP3    H180752   0.763   2.303   1.280  0.9698 -1.3307  0.4482
19779TIP3    H280753   0.617   2.307   1.320  0.4199 -0.9822 -1.4801
19780TIP3   OH280754   1.283   6.041  13.337  0.2238 -0.5971 -0.0641
19780TIP3    H180755   1.334   6.105  13.289 -1.3915  0.8764  0.0994
19780TIP3    H280756   1.192   6.060  13.314 -0.3873 -1.8714  1.1506
19781TIP3   OH280757   1.805   1.174   4.190  0.1619  0.7776  0.5029
19781TIP3    H180758   1.817   1.080   4.195  0.7345  0.7911 -0.3835
19781TIP3    H280759   1.893   1.210   4.200  0.3819  1.0755 -1.8828
19782TIP3   OH280760   6.423   1.813  12.133 -0.6101 -0.5061 -0.1180
19782TIP3    H180761   6.513   1.835  12.111  0.0888 -0.4711  2.3818
19782TIP3    H280762   6.380   1.898  12.146 -0.0212 -0.4601  1.9535
19783TIP3   OH280763   4.088   1.349  13.703  0.2924  0.7943  0.1782
19783TIP3    H180764   4.055   1.272  13.750  0.0285  0.1846 -0.9601
19783TIP3    H280765   4.162   1.379  13.755 -1.1041  1.2921  1.9943
19784TIP3   OH280766   1.122   3.043   3.289  0.3428 -0.3572  0.8159
19784TIP3    H180767   1.192   3.075   3.231  0.3749  0.0783  1.0914
19784TIP3    H280768   1.168   2.995   3.358  0.3096 -0.8020  0.5392
19785TIP3   OH280769   3.739   6.320   1.690  0.1245 -0.1454  0.4675
19785TIP3    H180770   3.828   6.350   1.672 -0.7859  2.6073  0.0601
19785TIP3    H280771   3.728   6.334   1.784  0.4417 -1.5724  0.7437
19786TIP3   OH280772   4.255   4.341   0.972 -0.0422 -0.3107  0.0852
19786TIP3    H180773   4.202   4.354   1.051 -0.0172  0.9736 -0.0897
19786TIP3    H280774   4.193   4.348   0.900  0.1392 -0.2534 -0.0665
19787TIP3   OH280775   0.594   3.543  16.759  0.4840 -0.0666  0.0340
19787TIP3    H180776   0.508   3.512  16.732  0.1777  0.1929  0.6725
19787TIP3    H280777   0.600   3.631  16.722  0.6961 -0.2878 -0.4571
19788TIP3   OH280778   5.103   2.372  14.984  0.7287 -0.4650  0.0047
19788TIP3    H180779   5.058   2.454  15.007 -0.8177 -0.9841 -0.9729
19788TIP3    H280780   5.196   2.391  14.997  0.3766  1.3154  0.1872
19789TIP3   OH280781   0.559   3.325   2.350  0.2361  0.6175  0.2693
19789TIP3    H180782   0.551   3.406   2.301 -1.5083  0.5552  0.3936
19789TIP3    H280783   0.569   3.257   2.283  3.2098  1.0212  0.1977
19790TIP3   OH280784   2.366   2.264   3.454 -0.1713 -0.0958 -0.3002
19790TIP3    H180785   2.275   2.293   3.451  0.4150  1.9705  0.2319
19790TIP3    H280786   2.373   2.217   3.537 -0.3457  1.4153  0.6168
19791TIP3   OH280787   5.604   5.299   2.178  0.1311 -0.1264 -0.6981
19791TIP3    H180788   5.656   5.269   2.252 -1.2379  1.1062  0.8413
19791TIP3    H280789   5.529   5.239   2.176 -0.4975  0.6225 -0.2249
19792TIP3   OH280790   3.663   3.907   0.109 -0.2263 -0.3200  0.0863
19792TIP3    H180791   3.582   3.856   0.110 -0.0769 -0.6085 -1.0806
19792TIP3    H280792   3.651   3.972   0.178 -1.6855 -0.0084 -0.4204
19793TIP3   OH280793   3.154   2.378  13.666 -0.3992 -0.2199 -1.0404
19793TIP3    H180794   3.145   2.453  13.725 -4.0308 -0.9451 -0.4700
19793TIP3    H280795   3.161   2.416  13.579  0.3270  0.7807 -0.5666
19794TIP3   OH280796   6.027   0.476   2.345  0.3170  0.1371 -0.2459
19794TIP3    H180797   6.076   0.547   2.385  1.4210 -0.8365  0.1905
19794TIP3    H280798   6.031   0.405   2.409  2.7136 -1.7222 -2.2426
19795TIP3   OH280799   6.753   2.920  17.113 -0.2256 -0.2315 -0.3087
19795TIP3    H180800   6.760   2.912  17.208  0.2250 -2.6203 -0.4989
19795TIP3    H280801   6.663   2.950  17.099 -0.5698 -0.6484  0.8417
19796TIP3   OH280802   4.208   1.320   3.620  0.0393  0.2275 -0.0222
19796TIP3    H180803   4.212   1.327   3.524  1.0359  1.2065  0.0743
19796TIP3    H280804   4.298   1.301   3.646  0.1199  1.6324  0.8208
19797TIP3   OH280805   1.743   2.091   2.917  0.5360 -0.1141 -0.6658
19797TIP3    H180806   1.657   2.060   2.943  0.3587 -0.0573 -1.1594
19797TIP3    H280807   1.778   2.136   2.994  0.2268 -0.3471 -0.3892
19798TIP3   OH280808   4.235   5.170  13.789 -0.7936 -0.0409 -0.6568
19798TIP3    H180809   4.191   5.227  13.853 -0.1997 -0.2954 -0.0061
19798TIP3    H280810   4.302   5.225  13.749  0.9774 -0.6893  1.2293
19799TIP3   OH280811   1.489   3.799   3.782 -0.3692 -0.7269 -0.6600
19799TIP3    H180812   1.492   3.739   3.857 -1.5096 -2.6107 -2.0104
19799TIP3    H280813   1.421   3.863   3.806  0.9271  0.1514  0.8477
19800TIP3   OH280814   6.685   4.999   3.600 -0.3695 -0.0379  0.0382
19800TIP3    H180815   6.593   5.024   3.596 -0.3009  0.3301  0.6412
19800TIP3    H280816   6.684   4.905   3.620 -0.6184  0.1656  1.0395
19801TIP3   OH280817   0.072   6.144   3.891  0.1069 -0.0293  0.2217
19801TIP3    H180818   0.117   6.108   3.967  0.6142 -0.7442 -0.3981
19801TIP3    H280819   0.143   6.165   3.830 -0.2411  1.2074  0.2192
19802TIP3   OH280820   5.397   5.245  13.469  0.3754 -0.2273  0.0713
19802TIP3    H180821   5.448   5.295  13.533  0.0971  0.5455 -0.2949
19802TIP3    H280822   5.306   5.264  13.493  0.1200  3.2604 -2.8251
19803TIP3   OH280823   3.253   0.311   2.536  0.1701 -0.2408 -1.0083
19803TIP3    H180824   3.299   0.242   2.584  0.6761 -0.2527 -1.5133
19803TIP3    H280825   3.260   0.285   2.444  1.7291  1.2772 -1.3581
19804TIP3   OH280826   5.074   1.055   0.493 -0.5621  0.4265  0.4150
19804TIP3    H180827   5.103   1.145   0.477 -2.5766  0.8776 -1.0952
19804TIP3    H280828   4.980   1.061   0.507 -0.8268 -1.4814 -0.1490
19805TIP3   OH280829   4.821   3.646   0.410  0.1068 -0.0297  0.8199
19805TIP3    H180830   4.752   3.592   0.372  0.6644 -1.2624  1.5119
19805TIP3    H280831   4.839   3.606   0.495 -0.0164  1.7376  1.7075
19806TIP3   OH280832   1.266   1.987   3.788  0.1948  0.3014 -0.2034
19806TIP3    H180833   1.191   2.002   3.846  0.0173  0.9955 -0.5990
19806TIP3    H280834   1.341   1.979   3.847  0.2947  2.6200  0.1133
19807TIP3   OH280835   4.837   5.857   0.493  0.2402 -0.6300 -1.2238
19807TIP3    H180836   4.821   5.929   0.554 -1.0019 -2.1120  0.2922
19807TIP3    H280837   4.895   5.798   0.539  0.4125 -1.1166 -2.0401
19808TIP3   OH280838   5.241   3.337  12.618 -0.3372  0.6764 -0.3393
19808TIP3    H180839   5.313   3.302  12.566 -0.5848  1.2692 -1.1050
19808TIP3    H280840   5.163   3.320  12.565 -0.7207  0.3878  0.3066
19809TIP3   OH280841   2.242   0.544   6.434  0.1955 -0.5301  0.6931
19809TIP3    H180842   2.189   0.617   6.466 -2.1642 -1.4065 -0.8430
19809TIP3    H280843   2.267   0.495   6.513 -1.2260  0.0183  1.5184
19810TIP3   OH280844   0.226   4.336  17.089 -0.0648 -0.3300 -0.3800
19810TIP3    H180845   0.307   4.366  17.129 -0.0283  0.0532 -0.7323
19810TIP3    H280846   0.163   4.333  17.161  0.3065 -0.7993 -0.0742
19811TIP3   OH280847   5.890   0.224   1.222 -0.3046  0.2535 -0.0198
19811TIP3    H180848   5.901   0.129   1.225 -0.1451  0.2947  1.2227
19811TIP3    H280849   5.970   0.257   1.183 -0.1588 -0.0941 -0.0169
19812TIP3   OH280850   4.606   0.425   5.410 -0.3200 -0.7706 -0.2784
19812TIP3    H180851   4.518   0.441   5.443  0.6727 -0.4215  2.4391
19812TIP3    H280852   4.638   0.351   5.462  1.3903 -0.1579 -0.4083
19813TIP3   OH280853   2.937   2.185  12.085 -0.1684  0.0054 -0.0828
19813TIP3    H180854   2.996   2.149  12.020 -0.6182 -2.5918  0.8555
19813TIP3    H280855   2.953   2.134  12.164 -3.0090 -0.2368  0.4504
19814TIP3   OH280856   0.854   3.837  14.044  0.3485  0.3224  0.3081
19814TIP3    H180857   0.848   3.920  13.997 -0.2011  0.6042  0.8581
19814TIP3    H280858   0.875   3.862  14.134 -1.1083 -0.0284  0.7785
19815TIP3   OH280859   4.645   0.278  12.502 -0.4899 -0.1467 -0.2183
19815TIP3    H180860   4.669   0.234  12.421  1.4331  0.4346 -0.0050
19815TIP3    H280861   4.665   0.215  12.571 -1.0023 -0.1970 -0.1088
19816TIP3   OH280862   6.058   2.838  15.911 -0.0874 -0.0124 -0.1825
19816TIP3    H180863   6.039   2.887  15.831 -1.3739 -0.3126 -0.0820
19816TIP3    H280864   6.008   2.757  15.901  0.7773 -0.6287  0.3560
19817TIP3   OH280865   0.933   0.950   1.808 -0.1162  0.1452 -1.4007
19817TIP3    H180866   1.022   0.917   1.824 -0.0095 -0.2150 -2.5970
19817TIP3    H280867   0.876   0.890   1.855  0.1219 -1.4181 -3.0017
19818TIP3   OH280868   3.308   6.199  15.340 -0.2421  0.8889  0.4905
19818TIP3    H180869   3.285   6.114  15.378 -1.1641  2.0545  2.7395
19818TIP3    H280870   3.385   6.227  15.390  0.2806  1.2252 -0.4925
19819TIP3   OH280871   3.345   1.941  13.243  0.0837 -0.2380 -0.6045
19819TIP3    H180872   3.330   1.850  13.268  0.7447 -0.5332 -1.2669
19819TIP3    H280873   3.417   1.970  13.300 -1.2483  0.4338  0.8440
19820TIP3   OH280874   0.129   5.022   5.298 -0.2608 -0.4363  0.0670
19820TIP3    H180875   0.107   5.087   5.364 -1.8807 -1.1271  0.2542
19820TIP3    H280876   0.214   4.987   5.326 -0.0928  0.5082  0.7904
19821TIP3   OH280877   5.867   5.657  12.009 -0.4965 -0.1193 -0.3938
19821TIP3    H180878   5.922   5.583  11.985  0.3875  0.8297 -1.4357
19821TIP3    H280879   5.792   5.618  12.053 -0.1212 -1.6327 -1.0276
19822TIP3   OH280880   4.088   1.734  15.624 -0.2375  0.1046 -0.1885
19822TIP3    H180881   4.063   1.771  15.709 -0.8833  0.0218 -0.3355
19822TIP3    H280882   4.151   1.796  15.588 -1.0669  0.9001 -0.2943
19823TIP3   OH280883   3.488   0.818  16.424 -0.2924 -0.2726 -0.3923
19823TIP3    H180884   3.441   0.738  16.400  0.0667 -0.3249 -0.9490
19823TIP3    H280885   3.551   0.790  16.491 -0.3277 -0.4137 -0.4176
19824TIP3   OH280886   5.998   5.419   6.242  0.1603 -0.1645 -0.3738
19824TIP3    H180887   6.026   5.427   6.333 -0.2691 -0.4009 -0.2125
19824TIP3    H280888   5.918   5.366   6.247 -1.4001  2.0159 -0.5962
19825TIP3   OH280889   2.643   6.347  12.973  0.2249  0.1574 -0.2376
19825TIP3    H180890   2.726   6.390  12.952  0.4989  0.4675  1.3214
19825TIP3    H280891   2.649   6.261  12.931  1.9683 -0.3779  0.9776
19826TIP3   OH280892   4.668   3.205  12.702 -0.2338  0.2795 -0.4143
19826TIP3    H180893   4.635   3.245  12.622 -2.0337 -0.1627  0.0639
19826TIP3    H280894   4.682   3.113  12.678 -0.0349  0.3129 -0.4260
19827TIP3   OH280895   2.240   5.533   2.676 -0.0320  0.0111 -0.6646
19827TIP3    H180896   2.250   5.521   2.581 -1.5350 -2.6058 -0.5974
19827TIP3    H280897   2.221   5.445   2.709  0.4221  0.8543  2.0931
19828TIP3   OH280898   4.481   2.092  15.013  0.5904 -1.0125 -0.3011
19828TIP3    H180899   4.388   2.079  15.033 -0.0492 -0.9865 -2.9384
19828TIP3    H280900   4.523   2.010  15.040  0.2612 -0.2617  2.8776
19829TIP3   OH280901   1.854   4.644  17.003  0.1440 -0.2786 -0.7561
19829TIP3    H180902   1.938   4.678  16.973 -0.4174  1.5380 -0.4194
19829TIP3    H280903   1.817   4.600  16.927  0.8055  0.1021 -1.3162
19830TIP3   OH280904   4.894   2.700  16.004 -0.0082 -0.0052 -0.0632
19830TIP3    H180905   4.943   2.633  15.958  0.6378 -0.0832  0.7079
19830TIP3    H280906   4.925   2.783  15.967  0.5255 -0.0657  0.2402
19831TIP3   OH280907   0.985   2.395   4.122  0.5069 -0.4052 -0.2484
19831TIP3    H180908   1.017   2.481   4.150 -0.6572 -0.1484  0.3571
19831TIP3    H280909   0.926   2.367   4.193 -1.0656 -0.5772 -1.5746
19832TIP3   OH280910   0.024   4.611   1.982 -0.7439  0.0424  0.0240
19832TIP3    H180911   0.039   4.675   2.051  0.6059  2.1262 -2.0490
19832TIP3    H280912   0.110   4.574   1.964 -0.6209  1.0899 -1.8708
19833TIP3   OH280913   3.632   5.084  13.994 -0.2450 -0.0854 -0.1664
19833TIP3    H180914   3.645   4.994  14.025  4.1644 -0.2634 -1.8522
19833TIP3    H280915   3.691   5.136  14.048 -0.2766  1.2366 -1.3618
19834TIP3   OH280916   6.447   2.075  14.465  0.1204 -0.0888  0.3451
19834TIP3    H180917   6.409   2.051  14.550  0.2929 -0.9874  0.1807
19834TIP3    H280918   6.468   2.168  14.473  0.9696 -0.3628  1.6197
19835TIP3   OH280919   0.753   0.663   2.546  0.1108  0.0959  0.1944
19835TIP3    H180920   0.684   0.673   2.612  0.9743  1.6334  0.8994
19835TIP3    H280921   0.746   0.742   2.492 -0.3557 -0.9643 -1.4005
19836TIP3   OH280922   3.580   2.817  13.209  0.3630  0.0734 -0.0199
19836TIP3    H180923   3.586   2.805  13.303  1.5312  1.2998  0.0874
19836TIP3    H280924   3.658   2.867  13.186 -1.3678  2.4452 -1.1729
19837TIP3   OH280925   2.990   6.732   4.502  0.3887  0.1125  0.3471
19837TIP3    H180926   3.038   6.814   4.510  0.5321  0.4186 -2.4908
19837TIP3    H280927   3.053   6.671   4.464 -0.3307 -0.6814  0.4006
19838TIP3   OH280928   3.588   1.849   3.480 -0.0438 -0.3057  0.2320
19838TIP3    H180929   3.523   1.906   3.520  1.2087  0.2118  1.6463
19838TIP3    H280930   3.600   1.883   3.391 -0.8080  0.3321  0.3709
19839TIP3   OH280931   5.561   5.924   4.812 -0.0415  0.0217  0.7680
19839TIP3    H180932   5.587   5.834   4.830 -0.2151 -0.5000 -1.2568
19839TIP3    H280933   5.642   5.974   4.816 -0.1306  0.0657  3.2057
19840TIP3   OH280934   0.982   1.307   5.598 -0.5708 -0.5076 -0.0679
19840TIP3    H180935   0.998   1.230   5.651 -1.6214 -0.1295  0.8304
19840TIP3    H280936   0.889   1.325   5.609 -0.3465  0.8879 -0.2461
19841TIP3   OH280937   3.644   0.220  12.495 -0.4075 -0.3807 -0.0362
19841TIP3    H180938   3.605   0.306  12.483 -1.4687 -1.1323 -2.3772
19841TIP3    H280939   3.578   0.158  12.465  0.5652 -2.0220  1.0080
19842TIP3   OH280940   1.300   2.244   1.023  0.2380 -0.1943 -0.1013
19842TIP3    H180941   1.250   2.326   1.031  1.1034  0.3514 -0.1188
19842TIP3    H280942   1.381   2.270   0.979  0.9851 -0.8688  0.8306
19843TIP3   OH280943   5.456   0.987   1.617 -0.3064  0.5390 -0.0299
19843TIP3    H180944   5.422   0.898   1.617  2.0807 -0.4776 -1.6891
19843TIP3    H280945   5.550   0.977   1.630 -0.0761  2.9207  0.7319
19844TIP3   OH280946   6.346   4.283  15.877 -0.0581 -0.1144 -0.2898
19844TIP3    H180947   6.328   4.337  15.954 -0.5847 -2.0694  1.0425
19844TIP3    H280948   6.430   4.315  15.844 -0.4244  1.5945  0.3132
19845TIP3   OH280949   6.743   1.824  16.223  0.0338 -0.0825  0.2570
19845TIP3    H180950   6.810   1.891  16.234  0.1061 -0.3198  1.3573
19845TIP3    H280951   6.773   1.772  16.148  0.8180  0.1078  0.4332
19846TIP3   OH280952   5.112   3.597   2.304  0.0924  0.2383 -0.5441
19846TIP3    H180953   5.159   3.646   2.371  2.7572 -1.9837 -0.6099
19846TIP3    H280954   5.101   3.509   2.340  1.1870 -0.8985 -2.7476
19847TIP3   OH280955   2.181   4.660   5.600  0.1750 -0.3603  0.0169
19847TIP3    H180956   2.202   4.577   5.557  0.3817  0.2804 -1.1541
19847TIP3    H280957   2.262   4.711   5.596 -0.6907  0.9642 -1.8246
19848TIP3   OH280958   0.537   5.316  13.252  0.4147  0.4055  0.0007
19848TIP3    H180959   0.575   5.373  13.185 -2.5761  3.6075  0.7360
19848TIP3    H280960   0.445   5.307  13.226 -0.4635  0.4851  2.8370
19849TIP3   OH280961   5.975   1.881   4.243 -0.2496  0.4834 -0.0092
19849TIP3    H180962   5.923   1.953   4.278  0.0989  1.3280 -1.1911
19849TIP3    H280963   5.923   1.846   4.170 -0.6262 -0.7789  0.8245
19850TIP3   OH280964   6.140   1.620  15.016  0.3815 -0.5840  0.4456
19850TIP3    H180965   6.220   1.664  14.990 -0.6391  1.7550  0.9970
19850TIP3    H280966   6.106   1.581  14.935  0.2840  1.4617 -0.5573
19851TIP3   OH280967   6.443   2.897   2.786 -0.1684 -0.1856 -0.4938
19851TIP3    H180968   6.435   2.984   2.825  1.1743 -0.8572  1.4228
19851TIP3    H280969   6.537   2.886   2.771 -0.3597 -1.1903 -1.0319
19852TIP3   OH280970   4.670   2.115   1.781 -0.1737  0.3670 -0.3327
19852TIP3    H180971   4.677   2.195   1.835 -3.5319  1.1268 -0.7987
19852TIP3    H280972   4.577   2.093   1.784  0.6070 -3.4769 -0.4383
19853TIP3   OH280973   0.717   2.168  13.560  0.6284 -0.4011  0.5889
19853TIP3    H180974   0.720   2.255  13.521 -1.8547 -0.9249 -0.9953
19853TIP3    H280975   0.738   2.108  13.488  0.3693 -1.2076  1.1652
19854TIP3   OH280976   5.027   3.016   5.305 -0.1812 -0.3371  0.1984
19854TIP3    H180977   4.942   3.050   5.333  0.0707  1.1930 -0.8025
19854TIP3    H280978   5.086   3.034   5.379 -0.1698  1.0007 -0.1087
19855TIP3   OH280979   5.402   2.318  15.853 -0.4347 -0.1390 -0.0021
19855TIP3    H180980   5.407   2.232  15.895 -2.1003 -0.5926 -0.6440
19855TIP3    H280981   5.421   2.380  15.923 -1.3658 -0.9560  1.0244
19856TIP3   OH280982   5.608   1.698   5.553  0.6930 -0.6300  0.3999
19856TIP3    H180983   5.589   1.641   5.478 -0.4099 -1.0617  0.9952
19856TIP3    H280984   5.657   1.771   5.515 -1.1058 -0.0893 -1.0207
19857TIP3   OH280985   4.303   6.094   1.627 -0.0144  0.2145  0.2165
19857TIP3    H180986   4.212   6.114   1.649  0.6026  1.4513  1.8801
19857TIP3    H280987   4.318   6.007   1.663 -0.7330 -0.3223 -0.7393
19858TIP3   OH280988   3.545   6.574   3.726  0.0369 -0.4128  0.9630
19858TIP3    H180989   3.616   6.516   3.699  0.5797 -0.1628  1.8130
19858TIP3    H280990   3.547   6.571   3.821  0.2353  1.1868  1.0262
19859TIP3   OH280991   3.743   4.399  12.284 -0.0991  0.3898  0.4248
19859TIP3    H180992   3.837   4.413  12.287  0.2634 -1.3782 -1.2310
19859TIP3    H280993   3.718   4.384  12.375  1.6779 -1.7165  0.6395
19860TIP3   OH280994   6.465   5.030   5.262  0.0117 -0.2831  0.0962
19860TIP3    H180995   6.422   5.000   5.182  0.2320  2.0181 -0.9850
19860TIP3    H280996   6.408   5.100   5.295  0.9858  0.2353  0.7417
19861TIP3   OH280997   3.869   5.922   1.708  0.1816  0.5431 -0.3146
19861TIP3    H180998   3.872   5.828   1.690  0.8348  0.6189 -0.6452
19861TIP3    H280999   3.789   5.953   1.665 -0.0797  0.1289 -0.1327
19862TIP3   OH281000   4.088   6.696  17.184 -0.0945  0.5434  0.0543
19862TIP3    H181001   4.167   6.682  17.236 -1.8645  0.9432  3.0881
19862TIP3    H281002   4.049   6.609  17.176 -1.1083  0.8356  1.6561
19863TIP3   OH281003   1.329   3.607   0.347  0.0108 -0.7882  0.4699
19863TIP3    H181004   1.326   3.688   0.398 -0.4644  1.4410 -2.7917
19863TIP3    H281005   1.421   3.580   0.352  0.6466  1.0992  0.1008
19864TIP3   OH281006   1.971   4.411  15.320  0.2484 -0.3427 -0.7066
19864TIP3    H181007   1.966   4.374  15.232 -0.5829 -0.0798 -0.7834
19864TIP3    H281008   1.881   4.440  15.339  0.6399  0.6152 -0.2182
19865TIP3   OH281009   1.877   1.798  17.010 -0.2768 -0.2150 -0.0800
19865TIP3    H181010   1.815   1.733  17.040  0.2555 -1.2904 -1.2241
19865TIP3    H281011   1.865   1.872  17.070  0.8809 -2.2602  2.9475
19866TIP3   OH281012   0.136   3.563   0.874  0.3102 -0.0237  0.3863
19866TIP3    H181013   0.123   3.483   0.926 -0.0187  1.3943  2.6124
19866TIP3    H281014   0.066   3.561   0.809  2.2261 -3.1410 -1.8866
19867TIP3   OH281015   5.888   5.169   0.414 -0.5511 -0.6936  0.1505
19867TIP3    H181016   5.914   5.226   0.486  1.3380  0.1240 -1.1145
19867TIP3    H281017   5.863   5.086   0.456 -0.9399  0.2308  1.8173
19868TIP3   OH281018   5.271   0.843   4.982 -0.0108  0.2832 -0.1766
19868TIP3    H181019   5.358   0.826   5.017  0.4597  0.4074 -1.2752
19868TIP3    H281020   5.256   0.936   5.001 -0.8454 -0.2239  1.9960
19869TIP3   OH281021   3.094   4.190   2.013  0.0375 -0.0934 -0.1966
19869TIP3    H181022   3.157   4.128   1.977  0.2821  0.1053 -0.1171
19869TIP3    H281023   3.092   4.262   1.949  1.0490  0.6242  0.5329
19870TIP3   OH281024   6.369   5.523  12.319  0.2009  0.1042  0.6476
19870TIP3    H181025   6.367   5.441  12.369  1.6344 -0.5034 -0.2372
19870TIP3    H281026   6.339   5.589  12.381 -2.3839 -1.2440  0.9870
19871TIP3   OH281027   2.416   4.771   2.364  0.0216  0.9154  0.0411
19871TIP3    H181028   2.432   4.810   2.278  1.1050  0.9895  0.2592
19871TIP3    H281029   2.398   4.845   2.421 -0.3302  0.8945 -0.0381
19872TIP3   OH281030   5.679   5.774  14.011  0.0493 -0.2181  0.1401
19872TIP3    H181031   5.647   5.700  14.061  0.4636 -0.7239 -0.3294
19872TIP3    H281032   5.600   5.821  13.984 -0.3222 -1.4310 -0.9830
19873TIP3   OH281033   4.542   1.207  12.072 -0.0539 -0.3455 -0.4280
19873TIP3    H181034   4.599   1.170  12.004 -0.3225 -0.0037 -0.8454
19873TIP3    H281035   4.460   1.227  12.026  0.6297  2.3950 -0.6524
19874TIP3   OH281036   5.217   2.017  15.349 -0.5579  0.1439  0.1271
19874TIP3    H181037   5.284   2.085  15.356  0.9533 -1.2838 -0.0606
19874TIP3    H281038   5.200   1.991  15.440  0.2839 -0.5494  0.0970
19875TIP3   OH281039   0.027   2.285   4.897  0.2861 -0.2350  0.0955
19875TIP3    H181040   0.025   2.238   4.980  1.0172 -0.4350  0.0016
19875TIP3    H281041  -0.062   2.276   4.863  0.4643 -1.7739 -0.0422
19876TIP3   OH281042   6.477   5.611  11.447  0.3376 -0.4081 -0.0164
19876TIP3    H181043   6.568   5.640  11.449 -0.1917  1.4846 -0.8172
19876TIP3    H281044   6.435   5.663  11.516 -0.2228 -0.9155  0.0230
19877TIP3   OH281045   6.777   4.220  12.359  0.2392 -0.1905 -0.6558
19877TIP3    H181046   6.861   4.187  12.392  0.5650  1.2915  0.0896
19877TIP3    H281047   6.798   4.257  12.273  0.1460 -0.6439 -0.8797
19878TIP3   OH281048   2.392   2.768   4.279  0.0792  0.0049  0.3632
19878TIP3    H181049   2.340   2.722   4.344 -0.1038 -1.8052 -1.0117
19878TIP3    H281050   2.328   2.814   4.224  0.2471  1.7827  1.5613
19879TIP3   OH281051   4.886   0.544   5.016 -0.0324 -0.2603  0.5051
19879TIP3    H181052   4.803   0.530   5.062  0.2986 -1.6987  0.6846
19879TIP3    H281053   4.922   0.623   5.057 -1.0292  0.0451  0.8288
19880TIP3   OH281054   0.141   0.187   4.062 -0.2842 -0.7127 -0.2353
19880TIP3    H181055   0.173   0.204   3.973 -0.2198  1.0002  0.0779
19880TIP3    H281056   0.193   0.112   4.092  2.4718  0.9935 -0.3241
19881TIP3   OH281057   3.502   1.001  14.157  0.6393  0.3348 -0.2483
19881TIP3    H181058   3.507   1.030  14.066 -0.3866  0.5028 -0.2611
19881TIP3    H281059   3.431   1.053  14.195 -1.1136 -1.9851 -0.1926
19882TIP3   OH281060   6.611   0.818  13.713  0.4128  0.6770  0.3897
19882TIP3    H181061   6.572   0.837  13.798  1.2588  0.2122  0.8908
19882TIP3    H281062   6.631   0.904  13.676 -0.3234  0.8935  0.4733
19883TIP3   OH281063   0.603   1.130  17.130 -0.1299  0.2082  0.1395
19883TIP3    H181064   0.693   1.101  17.139  0.2463  1.5864  1.0939
19883TIP3    H281065   0.558   1.096  17.207 -0.6226 -1.0835 -0.6890
19884TIP3   OH281066   5.008   5.470   1.966  0.4228 -0.6570  0.5892
19884TIP3    H181067   5.057   5.545   2.000  0.3929 -0.6097  0.5278
19884TIP3    H281068   5.068   5.428   1.904 -1.4067  2.6238 -4.0027
19885TIP3   OH281069   5.823   0.781  11.878 -0.1901 -0.1540  0.6061
19885TIP3    H181070   5.846   0.825  11.797 -0.8198  3.2458  2.1105
19885TIP3    H281071   5.741   0.822  11.906  0.1264 -0.9973  3.0461
19886TIP3   OH281072   5.617   0.828  16.622 -0.1354 -0.7109 -0.0456
19886TIP3    H181073   5.675   0.859  16.552 -2.1393 -0.5879 -1.7234
19886TIP3    H281074   5.676   0.813  16.696  1.8587  0.6013 -1.2623
19887TIP3   OH281075   2.759   1.017  11.947 -0.0556  0.3321  0.2771
19887TIP3    H181076   2.677   0.981  11.913 -0.8343  2.2795 -0.0096
19887TIP3    H281077   2.732   1.089  12.004  1.4619  1.0264  0.1615
19888TIP3   OH281078   4.512   5.075  12.927  0.1748  0.3787 -0.2802
19888TIP3    H181079   4.538   5.141  12.863  2.8281  0.6556  0.9635
19888TIP3    H281080   4.466   5.124  12.995  0.5003  0.6554 -0.2566
19889TIP3   OH281081   4.142   4.170  10.778 -0.1573  0.1831 -0.1042
19889TIP3    H181082   4.223   4.127  10.751  1.0269  0.5091  2.6006
19889TIP3    H281083   4.120   4.229  10.706  1.3261 -0.7766 -1.4005
19890TIP3   OH281084   0.157   4.203   5.619  0.3246 -0.2407 -0.2368
19890TIP3    H181085   0.198   4.126   5.659  1.7230 -0.3280 -1.7463
19890TIP3    H281086   0.065   4.180   5.612  0.2979 -0.8185  1.4778
19891TIP3   OH281087   1.207   0.930   3.638  0.3327  0.4318  0.2504
19891TIP3    H181088   1.157   1.011   3.628  1.1013  0.9610  0.5553
19891TIP3    H281089   1.159   0.880   3.705 -0.3952  0.4221 -0.2658
19892TIP3   OH281090   6.337   0.657   4.172  0.2138  0.6222  0.2167
19892TIP3    H181091   6.288   0.735   4.199  2.8439  2.9293 -1.1121
19892TIP3    H281092   6.389   0.634   4.248  0.1218  0.7472  0.3181
19893TIP3   OH281093   2.586   2.819   3.057  0.0796  0.0921 -0.1796
19893TIP3    H181094   2.492   2.833   3.064  0.2433  1.8495 -0.8391
19893TIP3    H281095   2.618   2.894   3.007  1.9322 -0.0375  0.6962
19894TIP3   OH281096   4.920   3.623  11.456 -0.0150  0.3852 -0.1720
19894TIP3    H181097   4.938   3.654  11.367 -1.2966 -0.6827 -0.8394
19894TIP3    H281098   5.007   3.615  11.496  0.5176  2.2403 -0.8203
19895TIP3   OH281099   5.728   0.371   3.136 -0.5915 -0.0818  0.1268
19895TIP3    H181100   5.795   0.325   3.086 -2.3043 -2.0790 -0.4760
19895TIP3    H281101   5.773   0.447   3.173  1.9888 -1.3793 -0.1607
19896TIP3   OH281102   2.937   3.949   1.337  0.8849  0.9421 -0.5974
19896TIP3    H181103   3.005   3.887   1.310  1.4726 -0.4092  3.3758
19896TIP3    H281104   2.984   4.028   1.361  0.7735  0.9121 -0.2790
19897TIP3   OH281105   3.954   5.466   3.801 -0.1949 -0.7453  0.1857
19897TIP3    H181106   3.972   5.378   3.833 -0.0748 -1.2326 -1.1346
19897TIP3    H281107   3.869   5.457   3.756  0.3480 -0.4764 -0.9291
19898TIP3   OH281108   4.072   1.821  16.781 -0.6606  0.1687 -0.2432
19898TIP3    H181109   4.104   1.784  16.699 -2.3225  0.2439 -0.9606
19898TIP3    H281110   4.150   1.828  16.836  0.2944 -0.9527 -1.3971
19899TIP3   OH281111   4.529   5.273  16.565 -0.3139  0.2175 -0.2063
19899TIP3    H181112   4.492   5.269  16.653 -0.8119  0.3742 -0.4021
19899TIP3    H281113   4.581   5.193  16.557 -0.5351  0.0417  0.1125
19900TIP3   OH281114   5.860   2.424   2.645  1.1868  0.1825 -0.4295
19900TIP3    H181115   5.816   2.365   2.584  2.0956 -0.9836  0.0026
19900TIP3    H281116   5.835   2.392   2.732 -1.4219  2.7996 -0.0356
19901TIP3   OH281117   6.735   0.783   2.344 -0.0643 -0.2443  0.1166
19901TIP3    H181118   6.641   0.781   2.362 -0.3177  2.5893 -0.3957
19901TIP3    H281119   6.744   0.747   2.256 -0.9785  1.1879 -0.6048
19902TIP3   OH281120   5.428   4.607  14.950  0.1578  0.0567 -0.5072
19902TIP3    H181121   5.379   4.531  14.982  0.0745  0.5000  0.4383
19902TIP3    H281122   5.472   4.641  15.028  0.2869  0.9144 -0.9502
19903TIP3   OH281123   0.441   1.467  16.186  0.2320 -0.0149 -0.7100
19903TIP3    H181124   0.397   1.398  16.137 -0.3192  0.6286 -1.1486
19903TIP3    H281125   0.383   1.485  16.260  1.2447 -1.2493  0.4460
19904TIP3   OH281126   0.714   2.332   1.818  0.1228  0.5635 -0.2701
19904TIP3    H181127   0.712   2.400   1.751  0.9997  2.4315  1.4687
19904TIP3    H281128   0.670   2.257   1.778 -0.6794  2.0553 -2.3708
19905TIP3   OH281129   5.135   1.997  15.648  0.3600 -0.4651 -0.2239
19905TIP3    H181130   5.055   1.945  15.655 -0.0277  0.2346  0.7355
19905TIP3    H281131   5.111   2.083  15.682  1.5675 -0.3053  0.2715
19906TIP3   OH281132   4.337   1.635   5.177 -0.5202 -0.2367 -0.0434
19906TIP3    H181133   4.327   1.579   5.100 -3.1046 -2.1755  1.5217
19906TIP3    H281134   4.250   1.673   5.191 -0.4366 -0.7097  2.3572
19907TIP3   OH281135   0.231   6.493  10.964 -0.0374  0.2065 -0.4969
19907TIP3    H181136   0.139   6.508  10.986 -0.5037  0.2936 -2.3313
19907TIP3    H281137   0.244   6.399  10.979 -1.0239 -0.2290 -2.0858
19908TIP3   OH281138   1.953   5.823   1.279 -0.1862 -0.2656 -0.2181
19908TIP3    H181139   2.001   5.745   1.307  0.5905  0.3812  0.3000
19908TIP3    H281140   1.953   5.819   1.183 -0.0742 -0.8436 -0.1960
19909TIP3   OH281141   0.490   3.564   3.230  0.5085 -0.3646  0.4740
19909TIP3    H181142   0.427   3.491   3.232  0.7477 -0.7236 -2.0702
19909TIP3    H281143   0.436   3.641   3.212  0.7683 -0.8798 -3.3250
19910TIP3   OH281144   2.780   0.905   4.334  0.0672 -0.1346  0.0624
19910TIP3    H181145   2.762   0.821   4.293  0.2573 -0.6737  1.0582
19910TIP3    H281146   2.715   0.913   4.403 -0.6960  1.0884 -0.7548
19911TIP3   OH281147   0.473   0.267   3.321 -0.7628 -0.1193 -0.5979
19911TIP3    H181148   0.551   0.265   3.266  0.1875 -0.5777  0.7412
19911TIP3    H281149   0.492   0.334   3.387 -1.6329 -0.0285 -0.4298
19912TIP3   OH281150   5.773   5.648  16.628  0.0853  0.0208 -0.0855
19912TIP3    H181151   5.809   5.596  16.700  0.3283  1.1641  0.6435
19912TIP3    H281152   5.812   5.734  16.639 -0.7348  0.5198 -0.9427
19913TIP3   OH281153   3.543   0.584  15.033  0.0906 -0.4862  0.0412
19913TIP3    H181154   3.581   0.548  14.952 -1.1049 -0.7968 -0.4119
19913TIP3    H281155   3.531   0.507  15.089 -0.2296 -0.4495  0.0236
19914TIP3   OH281156   4.007   2.993  15.691  0.1677  0.1073  0.2216
19914TIP3    H181157   4.040   3.082  15.680  2.1675 -0.4476  1.1910
19914TIP3    H281158   3.922   3.002  15.734  0.0602  1.5455 -0.2663
19915TIP3   OH281159   6.526   0.645   6.654  0.0419  0.1873 -0.1960
19915TIP3    H181160   6.484   0.663   6.570 -4.0170 -1.3449  1.2484
19915TIP3    H281161   6.496   0.715   6.712  3.5597  1.7779 -0.0642
19916TIP3   OH281162   6.298   1.436  15.133  0.0284  0.0304  0.1162
19916TIP3    H181163   6.234   1.507  15.127  1.5965  1.5371  0.3600
19916TIP3    H281164   6.254   1.361  15.092 -1.8853  0.9666  0.3073
19917TIP3   OH281165   5.122   0.204   5.265 -0.7077 -0.0550  0.1965
19917TIP3    H181166   5.143   0.188   5.173 -0.2579 -0.3781  0.3463
19917TIP3    H281167   5.143   0.296   5.279  0.0702 -0.2192  0.1866
19918TIP3   OH281168   5.481   2.432  12.350 -0.3232 -0.0881  0.7003
19918TIP3    H181169   5.501   2.526  12.350 -1.4254  0.1647  0.3632
19918TIP3    H281170   5.458   2.412  12.441  1.5649 -0.4314  1.1390
19919TIP3   OH281171   3.821   6.531  16.198 -0.5039  0.2383  0.1473
19919TIP3    H181172   3.783   6.599  16.253  0.5274  1.5468 -0.6855
19919TIP3    H281173   3.866   6.579  16.128  0.5624 -1.2834 -0.2749
19920TIP3   OH281174   4.957   6.664  13.704 -0.0455 -0.3946  0.1982
19920TIP3    H181175   5.038   6.613  13.705  0.5601  0.3635 -2.1082
19920TIP3    H281176   4.964   6.722  13.780  1.7269 -0.1988 -0.0627
19921TIP3   OH281177   6.029   1.357  13.791  0.7264  0.3434 -0.5647
19921TIP3    H181178   6.036   1.268  13.757 -1.2260  0.5258 -1.6424
19921TIP3    H281179   5.947   1.390  13.753  0.7085  2.1270  0.8969
19922TIP3   OH281180   1.050   0.290   4.916  0.7157  0.0934  0.0960
19922TIP3    H181181   1.139   0.323   4.928  1.3185 -0.0794 -3.0146
19922TIP3    H281182   1.000   0.366   4.887  0.5895 -0.3985 -1.0144
19923TIP3   OH281183   2.093   1.517   3.145  0.2300 -0.5096 -0.2231
19923TIP3    H181184   2.125   1.429   3.165  2.5911  0.1992 -0.6215
19923TIP3    H281185   2.123   1.534   3.056  2.7444  1.8476  0.9079
19924TIP3   OH281186   2.431   1.041   3.569 -0.3221 -0.0515  0.1047
19924TIP3    H181187   2.517   1.051   3.610 -0.2963 -0.6396  0.2042
19924TIP3    H281188   2.373   1.016   3.641 -0.8210  1.4034  0.2526
19925TIP3   OH281189   1.876   4.397   1.320 -0.3189  0.6566  0.1084
19925TIP3    H181190   1.838   4.410   1.233  1.6502  2.3896 -0.5936
19925TIP3    H281191   1.836   4.316   1.353 -0.8483 -0.2425 -2.5396
19926TIP3   OH281192   6.158   2.892   3.769 -0.4015 -0.3914 -0.6021
19926TIP3    H181193   6.070   2.870   3.740 -0.5625  1.2739 -1.4761
19926TIP3    H281194   6.147   2.927   3.857 -1.1656  3.0238 -1.8942
19927TIP3   OH281195   2.630   1.849   3.377  0.1508  0.2559  0.5258
19927TIP3    H181196   2.695   1.812   3.317  1.3807  2.1173  0.6503
19927TIP3    H281197   2.560   1.880   3.320 -0.1387 -0.7617  0.3083
19928TIP3   OH281198   1.967   5.421  12.721  0.1614  0.2475 -0.1501
19928TIP3    H181199   1.914   5.373  12.785  0.2925  0.7870  0.3820
19928TIP3    H281200   1.929   5.509  12.720 -0.3346  0.0381 -1.4156
19929TIP3   OH281201   3.632   4.497  12.033  0.1305 -0.5041 -0.2350
19929TIP3    H181202   3.649   4.410  12.070 -2.1304  0.1621  2.8505
19929TIP3    H281203   3.709   4.549  12.056  0.8611 -1.3092 -0.8125
19930TIP3   OH281204   2.098   1.131   2.128 -0.2145 -0.4277  0.6375
19930TIP3    H181205   2.054   1.047   2.142 -0.7983 -0.1189  0.6951
19930TIP3    H281206   2.155   1.115   2.053 -1.6815 -0.3945 -0.5558
19931TIP3   OH281207   1.320   0.666  16.316 -0.1387  0.0774 -0.2796
19931TIP3    H181208   1.395   0.725  16.315 -0.0937  0.0491  0.6331
19931TIP3    H281209   1.340   0.600  16.249 -1.0705  2.1247 -2.7416
19932TIP3   OH281210   1.623   6.581   3.636 -0.5878  0.5844 -0.2160
19932TIP3    H181211   1.672   6.662   3.620 -1.2904  1.3681  1.3865
19932TIP3    H281212   1.559   6.578   3.565  1.0698  0.0659 -1.7598
19933TIP3   OH281213   0.926   6.281   3.836  0.0263  0.1004  0.0569
19933TIP3    H181214   0.833   6.257   3.828 -0.1874  0.7215  0.5459
19933TIP3    H281215   0.927   6.350   3.903  0.9146 -0.3256  0.5078
19934TIP3   OH281216   5.393   6.535   4.785  0.0369 -0.5613 -0.0779
19934TIP3    H181217   5.453   6.487   4.727 -0.0026 -2.3588  1.2894
19934TIP3    H281218   5.430   6.624   4.790  2.2465 -1.4391  0.2198
19935TIP3   OH281219   6.318   2.426  11.786 -0.0141 -0.4265  0.0682
19935TIP3    H181220   6.300   2.446  11.694  0.2810  1.1203  0.3273
19935TIP3    H281221   6.299   2.507  11.833  3.1872 -0.0560  0.9429
19936TIP3   OH281222   1.094   5.126   1.126  0.0537  0.2395 -0.2245
19936TIP3    H181223   1.042   5.184   1.071 -0.2185  1.2596  1.0592
19936TIP3    H281224   1.120   5.180   1.201 -0.0641 -1.2353  0.9358
19937TIP3   OH281225   6.201   3.288  11.093  0.5451  0.2187  0.1430
19937TIP3    H181226   6.123   3.341  11.076  0.4942  0.6468  1.5914
19937TIP3    H281227   6.252   3.294  11.012 -0.5585  0.5570 -0.5513
19938TIP3   OH281228   4.670   1.349  12.563 -0.0104  0.2526  0.0046
19938TIP3    H181229   4.599   1.369  12.625  0.2947  0.8516  0.1706
19938TIP3    H281230   4.750   1.365  12.613  0.2500 -0.6256 -0.1154
19939TIP3   OH281231   4.887   4.930   1.536  0.4591  0.0987 -0.0921
19939TIP3    H181232   4.875   5.023   1.555  1.1412  0.1266  0.2410
19939TIP3    H281233   4.832   4.884   1.599 -0.8357  0.2957 -1.0455
19940TIP3   OH281234   1.851   4.143   0.698  0.3275 -0.3740  0.0208
19940TIP3    H181235   1.903   4.223   0.710  0.1458  0.1003 -1.9452
19940TIP3    H281236   1.789   4.143   0.771  2.1377 -0.2109  1.6202
19941TIP3   OH281237   2.884   2.731  15.259  0.5131 -0.0242 -0.7068
19941TIP3    H181238   2.973   2.703  15.281  0.1279  0.4650  1.6941
19941TIP3    H281239   2.894   2.824  15.236  0.5084  0.2694  0.4541
19942TIP3   OH281240   5.170   1.902  16.546 -0.0114  0.1827 -0.4357
19942TIP3    H181241   5.186   1.917  16.453 -2.6931  0.2973 -0.9386
19942TIP3    H281242   5.122   1.979  16.576 -1.2654 -0.8852  0.4387
19943TIP3   OH281243   2.353   5.814   4.988  0.1908  0.1377 -0.4593
19943TIP3    H181244   2.262   5.803   4.961 -0.7926  3.5948  0.8966
19943TIP3    H281245   2.365   5.749   5.058 -2.6380  2.1307  2.1305
19944TIP3   OH281246   4.191   6.722   5.799  0.2111 -0.0045 -0.2346
19944TIP3    H181247   4.145   6.758   5.723 -2.1691  0.5698  1.3686
19944TIP3    H281248   4.136   6.649   5.827  2.1561 -1.5354 -0.2435
19945TIP3   OH281249   6.185   5.725  12.456 -0.5664  0.3563 -0.0205
19945TIP3    H181250   6.206   5.786  12.527 -1.0542  2.0584 -1.2610
19945TIP3    H281251   6.210   5.772  12.376 -0.5041 -1.2892 -1.0272
19946TIP3   OH281252   0.685   1.779   0.189  0.3777 -0.0260 -0.0510
19946TIP3    H181253   0.761   1.725   0.207 -0.0723 -0.6157  0.1275
19946TIP3    H281254   0.710   1.834   0.116  0.3873 -1.4438 -1.1519
19947TIP3   OH281255   5.627   5.765  14.523 -0.9191  0.1128  0.2840
19947TIP3    H181256   5.557   5.820  14.489  0.1755 -0.1133 -2.5734
19947TIP3    H281257   5.595   5.676  14.512 -0.3000  0.0147 -0.8701
19948TIP3   OH281258   4.439   6.781  16.777  0.3053 -0.3357  0.0128
19948TIP3    H181259   4.453   6.832  16.857 -0.4451 -0.8710  0.4968
19948TIP3    H281260   4.387   6.839  16.720 -0.6906 -0.6079  0.6280
19949TIP3   OH281261   2.555   2.951   6.369 -0.8128  0.2775  0.1539
19949TIP3    H181262   2.553   3.034   6.418 -0.3377  0.5581 -0.2835
19949TIP3    H281263   2.608   2.893   6.423 -1.2050  0.2325  0.4971
19950TIP3   OH281264   4.855   0.672  16.562  0.1946  0.3607 -0.0187
19950TIP3    H181265   4.939   0.628  16.554 -0.4792 -1.0836  0.5742
19950TIP3    H281266   4.819   0.673  16.473  0.4893  0.2970 -0.1388
19951TIP3   OH281267   0.308   1.858   3.077 -0.4842 -0.4276 -0.1978
19951TIP3    H181268   0.213   1.858   3.065 -0.6696  0.0732  1.0682
19951TIP3    H281269   0.331   1.951   3.085 -0.2024 -0.6157  1.5291
19952TIP3   OH281270   1.259   3.424   4.534  0.2402 -0.4090 -0.4118
19952TIP3    H181271   1.317   3.352   4.508  1.8452 -0.2918  2.3984
19952TIP3    H281272   1.231   3.400   4.622 -1.2186  1.2401 -0.3934
19953TIP3   OH281273   0.719   5.631  14.203  0.1571  0.0261 -0.7060
19953TIP3    H181274   0.676   5.717  14.196 -0.4964 -0.0476  1.6814
19953TIP3    H281275   0.808   5.652  14.232 -0.3937 -0.0964  1.2171
19954TIP3   OH281276   6.410   0.070   4.499  0.1634 -0.3839 -0.6259
19954TIP3    H181277   6.319   0.075   4.528  0.4492  0.1801  0.2110
19954TIP3    H281278   6.428  -0.024   4.491 -1.2344 -0.5110 -3.2867
19955TIP3   OH281279   5.745   0.016   5.539 -0.0037 -0.2444  0.1880
19955TIP3    H181280   5.756   0.099   5.585  0.2238 -0.5495  0.6871
19955TIP3    H281281   5.703   0.040   5.456  0.7771  0.4625 -0.0148
19956TIP3   OH281282   2.420   0.004  12.895 -0.4434  0.5568  0.4675
19956TIP3    H181283   2.437  -0.089  12.879 -0.0651  0.2634  2.3514
19956TIP3    H281284   2.466   0.049  12.824 -0.8736 -0.6763 -0.6532
19957TIP3   OH281285   2.552   5.599   6.141  0.4657  0.8127  0.0229
19957TIP3    H181286   2.545   5.644   6.225 -1.4697  0.5948  0.0125
19957TIP3    H281287   2.463   5.599   6.106  0.8085 -1.1289 -0.9759
19958TIP3   OH281288   2.478   1.517   4.763 -0.0555  0.0778 -0.1222
19958TIP3    H181289   2.403   1.523   4.823 -0.7927 -0.6502 -0.9401
19958TIP3    H281290   2.481   1.425   4.738  1.6200 -0.0713  0.5012
19959TIP3   OH281291   4.608   5.875   0.355 -0.0607  0.1785 -0.3771
19959TIP3    H181292   4.636   5.965   0.339 -0.3063  0.6163  1.3799
19959TIP3    H281293   4.676   5.839   0.413 -0.5153 -0.4191 -0.2068
19960TIP3   OH281294   1.307   2.162  12.856  0.3105 -0.1803  0.2677
19960TIP3    H181295   1.345   2.237  12.902  0.4122  0.6444 -1.1329
19960TIP3    H281296   1.382   2.113  12.823  0.2261  0.7928 -1.4563
19961TIP3   OH281297   0.997   3.748  15.442 -0.5523  0.0886  0.3640
19961TIP3    H181298   1.019   3.702  15.522  0.8452  0.8429  0.4420
19961TIP3    H281299   0.930   3.811  15.468 -0.7147 -0.2370  0.7486
19962TIP3   OH281300   3.858   5.525   4.347  0.1775 -0.4110 -0.3683
19962TIP3    H181301   3.890   5.551   4.261 -2.8130  0.3827 -1.3277
19962TIP3    H281302   3.829   5.434   4.335 -1.2752  0.0596 -0.5388
19963TIP3   OH281303   2.252   6.569  13.212  0.0041  0.3667 -0.0893
19963TIP3    H181304   2.264   6.639  13.148  0.3660 -0.5873 -1.0925
19963TIP3    H281305   2.217   6.496  13.161 -0.7032 -0.0827  1.0018
19964TIP3   OH281306   1.038   2.354   2.312  0.0431 -0.3923 -0.4076
19964TIP3    H181307   1.077   2.305   2.385  0.3072  0.9478  0.3810
19964TIP3    H281308   1.067   2.444   2.325 -1.8843  0.3238 -0.8146
19965TIP3   OH281309   1.532   6.645  11.015 -0.5154  0.1170 -0.4487
19965TIP3    H181310   1.495   6.560  11.041 -1.5192  0.2785 -1.2999
19965TIP3    H281311   1.621   6.644  11.052 -0.4636 -1.3481 -0.5405
19966LIG     O181312   3.330   3.472  16.500 -0.0985 -0.0519  0.5294
19966LIG     O281313   3.560   3.351  16.485  0.0349  0.4572  0.0630
19966LIG     O381314   3.188   3.221  16.436 -0.1941  0.1607 -0.0458
19966LIG     O481315   3.723   3.342  16.651 -0.0769 -0.1048 -0.1151
19966LIG     O581316   3.437   3.122  16.592 -0.0802  0.3302 -0.0473
19966LIG     O681317   3.581   2.976  16.788 -0.2808 -0.6680  0.4155
19966LIG     O781318   3.760   3.110  16.950  0.1129 -0.1466  0.2734
19966LIG     O881319   3.987   3.384  16.717  0.0815  0.1332  0.4398
19966LIG     O981320   3.954   3.345  16.939 -0.4651  0.6276 -0.0591
19966LIG      N81321   3.341   3.844  16.157 -0.1329 -0.4827  0.2995
19966LIG     C181322   3.393   3.634  16.347  0.1859  0.2970  0.2130
19966LIG     C281323   3.507   3.668  16.246  0.1190  0.6920  0.1227
19966LIG     C381324   3.438   3.565  16.472  0.5875  1.2020 -0.1337
19966LIG     C481325   3.428   3.724  16.126 -0.1291  0.1423 -0.4825
19966LIG     C581326   3.297   3.755  16.380 -0.3974  0.9186 -0.1526
19966LIG     C681327   3.299   3.535  16.283  0.9744  0.1787  0.7856
19966LIG     C781328   3.353   3.604  16.053 -0.1484 -0.0687 -0.3796
19966LIG     C881329   3.228   3.819  16.261 -1.3509  0.5848 -0.5964
19966LIG     C981330   3.566   3.487  16.453 -0.1818 -0.1780 -0.9019
19966LIG    C1081331   3.280   3.503  16.148  0.3148 -0.8207 -0.6356
19966LIG    C1181332   3.608   3.559  16.221 -0.1388  0.5225 -0.3813
19966LIG    C1281333   3.260   3.441  16.380  0.9157 -0.1161 -0.4760
19966LIG    C1381334   3.624   3.466  16.317  0.8080 -0.7680 -0.5039
19966LIG    C1481335   3.289   3.922  16.046 -0.4046  0.5089 -0.9730
19966LIG    C1581336   3.196   3.400  16.112  0.3246 -0.7977  0.1943
19966LIG    C1681337   3.190   3.327  16.348 -0.6673 -1.0428 -0.2791
19966LIG    C1781338   3.144   3.313  16.216  0.6534  0.1677  0.0590
19966LIG    C1881339   3.590   3.310  16.617 -0.0787  0.0820  0.1506
19966LIG    C1981340   3.569   3.158  16.628 -0.1610 -0.7146  0.1428
19966LIG    C2081341   3.604   3.112  16.771  0.5531 -0.0078 -0.6986
19966LIG    C2181342   3.744   3.157  16.814 -0.1237  0.5209 -0.8374
19966LIG    C2281343   3.760   3.306  16.792 -0.1797  0.9842 -0.4000
19966LIG    C2381344   3.912   3.342  16.824 -0.0060 -0.1089 -0.2661
19966LIG     H181345   3.553   3.758  16.292 -0.2405  1.7168 -1.4196
19966LIG     H281346   3.437   3.632  16.560 -1.7000  0.0670  0.7984
19966LIG     H381347   3.509   3.754  16.056 -0.0174  1.0737  0.0203
19966LIG     H481348   3.357   3.840  16.419 -2.3665  0.4705  4.4168
19966LIG     H581349   3.230   3.724  16.463  0.0352 -1.3101 -0.5554
19966LIG     H681350   3.434   3.559  15.992  1.0067  0.7599  0.4996
19966LIG     H781351   3.275   3.629  15.977  1.2134 -1.8984 -2.5339
19966LIG     H881352   3.156   3.739  16.232 -2.2940  0.6575  1.3567
19966LIG     H981353   3.182   3.915  16.291 -0.7842  1.0742 -1.2619
19966LIG    H1081354   3.648   3.530  16.516  0.4261 -2.1451 -0.2774
19966LIG    H1181355   3.686   3.569  16.144  0.7940 -0.6869  0.3893
19966LIG    H1281356   3.708   3.396  16.308  0.0897 -1.7467  0.1966
19966LIG    H1381357   3.203   3.985  16.078 -1.4613 -0.8919 -0.9496
19966LIG    H1481358   3.253   3.861  15.960  2.5649  0.8425 -2.6173
19966LIG    H1581359   3.360   3.996  16.002  0.7669  1.0857  1.6685
19966LIG    H1681360   3.185   3.384  16.006  1.2873  0.6271 -0.1424
19966LIG    H1781361   3.097   3.219  16.192  0.3115  0.8266 -2.1039
19966LIG    H1881362   3.518   3.358  16.688  0.0141 -1.7411  1.5642
19966LIG    H1981363   3.636   3.109  16.555  0.2680 -0.5930  0.4516
19966LIG    H2081364   3.528   3.149  16.842  0.5838 -0.0549 -0.6400
19966LIG    H2181365   3.127   3.157  16.398 -0.2582 -0.2007  0.6600
19966LIG    H2281366   3.812   3.099  16.748 -1.0332 -1.8663  0.1718
19966LIG    H2381367   3.679   3.358  16.848  0.0948 -0.9675  1.9280
19966LIG    H2481368   3.429   3.159  16.503  0.1303 -2.5785 -1.3984
19966LIG    H2581369   3.518   2.952  16.720  0.6260 -2.6898  0.2286
19966LIG    H2681370   3.739   3.016  16.958 -0.5561 -0.0151  0.1637
19966LIG    H2781371   4.079   3.410  16.732  1.1001 -1.0809 -2.7273
   6.79046   6.79046  17.25085
